### Starting Gaussian ###
 Entering Gaussian System, Link 0=g16
 Initial command:
 /cluster/software/gaussian/gaussian-16-A.03/avx2/g16/l1.exe "/local/scratch/yxie/Gau-4132.inp" -scrdir="/local/scratch/yxie/"
 Entering Link 1 = /cluster/software/gaussian/gaussian-16-A.03/avx2/g16/l1.exe PID=      4133.
  
 Copyright (c) 1988,1990,1992,1993,1995,1998,2003,2009,2016,
            Gaussian, Inc.  All Rights Reserved.
  
 This is part of the Gaussian(R) 16 program.  It is based on
 the Gaussian(R) 09 system (copyright 2009, Gaussian, Inc.),
 the Gaussian(R) 03 system (copyright 2003, Gaussian, Inc.),
 the Gaussian(R) 98 system (copyright 1998, Gaussian, Inc.),
 the Gaussian(R) 94 system (copyright 1995, Gaussian, Inc.),
 the Gaussian 92(TM) system (copyright 1992, Gaussian, Inc.),
 the Gaussian 90(TM) system (copyright 1990, Gaussian, Inc.),
 the Gaussian 88(TM) system (copyright 1988, Gaussian, Inc.),
 the Gaussian 86(TM) system (copyright 1986, Carnegie Mellon
 University), and the Gaussian 82(TM) system (copyright 1983,
 Carnegie Mellon University). Gaussian is a federally registered
 trademark of Gaussian, Inc.
  
 This software contains proprietary and confidential information,
 including trade secrets, belonging to Gaussian, Inc.
  
 This software is provided under written license and may be
 used, copied, transmitted, or stored only in accord with that
 written license.
  
 The following legend is applicable only to US Government
 contracts under FAR:
  
                    RESTRICTED RIGHTS LEGEND
  
 Use, reproduction and disclosure by the US Government is
 subject to restrictions as set forth in subparagraphs (a)
 and (c) of the Commercial Computer Software - Restricted
 Rights clause in FAR 52.227-19.
  
 Gaussian, Inc.
 340 Quinnipiac St., Bldg. 40, Wallingford CT 06492
  
  
 ---------------------------------------------------------------
 Warning -- This program may not be used in any manner that
 competes with the business of Gaussian, Inc. or will provide
 assistance to any competitor of Gaussian, Inc.  The licensee
 of this program is prohibited from giving any competitor of
 Gaussian, Inc. access to this program.  By using this program,
 the user acknowledges that Gaussian, Inc. is engaged in the
 business of creating and licensing software in the field of
 computational chemistry and represents and warrants to the
 licensee that it is not a competitor of Gaussian, Inc. and that
 it will not use this program in any manner prohibited above.
 ---------------------------------------------------------------
  

 Cite this work as:
 Gaussian 16, Revision A.03,
 M. J. Frisch, G. W. Trucks, H. B. Schlegel, G. E. Scuseria, 
 M. A. Robb, J. R. Cheeseman, G. Scalmani, V. Barone, 
 G. A. Petersson, H. Nakatsuji, X. Li, M. Caricato, A. V. Marenich, 
 J. Bloino, B. G. Janesko, R. Gomperts, B. Mennucci, H. P. Hratchian, 
 J. V. Ortiz, A. F. Izmaylov, J. L. Sonnenberg, D. Williams-Young, 
 F. Ding, F. Lipparini, F. Egidi, J. Goings, B. Peng, A. Petrone, 
 T. Henderson, D. Ranasinghe, V. G. Zakrzewski, J. Gao, N. Rega, 
 G. Zheng, W. Liang, M. Hada, M. Ehara, K. Toyota, R. Fukuda, 
 J. Hasegawa, M. Ishida, T. Nakajima, Y. Honda, O. Kitao, H. Nakai, 
 T. Vreven, K. Throssell, J. A. Montgomery, Jr., J. E. Peralta, 
 F. Ogliaro, M. J. Bearpark, J. J. Heyd, E. N. Brothers, K. N. Kudin, 
 V. N. Staroverov, T. A. Keith, R. Kobayashi, J. Normand, 
 K. Raghavachari, A. P. Rendell, J. C. Burant, S. S. Iyengar, 
 J. Tomasi, M. Cossi, J. M. Millam, M. Klene, C. Adamo, R. Cammi, 
 J. W. Ochterski, R. L. Martin, K. Morokuma, O. Farkas, 
 J. B. Foresman, and D. J. Fox, Gaussian, Inc., Wallingford CT, 2016.
 
 ******************************************
 Gaussian 16:  ES64L-G16RevA.03 25-Dec-2016
                20-May-2023 
 ******************************************
 %chk=COC1dCCdCCdCqONCCdOrC2COCN12.chk
 %NProcShared=20
 Will use up to   20 processors via shared memory.
 -----------------------------
 # opt freq b3lyp/6-31g(2df,p)
 -----------------------------
 1/18=20,19=15,26=3,38=1/1,3;
 2/9=110,12=2,17=6,18=5,40=1/2;
 3/5=1,6=6,7=104,11=2,25=1,30=1,71=1,74=-5/1,2,3;
 4//1;
 5/5=2,38=5/2;
 6/7=2,8=2,9=2,10=2,28=1/1;
 7//1,2,3,16;
 1/18=20,19=15,26=3/3(2);
 2/9=110/2;
 99//99;
 2/9=110/2;
 3/5=1,6=6,7=104,11=2,25=1,30=1,71=1,74=-5/1,2,3;
 4/5=5,16=3,69=1/1;
 5/5=2,38=5/2;
 7//1,2,3,16;
 1/18=20,19=15,26=3/3(-5);
 2/9=110/2;
 6/7=2,8=2,9=2,10=2,19=2,28=1/1;
 99/9=1/99;
 -------------------
 Title Card Required
 -------------------
 Symbolic Z-matrix:
 Charge =  0 Multiplicity = 1
 C                     2.77149  -0.52554  -1.13976 
 O                     4.20815  -1.33245  -2.24181 
 C                     6.05498  -1.40294  -2.6094 
 C                     5.91648  -0.42833  -1.71737 
 C                     5.44881   0.63704  -2.64311 
 C                     6.64605   1.17822  -2.67111 
 C                     7.33462   0.99945  -3.84171 
 C                     8.60971   0.66546  -3.62836 
 O                     9.48238   0.12289  -2.64973 
 N                     8.9024   -0.10102  -1.37533 
 C                     9.87568   0.0127   -0.33431 
 C                     9.09597   0.1217    0.95844 
 O                     9.64445   0.20249   2.05434 
 C                     8.59396  -0.0835   -4.77711 
 C                     10.14227   0.49706  -4.94199 
 O                     10.37862  -0.67963  -5.6003 
 C                     9.41264  -1.88263  -4.61674 
 N                     7.6529   -1.42947  -3.96748 
 H                     2.46242  -0.36199   0.13621 
 H                     1.77552  -1.19674  -1.14167 
 H                     2.02992   0.49575  -1.37986 
 H                     5.29065  -0.19289  -0.79102 
 H                     4.88603   0.29778  -3.56899 
 H                     7.27341   0.81969  -1.84601 
 H                     6.75157   0.38865  -4.66918 
 H                     8.44612  -1.01192  -1.42867 
 H                     10.46362   0.92245  -0.47076 
 H                     10.4857  -0.8894   -0.32311 
 H                     7.98841   0.1234    0.88755 
 H                     8.32869  -0.14001  -5.86685 
 H                     11.00355   0.64744  -4.21103 
 H                     10.25557   1.46548  -5.54646 
 H                     10.48827  -1.96765  -4.12924 
 H                     9.57583  -2.31672  -5.6919 
 
 Add virtual bond connecting atoms H19        and C1         Dist= 2.50D+00.
 Add virtual bond connecting atoms C17        and C14        Dist= 3.75D+00.
 Add virtual bond connecting atoms C17        and O16        Dist= 3.46D+00.
 Add virtual bond connecting atoms H33        and O16        Dist= 3.70D+00.
 Add virtual bond connecting atoms H34        and O16        Dist= 3.45D+00.
 Add virtual bond connecting atoms N18        and C14        Dist= 3.46D+00.
 Add virtual bond connecting atoms N18        and C17        Dist= 3.65D+00.
 Add virtual bond connecting atoms C3         and O2         Dist= 3.56D+00.
 Add virtual bond connecting atoms C4         and O2         Dist= 3.78D+00.
 Add virtual bond connecting atoms O2         and C1         Dist= 3.75D+00.

 GradGradGradGradGradGradGradGradGradGradGradGradGradGradGradGradGradGrad
 Berny optimization.
 Initialization pass.
                           ----------------------------
                           !    Initial Parameters    !
                           ! (Angstroms and Degrees)  !
 --------------------------                            --------------------------
 ! Name  Definition              Value          Derivative Info.                !
 --------------------------------------------------------------------------------
 ! R1    R(1,2)                  1.9823         estimate D2E/DX2                !
 ! R2    R(1,19)                 1.323          estimate D2E/DX2                !
 ! R3    R(1,20)                 1.201          estimate D2E/DX2                !
 ! R4    R(1,21)                 1.2848         estimate D2E/DX2                !
 ! R5    R(2,3)                  1.8844         estimate D2E/DX2                !
 ! R6    R(2,4)                  2.0027         estimate D2E/DX2                !
 ! R7    R(3,4)                  1.3284         estimate D2E/DX2                !
 ! R8    R(4,5)                  1.4869         estimate D2E/DX2                !
 ! R9    R(4,22)                 1.1425         estimate D2E/DX2                !
 ! R10   R(5,6)                  1.3142         estimate D2E/DX2                !
 ! R11   R(5,23)                 1.1354         estimate D2E/DX2                !
 ! R12   R(6,7)                  1.3698         estimate D2E/DX2                !
 ! R13   R(6,24)                 1.0968         estimate D2E/DX2                !
 ! R14   R(7,8)                  1.3353         estimate D2E/DX2                !
 ! R15   R(7,25)                 1.1823         estimate D2E/DX2                !
 ! R16   R(8,9)                  1.419          estimate D2E/DX2                !
 ! R17   R(8,14)                 1.3714         estimate D2E/DX2                !
 ! R18   R(9,10)                 1.418          estimate D2E/DX2                !
 ! R19   R(10,11)                1.4297         estimate D2E/DX2                !
 ! R20   R(10,26)                1.0202         estimate D2E/DX2                !
 ! R21   R(11,12)                1.5136         estimate D2E/DX2                !
 ! R22   R(11,27)                1.0918         estimate D2E/DX2                !
 ! R23   R(11,28)                1.0891         estimate D2E/DX2                !
 ! R24   R(12,13)                1.2282         estimate D2E/DX2                !
 ! R25   R(12,29)                1.1098         estimate D2E/DX2                !
 ! R26   R(14,15)                1.6618         estimate D2E/DX2                !
 ! R27   R(14,17)                1.9831         estimate D2E/DX2                !
 ! R28   R(14,18)                1.831          estimate D2E/DX2                !
 ! R29   R(14,30)                1.123          estimate D2E/DX2                !
 ! R30   R(15,16)                1.3689         estimate D2E/DX2                !
 ! R31   R(15,31)                1.1396         estimate D2E/DX2                !
 ! R32   R(15,32)                1.1472         estimate D2E/DX2                !
 ! R33   R(16,17)                1.8297         estimate D2E/DX2                !
 ! R34   R(16,33)                1.9583         estimate D2E/DX2                !
 ! R35   R(16,34)                1.8256         estimate D2E/DX2                !
 ! R36   R(17,18)                1.9297         estimate D2E/DX2                !
 ! R37   R(17,33)                1.184          estimate D2E/DX2                !
 ! R38   R(17,34)                1.1709         estimate D2E/DX2                !
 ! A1    A(2,1,19)             139.0948         estimate D2E/DX2                !
 ! A2    A(2,1,20)             111.8779         estimate D2E/DX2                !
 ! A3    A(2,1,21)             129.643          estimate D2E/DX2                !
 ! A4    A(19,1,20)             82.9286         estimate D2E/DX2                !
 ! A5    A(19,1,21)             86.9693         estimate D2E/DX2                !
 ! A6    A(20,1,21)             88.0112         estimate D2E/DX2                !
 ! A7    A(1,2,3)              146.5087         estimate D2E/DX2                !
 ! A8    A(1,2,4)              106.7898         estimate D2E/DX2                !
 ! A9    A(2,4,5)               83.8075         estimate D2E/DX2                !
 ! A10   A(2,4,22)              80.6825         estimate D2E/DX2                !
 ! A11   A(3,4,5)               98.0706         estimate D2E/DX2                !
 ! A12   A(3,4,22)             138.8306         estimate D2E/DX2                !
 ! A13   A(5,4,22)             100.654          estimate D2E/DX2                !
 ! A14   A(4,5,6)               91.2482         estimate D2E/DX2                !
 ! A15   A(4,5,23)             116.7142         estimate D2E/DX2                !
 ! A16   A(6,5,23)             123.8659         estimate D2E/DX2                !
 ! A17   A(5,6,7)              114.987          estimate D2E/DX2                !
 ! A18   A(5,6,24)             111.7443         estimate D2E/DX2                !
 ! A19   A(7,6,24)             108.2217         estimate D2E/DX2                !
 ! A20   A(6,7,8)              112.0936         estimate D2E/DX2                !
 ! A21   A(6,7,25)             114.6858         estimate D2E/DX2                !
 ! A22   A(8,7,25)             116.9716         estimate D2E/DX2                !
 ! A23   A(7,8,9)              142.4756         estimate D2E/DX2                !
 ! A24   A(7,8,14)              89.5299         estimate D2E/DX2                !
 ! A25   A(9,8,14)             112.0813         estimate D2E/DX2                !
 ! A26   A(8,9,10)             115.3826         estimate D2E/DX2                !
 ! A27   A(9,10,11)            111.3105         estimate D2E/DX2                !
 ! A28   A(9,10,26)            106.0777         estimate D2E/DX2                !
 ! A29   A(11,10,26)           114.4295         estimate D2E/DX2                !
 ! A30   A(10,11,12)           106.078          estimate D2E/DX2                !
 ! A31   A(10,11,27)           109.9922         estimate D2E/DX2                !
 ! A32   A(10,11,28)           108.8402         estimate D2E/DX2                !
 ! A33   A(12,11,27)           108.914          estimate D2E/DX2                !
 ! A34   A(12,11,28)           109.8411         estimate D2E/DX2                !
 ! A35   A(27,11,28)           112.9469         estimate D2E/DX2                !
 ! A36   A(11,12,13)           122.4658         estimate D2E/DX2                !
 ! A37   A(11,12,29)           117.3635         estimate D2E/DX2                !
 ! A38   A(13,12,29)           120.1704         estimate D2E/DX2                !
 ! A39   A(8,14,15)             83.2012         estimate D2E/DX2                !
 ! A40   A(8,14,17)            115.0221         estimate D2E/DX2                !
 ! A41   A(8,14,18)             92.1187         estimate D2E/DX2                !
 ! A42   A(8,14,30)            147.4612         estimate D2E/DX2                !
 ! A43   A(15,14,17)            86.5794         estimate D2E/DX2                !
 ! A44   A(15,14,18)           141.218          estimate D2E/DX2                !
 ! A45   A(15,14,30)            98.1282         estimate D2E/DX2                !
 ! A46   A(17,14,30)            97.4891         estimate D2E/DX2                !
 ! A47   A(18,14,30)           105.705          estimate D2E/DX2                !
 ! A48   A(14,15,16)            84.7371         estimate D2E/DX2                !
 ! A49   A(14,15,31)           133.3633         estimate D2E/DX2                !
 ! A50   A(14,15,32)           116.0539         estimate D2E/DX2                !
 ! A51   A(16,15,31)           106.9419         estimate D2E/DX2                !
 ! A52   A(16,15,32)           117.0774         estimate D2E/DX2                !
 ! A53   A(31,15,32)            98.7389         estimate D2E/DX2                !
 ! A54   A(15,16,17)           102.4453         estimate D2E/DX2                !
 ! A55   A(15,16,33)           102.3444         estimate D2E/DX2                !
 ! A56   A(15,16,34)           135.9746         estimate D2E/DX2                !
 ! A57   A(33,16,34)            58.1647         estimate D2E/DX2                !
 ! A58   A(14,17,16)            65.0385         estimate D2E/DX2                !
 ! A59   A(14,17,33)           118.2601         estimate D2E/DX2                !
 ! A60   A(14,17,34)           108.6394         estimate D2E/DX2                !
 ! A61   A(16,17,18)           120.5258         estimate D2E/DX2                !
 ! A62   A(18,17,33)           134.9752         estimate D2E/DX2                !
 ! A63   A(18,17,34)           121.541          estimate D2E/DX2                !
 ! A64   A(33,17,34)           102.9931         estimate D2E/DX2                !
 ! D1    D(19,1,2,3)           -54.7395         estimate D2E/DX2                !
 ! D2    D(19,1,2,4)           -58.5154         estimate D2E/DX2                !
 ! D3    D(20,1,2,3)          -159.862          estimate D2E/DX2                !
 ! D4    D(20,1,2,4)          -163.6378         estimate D2E/DX2                !
 ! D5    D(21,1,2,3)            93.631          estimate D2E/DX2                !
 ! D6    D(21,1,2,4)            89.8552         estimate D2E/DX2                !
 ! D7    D(1,2,4,5)            -81.4001         estimate D2E/DX2                !
 ! D8    D(1,2,4,22)            20.5027         estimate D2E/DX2                !
 ! D9    D(2,4,5,6)           -164.9392         estimate D2E/DX2                !
 ! D10   D(2,4,5,23)           -35.5227         estimate D2E/DX2                !
 ! D11   D(3,4,5,6)           -101.053          estimate D2E/DX2                !
 ! D12   D(3,4,5,23)            28.3635         estimate D2E/DX2                !
 ! D13   D(22,4,5,6)           115.7875         estimate D2E/DX2                !
 ! D14   D(22,4,5,23)         -114.7961         estimate D2E/DX2                !
 ! D15   D(4,5,6,7)            107.4172         estimate D2E/DX2                !
 ! D16   D(4,5,6,24)           -16.4511         estimate D2E/DX2                !
 ! D17   D(23,5,6,7)           -16.3722         estimate D2E/DX2                !
 ! D18   D(23,5,6,24)         -140.2404         estimate D2E/DX2                !
 ! D19   D(5,6,7,8)           -136.0538         estimate D2E/DX2                !
 ! D20   D(5,6,7,25)             0.4407         estimate D2E/DX2                !
 ! D21   D(24,6,7,8)           -10.3414         estimate D2E/DX2                !
 ! D22   D(24,6,7,25)          126.1531         estimate D2E/DX2                !
 ! D23   D(6,7,8,9)             20.5045         estimate D2E/DX2                !
 ! D24   D(6,7,8,14)           147.8425         estimate D2E/DX2                !
 ! D25   D(25,7,8,9)          -114.9199         estimate D2E/DX2                !
 ! D26   D(25,7,8,14)           12.4181         estimate D2E/DX2                !
 ! D27   D(7,8,9,10)            -5.8258         estimate D2E/DX2                !
 ! D28   D(14,8,9,10)         -126.7357         estimate D2E/DX2                !
 ! D29   D(7,8,14,15)          142.2896         estimate D2E/DX2                !
 ! D30   D(7,8,14,17)         -134.7156         estimate D2E/DX2                !
 ! D31   D(7,8,14,18)          -76.3414         estimate D2E/DX2                !
 ! D32   D(7,8,14,30)           47.8237         estimate D2E/DX2                !
 ! D33   D(9,8,14,15)          -69.2179         estimate D2E/DX2                !
 ! D34   D(9,8,14,17)           13.7768         estimate D2E/DX2                !
 ! D35   D(9,8,14,18)           72.151          estimate D2E/DX2                !
 ! D36   D(9,8,14,30)         -163.6839         estimate D2E/DX2                !
 ! D37   D(8,9,10,11)         -150.7867         estimate D2E/DX2                !
 ! D38   D(8,9,10,26)           84.1537         estimate D2E/DX2                !
 ! D39   D(9,10,11,12)         165.4035         estimate D2E/DX2                !
 ! D40   D(9,10,11,27)          47.7688         estimate D2E/DX2                !
 ! D41   D(9,10,11,28)         -76.4603         estimate D2E/DX2                !
 ! D42   D(26,10,11,12)        -74.3517         estimate D2E/DX2                !
 ! D43   D(26,10,11,27)        168.0135         estimate D2E/DX2                !
 ! D44   D(26,10,11,28)         43.7844         estimate D2E/DX2                !
 ! D45   D(10,11,12,13)        178.2818         estimate D2E/DX2                !
 ! D46   D(10,11,12,29)         -1.523          estimate D2E/DX2                !
 ! D47   D(27,11,12,13)        -63.367          estimate D2E/DX2                !
 ! D48   D(27,11,12,29)        116.8282         estimate D2E/DX2                !
 ! D49   D(28,11,12,13)         60.8119         estimate D2E/DX2                !
 ! D50   D(28,11,12,29)       -118.9929         estimate D2E/DX2                !
 ! D51   D(8,14,15,16)         150.3631         estimate D2E/DX2                !
 ! D52   D(8,14,15,31)          41.9709         estimate D2E/DX2                !
 ! D53   D(8,14,15,32)         -92.0048         estimate D2E/DX2                !
 ! D54   D(17,14,15,16)         34.651          estimate D2E/DX2                !
 ! D55   D(17,14,15,31)        -73.7412         estimate D2E/DX2                !
 ! D56   D(17,14,15,32)        152.2831         estimate D2E/DX2                !
 ! D57   D(18,14,15,16)         65.4655         estimate D2E/DX2                !
 ! D58   D(18,14,15,31)        -42.9267         estimate D2E/DX2                !
 ! D59   D(18,14,15,32)       -176.9024         estimate D2E/DX2                !
 ! D60   D(30,14,15,16)        -62.4349         estimate D2E/DX2                !
 ! D61   D(30,14,15,31)       -170.8271         estimate D2E/DX2                !
 ! D62   D(30,14,15,32)         55.1972         estimate D2E/DX2                !
 ! D63   D(8,14,17,16)        -108.7189         estimate D2E/DX2                !
 ! D64   D(8,14,17,33)         -49.6868         estimate D2E/DX2                !
 ! D65   D(8,14,17,34)        -166.4758         estimate D2E/DX2                !
 ! D66   D(15,14,17,16)        -27.8549         estimate D2E/DX2                !
 ! D67   D(15,14,17,33)         31.1772         estimate D2E/DX2                !
 ! D68   D(15,14,17,34)        -85.6118         estimate D2E/DX2                !
 ! D69   D(30,14,17,16)         69.9039         estimate D2E/DX2                !
 ! D70   D(30,14,17,33)        128.9359         estimate D2E/DX2                !
 ! D71   D(30,14,17,34)         12.147          estimate D2E/DX2                !
 ! D72   D(14,15,16,17)        -39.0479         estimate D2E/DX2                !
 ! D73   D(14,15,16,33)        -76.1698         estimate D2E/DX2                !
 ! D74   D(14,15,16,34)        -19.5731         estimate D2E/DX2                !
 ! D75   D(31,15,16,17)         94.8004         estimate D2E/DX2                !
 ! D76   D(31,15,16,33)         57.6785         estimate D2E/DX2                !
 ! D77   D(31,15,16,34)        114.2752         estimate D2E/DX2                !
 ! D78   D(32,15,16,17)       -155.6813         estimate D2E/DX2                !
 ! D79   D(32,15,16,33)        167.1967         estimate D2E/DX2                !
 ! D80   D(32,15,16,34)       -136.2065         estimate D2E/DX2                !
 ! D81   D(15,16,17,14)         35.4379         estimate D2E/DX2                !
 ! D82   D(15,16,17,18)         41.4379         estimate D2E/DX2                !
 --------------------------------------------------------------------------------
 Trust Radius=3.00D-01 FncErr=1.00D-07 GrdErr=1.00D-06 EigMax=2.50D+02 EigMin=1.00D-04
 Number of steps in this run=    194 maximum allowed number of steps=    204.
 GradGradGradGradGradGradGradGradGradGradGradGradGradGradGradGradGradGrad

                          Input orientation:                          
 ---------------------------------------------------------------------
 Center     Atomic      Atomic             Coordinates (Angstroms)
 Number     Number       Type             X           Y           Z
 ---------------------------------------------------------------------
      1          6           0        2.771490   -0.525540   -1.139760
      2          8           0        4.208150   -1.332450   -2.241810
      3          6           0        6.054980   -1.402940   -2.609400
      4          6           0        5.916480   -0.428330   -1.717370
      5          6           0        5.448810    0.637040   -2.643110
      6          6           0        6.646050    1.178220   -2.671110
      7          6           0        7.334620    0.999450   -3.841710
      8          6           0        8.609710    0.665460   -3.628360
      9          8           0        9.482380    0.122890   -2.649730
     10          7           0        8.902400   -0.101020   -1.375330
     11          6           0        9.875680    0.012700   -0.334310
     12          6           0        9.095970    0.121700    0.958440
     13          8           0        9.644450    0.202490    2.054340
     14          6           0        8.593960   -0.083500   -4.777110
     15          6           0       10.142270    0.497060   -4.941990
     16          8           0       10.378620   -0.679630   -5.600300
     17          6           0        9.412640   -1.882630   -4.616740
     18          7           0        7.652900   -1.429470   -3.967480
     19          1           0        2.462420   -0.361990    0.136210
     20          1           0        1.775520   -1.196740   -1.141670
     21          1           0        2.029920    0.495750   -1.379860
     22          1           0        5.290650   -0.192890   -0.791020
     23          1           0        4.886030    0.297780   -3.568990
     24          1           0        7.273410    0.819690   -1.846010
     25          1           0        6.751570    0.388650   -4.669180
     26          1           0        8.446120   -1.011920   -1.428670
     27          1           0       10.463620    0.922450   -0.470760
     28          1           0       10.485700   -0.889400   -0.323110
     29          1           0        7.988410    0.123400    0.887550
     30          1           0        8.328690   -0.140010   -5.866850
     31          1           0       11.003550    0.647440   -4.211030
     32          1           0       10.255570    1.465480   -5.546460
     33          1           0       10.488270   -1.967650   -4.129240
     34          1           0        9.575830   -2.316720   -5.691900
 ---------------------------------------------------------------------
                    Distance matrix (angstroms):
                    1          2          3          4          5
     1  C    0.000000
     2  O    1.982324   0.000000
     3  C    3.702834   1.884376   0.000000
     4  C    3.199069   2.002714   1.328444   0.000000
     5  C    3.283245   2.362027   2.128402   1.486850   0.000000
     6  C    4.501116   3.525779   2.648690   2.005716   1.314170
     7  C    5.517996   4.215715   2.987900   2.926175   2.263683
     8  C    6.457277   5.028707   3.441396   3.478757   3.311014
     9  O    6.909162   5.486521   3.751913   3.726766   4.066212
    10  N    6.150103   4.929827   3.365371   3.023217   3.752237
    11  C    7.169935   6.129346   4.666671   4.216945   5.031653
    12  C    6.694805   6.020543   4.929668   4.191855   5.151555
    13  O    7.613795   7.096922   6.100178   5.340552   6.313340
    14  C    6.879453   5.217562   3.589750   4.080419   3.868475
    15  C    8.356498   6.771400   5.075127   5.395537   5.228098
    16  O    8.819784   7.055518   5.306837   5.920388   5.897594
    17  C    7.618133   5.747148   3.941243   4.769116   5.094693
    18  N    5.713252   3.854044   2.097244   3.013375   3.298853
    19  H    1.323016   3.105535   4.639875   3.920547   4.200144
    20  H    1.201028   2.673278   4.528855   4.250816   4.371514
    21  H    1.284760   2.971525   4.617131   4.009138   3.647543
    22  H    2.564848   2.138971   2.314072   1.142462   2.035690
    23  H    3.324198   2.208750   2.275897   2.239991   1.135373
    24  H    4.751391   3.766189   2.647153   1.848070   1.999474
    25  H    5.397554   3.914498   2.817397   3.174589   2.421537
    26  H    5.702759   4.327161   2.695287   2.612088   3.630124
    27  H    7.855769   6.881286   5.423774   4.904602   5.472557
    28  H    7.765845   6.579159   5.012198   4.799408   5.751755
    29  H    5.634480   5.118863   4.277444   3.373857   4.379378
    30  H    7.305921   5.616198   4.168421   4.808333   4.392040
    31  H    8.864276   7.346785   5.590852   5.766620   5.771795
    32  H    8.910366   7.437769   5.873594   6.089019   5.676328
    33  H    8.400319   6.588306   4.720474   5.393319   5.864226
    34  H    8.380295   6.456307   4.767933   5.723089   5.920482
                    6          7          8          9         10
     6  C    0.000000
     7  C    1.369814   0.000000
     8  C    2.243928   1.335261   0.000000
     9  O    3.026375   2.608073   1.419032   0.000000
    10  N    2.899417   3.122819   2.397770   1.417959   0.000000
    11  C    4.153261   4.442130   3.588808   2.351169   1.429660
    12  C    4.504662   5.187893   4.644444   3.628802   2.352351
    13  O    5.680874   6.382309   5.794662   4.707534   3.522129
    14  C    3.133932   1.906224   1.371428   2.314656   3.415779
    15  C    4.224267   3.057108   2.025518   2.414521   3.823093
    16  O    5.095472   3.895880   2.971003   3.186400   4.512692
    17  C    4.561611   3.636650   2.848571   2.810000   3.733794
    18  N    3.081293   2.452911   2.327922   2.737386   3.169428
    19  H    5.268401   6.435503   7.281265   7.568118   6.620136
    20  H    5.630425   6.558739   7.507168   7.963125   7.214403
    21  H    4.841668   5.869775   6.955443   7.569066   6.898343
    22  H    2.692915   3.860855   4.450104   4.596207   3.659863
    23  H    2.163107   2.561701   3.742259   4.690635   4.593736
    24  H    1.096775   2.004714   2.232993   2.451743   1.929470
    25  H    2.151009   1.182257   2.147700   3.406777   3.964252
    26  H    3.095258   3.332237   2.771101   1.962808   1.020184
    27  H    4.413706   4.599986   3.670622   2.519928   2.074402
    28  H    4.952885   5.087004   4.106289   2.728469   2.058045
    29  H    3.946978   4.853947   4.590565   3.839830   2.450789
    30  H    3.844706   2.527397   2.395536   3.427824   4.528180
    31  H    4.651977   3.704235   2.463798   2.242046   3.607800
    32  H    4.623720   3.413987   2.651037   3.285029   4.656535
    33  H    5.175451   4.339570   3.273093   2.751567   3.685554
    34  H    5.470227   4.409445   3.752997   3.900670   4.898532
                   11         12         13         14         15
    11  C    0.000000
    12  C    1.513615   0.000000
    13  O    2.407309   1.228151   0.000000
    14  C    4.624990   5.761133   6.917661   0.000000
    15  C    4.640732   6.004225   7.020202   1.661776   0.000000
    16  O    5.335065   6.730854   7.740197   2.053783   1.368880
    17  C    4.705942   5.932980   6.993195   1.983135   2.510194
    18  N    4.496724   5.362207   6.549189   1.831046   3.295171
    19  H    7.437621   6.701791   7.455160   7.862191   9.246955
    20  H    8.229652   7.729019   8.607693   7.806846   9.344191
    21  H    7.929846   7.452290   8.358277   7.413735   8.859966
    22  H    4.612304   4.200004   5.216126   5.178102   6.422211
    23  H    5.953237   6.184838   7.367054   3.918376   5.436258
    24  H    3.115811   3.416702   4.606028   3.339304   4.233148
    25  H    5.356538   6.102260   7.321826   1.904987   3.403384
    26  H    2.071500   2.721340   3.878420   3.477912   4.182985
    27  H    1.091759   2.134076   2.750548   4.801272   4.502901
    28  H    1.089052   2.143838   2.748126   4.905739   4.834694
    29  H    2.250996   1.109828   2.027344   5.700690   6.225935
    30  H    5.746781   6.873267   8.037026   1.122985   2.133142
    31  H    4.087046   5.535222   6.426507   2.580861   1.139614
    32  H    5.424149   6.742710   7.729215   2.398372   1.147196
    33  H    4.324182   5.673480   6.607435   2.749212   2.618220
    34  H    5.849776   7.099520   8.145880   2.605414   2.966577
                   16         17         18         19         20
    16  O    0.000000
    17  C    1.829677   0.000000
    18  N    3.264646   1.929657   0.000000
    19  H    9.781343   8.556193   6.702303   0.000000
    20  H    9.703613   8.418560   6.525562   1.673803   0.000000
    21  H    9.428384   8.404680   6.482295   1.794782   1.727998
    22  H    7.018086   5.872151   4.147198   2.981147   3.672439
    23  H    5.937179   5.132462   3.285994   4.476348   4.219093
    24  H    5.097547   4.422192   3.115023   5.335840   5.898210
    25  H    3.894059   3.498965   2.147170   6.484755   6.302211
    26  H    4.609498   3.443267   2.692416   6.218997   6.679329
    27  H    5.374576   5.114898   5.065444   8.126340   8.967952
    28  H    5.282443   4.535771   4.647350   8.053705   8.753955
    29  H    6.960615   6.029079   5.108355   5.597918   6.667871
    30  H    2.136458   2.403008   2.393116   8.396376   8.147886
    31  H    2.020328   3.016098   3.949649   9.636822   9.898409
    32  H    2.149311   3.575577   4.200929   9.816597   9.919720
    33  H    1.958325   1.184004   2.890524   9.229652   9.242937
    34  H    1.825630   1.170912   2.731025   9.401513   9.099658
                   21         22         23         24         25
    21  H    0.000000
    22  H    3.384275   0.000000
    23  H    3.604004   2.849841   0.000000
    24  H    5.274127   2.463668   2.990089   0.000000
    25  H    5.755439   4.184806   2.167698   2.903171   0.000000
    26  H    6.591136   3.321807   4.355517   2.214547   3.915865
    27  H    8.493282   5.301525   6.410831   3.475530   5.629475
    28  H    8.633399   5.262377   6.580383   3.944492   5.870729
    29  H    6.386188   3.193046   5.432855   2.910051   5.698893
    30  H    7.759625   5.915787   4.162178   4.266356   2.049683
    31  H    9.410875   6.711173   6.161049   4.420060   4.284414
    32  H    9.271583   7.072116   5.840023   4.796212   3.769244
    33  H    9.228820   6.427188   6.068867   4.828843   4.450462
    34  H    9.134793   6.847777   5.773784   5.470747   4.042453
                   26         27         28         29         30
    26  H    0.000000
    27  H    2.954604   0.000000
    28  H    2.323179   1.817990   0.000000
    29  H    2.619795   2.934306   2.954305   0.000000
    30  H    4.524540   5.899537   5.995609   6.768094   0.000000
    31  H    4.127402   3.789033   4.212596   5.946529   3.242945
    32  H    5.134960   5.108904   5.734266   6.952530   2.528461
    33  H    3.518078   4.662377   3.955914   5.982472   3.320142
    34  H    4.599334   6.208115   5.629299   7.194668   2.514763
                   31         32         33         34
    31  H    0.000000
    32  H    1.735522   0.000000
    33  H    2.666627   3.721430   0.000000
    34  H    3.607992   3.845548   1.842906   0.000000
 Stoichiometry    C12H16N2O4
 Framework group  C1[X(C12H16N2O4)]
 Deg. of freedom    96
 Full point group                 C1      NOp   1
 Largest Abelian subgroup         C1      NOp   1
 Largest concise Abelian subgroup C1      NOp   1
                         Standard orientation:                         
 ---------------------------------------------------------------------
 Center     Atomic      Atomic             Coordinates (Angstroms)
 Number     Number       Type             X           Y           Z
 ---------------------------------------------------------------------
      1          6           0       -5.071705   -1.159144    0.052810
      2          8           0       -3.305735   -1.554424    0.861953
      3          6           0       -1.505378   -1.027339    1.040189
      4          6           0       -2.023295   -0.193375    0.145185
      5          6           0       -1.974435   -1.096787   -1.034723
      6          6           0       -0.891896   -0.500997   -1.482144
      7          6           0        0.261725   -1.229550   -1.360644
      8          6           0        1.278052   -0.489508   -0.910825
      9          8           0        1.574359    0.710434   -0.213693
     10          7           0        0.457878    1.532807    0.082583
     11          6           0        0.829624    2.912018    0.141827
     12          6           0       -0.463550    3.697154    0.093936
     13          8           0       -0.493159    4.923264    0.158199
     14          6           0        1.786149   -1.593680   -0.275642
     15          6           0        3.243727   -0.950239   -0.747818
     16          8           0        3.733104   -1.557587    0.377114
     17          6           0        2.388985   -1.285807    1.588393
     18          7           0        0.542326   -1.479899    1.063270
     19          1           0       -5.940477   -0.163613   -0.014474
     20          1           0       -5.965801   -1.703082    0.642040
     21          1           0       -5.588017   -1.593341   -1.040580
     22          1           0       -3.005308    0.356698   -0.050489
     23          1           0       -2.043718   -2.210970   -0.827674
     24          1           0       -0.735287    0.472054   -1.000938
     25          1           0        0.121644   -2.298970   -0.876444
     26          1           0        0.058207    1.166064    0.946608
     27          1           0        1.434675    3.173240   -0.728584
     28          1           0        1.340457    3.098350    1.085418
     29          1           0       -1.407208    3.120582    0.000170
     30          1           0        2.063290   -2.679931   -0.341578
     31          1           0        3.663396    0.109186   -0.762505
     32          1           0        3.651625   -1.313293   -1.756713
     33          1           0        3.106500   -0.368344    1.801229
     34          1           0        3.028015   -2.204950    1.931687
 ---------------------------------------------------------------------
 Rotational constants (GHZ):           0.4342506           0.3372727           0.2179090
 Standard basis: 6-31G(2df,p) (6D, 7F)
 There are   638 symmetry adapted cartesian basis functions of A   symmetry.
 There are   584 symmetry adapted basis functions of A   symmetry.
   584 basis functions,   904 primitive gaussians,   638 cartesian basis functions
    67 alpha electrons       67 beta electrons
       nuclear repulsion energy      1364.2986310938 Hartrees.
 NAtoms=   34 NActive=   34 NUniq=   34 SFac= 1.00D+00 NAtFMM=   60 NAOKFM=F Big=F
 Integral buffers will be    131072 words long.
 Raffenetti 2 integral format.
 Two-electron integral symmetry is turned on.
 One-electron integrals computed using PRISM.
 PrsmSu:  requested number of processors reduced to:  12 ShMem   1 Linda.
 NBasis=   584 RedAO= T EigKep=  3.26D-04  NBF=   584
 NBsUse=   584 1.00D-06 EigRej= -1.00D+00 NBFU=   584
 ExpMin= 1.61D-01 ExpMax= 5.48D+03 ExpMxC= 8.25D+02 IAcc=3 IRadAn=         5 AccDes= 0.00D+00
 Harris functional with IExCor=  402 and IRadAn=       5 diagonalized for initial guess.
 HarFok:  IExCor=  402 AccDes= 0.00D+00 IRadAn=         5 IDoV= 1 UseB2=F ITyADJ=14
 ICtDFT=  3500011 ScaDFX=  1.000000  1.000000  1.000000  1.000000
 FoFCou: FMM=F IPFlag=           0 FMFlag=      100000 FMFlg1=           0
         NFxFlg=           0 DoJE=T BraDBF=F KetDBF=T FulRan=T
         wScrn=  0.000000 ICntrl=       500 IOpCl=  0 I1Cent=   200000004 NGrid=           0
         NMat0=    1 NMatS0=      1 NMatT0=    0 NMatD0=    1 NMtDS0=    0 NMtDT0=    0
 Petite list used in FoFCou.
 Requested convergence on RMS density matrix=1.00D-08 within 128 cycles.
 Requested convergence on MAX density matrix=1.00D-06.
 Requested convergence on             energy=1.00D-06.
 No special actions if energy rises.
 Integral accuracy reduced to 1.0D-05 until final iterations.
 EnCoef did     6 forward-backward iterations
 EnCoef did     4 forward-backward iterations
 EnCoef did     6 forward-backward iterations
 EnCoef did     7 forward-backward iterations
 Initial convergence to 1.0D-05 achieved.  Increase integral accuracy.
 SCF Done:  E(RB3LYP) =  -876.011368652     A.U. after   29 cycles
            NFock= 29  Conv=0.10D-07     -V/T= 2.0068

 **********************************************************************

            Population analysis using the SCF density.

 **********************************************************************

 Orbital symmetries:
       Occupied  (A) (A) (A) (A) (A) (A) (A) (A) (A) (A) (A) (A)
                 (A) (A) (A) (A) (A) (A) (A) (A) (A) (A) (A) (A)
                 (A) (A) (A) (A) (A) (A) (A) (A) (A) (A) (A) (A)
                 (A) (A) (A) (A) (A) (A) (A) (A) (A) (A) (A) (A)
                 (A) (A) (A) (A) (A) (A) (A) (A) (A) (A) (A) (A)
                 (A) (A) (A) (A) (A) (A) (A)
       Virtual   (A) (A) (A) (A) (A) (A) (A) (A) (A) (A) (A) (A)
                 (A) (A) (A) (A) (A) (A) (A) (A) (A) (A) (A) (A)
                 (A) (A) (A) (A) (A) (A) (A) (A) (A) (A) (A) (A)
                 (A) (A) (A) (A) (A) (A) (A) (A) (A) (A) (A) (A)
                 (A) (A) (A) (A) (A) (A) (A) (A) (A) (A) (A) (A)
                 (A) (A) (A) (A) (A) (A) (A) (A) (A) (A) (A) (A)
                 (A) (A) (A) (A) (A) (A) (A) (A) (A) (A) (A) (A)
                 (A) (A) (A) (A) (A) (A) (A) (A) (A) (A) (A) (A)
                 (A) (A) (A) (A) (A) (A) (A) (A) (A) (A) (A) (A)
                 (A) (A) (A) (A) (A) (A) (A) (A) (A) (A) (A) (A)
                 (A) (A) (A) (A) (A) (A) (A) (A) (A) (A) (A) (A)
                 (A) (A) (A) (A) (A) (A) (A) (A) (A) (A) (A) (A)
                 (A) (A) (A) (A) (A) (A) (A) (A) (A) (A) (A) (A)
                 (A) (A) (A) (A) (A) (A) (A) (A) (A) (A) (A) (A)
                 (A) (A) (A) (A) (A) (A) (A) (A) (A) (A) (A) (A)
                 (A) (A) (A) (A) (A) (A) (A) (A) (A) (A) (A) (A)
                 (A) (A) (A) (A) (A) (A) (A) (A) (A) (A) (A) (A)
                 (A) (A) (A) (A) (A) (A) (A) (A) (A) (A) (A) (A)
                 (A) (A) (A) (A) (A) (A) (A) (A) (A) (A) (A) (A)
                 (A) (A) (A) (A) (A) (A) (A) (A) (A) (A) (A) (A)
                 (A) (A) (A) (A) (A) (A) (A) (A) (A) (A) (A) (A)
                 (A) (A) (A) (A) (A) (A) (A) (A) (A) (A) (A) (A)
                 (A) (A) (A) (A) (A) (A) (A) (A) (A) (A) (A) (A)
                 (A) (A) (A) (A) (A) (A) (A) (A) (A) (A) (A) (A)
                 (A) (A) (A) (A) (A) (A) (A) (A) (A) (A) (A) (A)
                 (A) (A) (A) (A) (A) (A) (A) (A) (A) (A) (A) (A)
                 (A) (A) (A) (A) (A) (A) (A) (A) (A) (A) (A) (A)
                 (A) (A) (A) (A) (A) (A) (A) (A) (A) (A) (A) (A)
                 (A) (A) (A) (A) (A) (A) (A) (A) (A) (A) (A) (A)
                 (A) (A) (A) (A) (A) (A) (A) (A) (A) (A) (A) (A)
                 (A) (A) (A) (A) (A) (A) (A) (A) (A) (A) (A) (A)
                 (A) (A) (A) (A) (A) (A) (A) (A) (A) (A) (A) (A)
                 (A) (A) (A) (A) (A) (A) (A) (A) (A) (A) (A) (A)
                 (A) (A) (A) (A) (A) (A) (A) (A) (A) (A) (A) (A)
                 (A) (A) (A) (A) (A) (A) (A) (A) (A) (A) (A) (A)
                 (A) (A) (A) (A) (A) (A) (A) (A) (A) (A) (A) (A)
                 (A) (A) (A) (A) (A) (A) (A) (A) (A) (A) (A) (A)
                 (A) (A) (A) (A) (A) (A) (A) (A) (A) (A) (A) (A)
                 (A) (A) (A) (A) (A) (A) (A) (A) (A) (A) (A) (A)
                 (A) (A) (A) (A) (A) (A) (A) (A) (A) (A) (A) (A)
                 (A) (A) (A) (A) (A) (A) (A) (A) (A) (A) (A) (A)
                 (A) (A) (A) (A) (A) (A) (A) (A) (A) (A) (A) (A)
                 (A) (A) (A) (A) (A) (A) (A) (A) (A) (A) (A) (A)
                 (A)
 The electronic state is 1-A.
 Alpha  occ. eigenvalues --  -19.22757 -19.17175 -19.16255 -19.12918 -14.40671
 Alpha  occ. eigenvalues --  -14.37017 -10.29865 -10.29196 -10.28964 -10.27847
 Alpha  occ. eigenvalues --  -10.27680 -10.26896 -10.26648 -10.25160 -10.25004
 Alpha  occ. eigenvalues --  -10.21597 -10.20644 -10.20069  -1.12330  -1.05626
 Alpha  occ. eigenvalues --   -1.01762  -0.94992  -0.93033  -0.88881  -0.85788
 Alpha  occ. eigenvalues --   -0.77913  -0.74801  -0.72547  -0.69589  -0.65656
 Alpha  occ. eigenvalues --   -0.64510  -0.63290  -0.61083  -0.59982  -0.58793
 Alpha  occ. eigenvalues --   -0.57309  -0.54124  -0.52930  -0.51587  -0.49136
 Alpha  occ. eigenvalues --   -0.48741  -0.45995  -0.45917  -0.44617  -0.44100
 Alpha  occ. eigenvalues --   -0.42818  -0.42155  -0.41764  -0.40376  -0.39135
 Alpha  occ. eigenvalues --   -0.38458  -0.38040  -0.37210  -0.34646  -0.34050
 Alpha  occ. eigenvalues --   -0.33493  -0.33057  -0.31599  -0.28730  -0.28178
 Alpha  occ. eigenvalues --   -0.27928  -0.26510  -0.26103  -0.25025  -0.22764
 Alpha  occ. eigenvalues --   -0.20087  -0.17971
 Alpha virt. eigenvalues --   -0.13833  -0.11721  -0.08220  -0.06193  -0.05554
 Alpha virt. eigenvalues --   -0.04701  -0.00047   0.00549   0.02470   0.03189
 Alpha virt. eigenvalues --    0.06430   0.06964   0.08243   0.08706   0.09315
 Alpha virt. eigenvalues --    0.09842   0.10079   0.11476   0.11895   0.12395
 Alpha virt. eigenvalues --    0.12879   0.13331   0.14263   0.14519   0.15560
 Alpha virt. eigenvalues --    0.17162   0.17744   0.18688   0.20141   0.21039
 Alpha virt. eigenvalues --    0.23408   0.24800   0.26969   0.27688   0.29889
 Alpha virt. eigenvalues --    0.30435   0.35073   0.38347   0.39046   0.39572
 Alpha virt. eigenvalues --    0.40596   0.42363   0.43509   0.44924   0.45506
 Alpha virt. eigenvalues --    0.46391   0.46946   0.48290   0.48381   0.48671
 Alpha virt. eigenvalues --    0.49359   0.50510   0.51267   0.52448   0.52927
 Alpha virt. eigenvalues --    0.53778   0.54635   0.55396   0.56504   0.56977
 Alpha virt. eigenvalues --    0.57754   0.58169   0.58468   0.58931   0.60436
 Alpha virt. eigenvalues --    0.61559   0.62252   0.63816   0.64311   0.65268
 Alpha virt. eigenvalues --    0.65876   0.66531   0.67087   0.67760   0.68292
 Alpha virt. eigenvalues --    0.68949   0.69428   0.70393   0.70737   0.70944
 Alpha virt. eigenvalues --    0.71802   0.72292   0.72497   0.72769   0.73494
 Alpha virt. eigenvalues --    0.75546   0.75901   0.76527   0.77268   0.77710
 Alpha virt. eigenvalues --    0.78216   0.78644   0.79245   0.80022   0.80481
 Alpha virt. eigenvalues --    0.80673   0.81507   0.82218   0.82907   0.83345
 Alpha virt. eigenvalues --    0.84749   0.84917   0.86353   0.87433   0.88037
 Alpha virt. eigenvalues --    0.90076   0.90190   0.91015   0.91924   0.93258
 Alpha virt. eigenvalues --    0.93804   0.95208   0.96146   0.97655   0.97898
 Alpha virt. eigenvalues --    0.99012   0.99745   1.00610   1.00670   1.01031
 Alpha virt. eigenvalues --    1.01306   1.02970   1.04017   1.04495   1.05126
 Alpha virt. eigenvalues --    1.06519   1.07437   1.08285   1.09957   1.10804
 Alpha virt. eigenvalues --    1.11239   1.12954   1.13350   1.15251   1.15636
 Alpha virt. eigenvalues --    1.17422   1.18606   1.19413   1.19970   1.23131
 Alpha virt. eigenvalues --    1.24377   1.24860   1.26588   1.26939   1.27975
 Alpha virt. eigenvalues --    1.28890   1.30660   1.31629   1.32229   1.33098
 Alpha virt. eigenvalues --    1.33921   1.34863   1.35285   1.36758   1.37931
 Alpha virt. eigenvalues --    1.39561   1.39680   1.39936   1.41303   1.42638
 Alpha virt. eigenvalues --    1.43379   1.43721   1.45031   1.46893   1.48660
 Alpha virt. eigenvalues --    1.49112   1.50534   1.51200   1.52169   1.53807
 Alpha virt. eigenvalues --    1.53937   1.54560   1.55638   1.56587   1.58097
 Alpha virt. eigenvalues --    1.58879   1.59393   1.59936   1.62551   1.62859
 Alpha virt. eigenvalues --    1.64263   1.65598   1.65896   1.66730   1.68788
 Alpha virt. eigenvalues --    1.70664   1.71328   1.72098   1.74171   1.75194
 Alpha virt. eigenvalues --    1.77165   1.77833   1.79282   1.81895   1.83493
 Alpha virt. eigenvalues --    1.85588   1.86577   1.88229   1.88552   1.89787
 Alpha virt. eigenvalues --    1.91038   1.92082   1.95792   1.96391   1.97669
 Alpha virt. eigenvalues --    1.99093   1.99568   2.01520   2.02476   2.06529
 Alpha virt. eigenvalues --    2.08001   2.10824   2.11867   2.12719   2.13772
 Alpha virt. eigenvalues --    2.14953   2.15440   2.18218   2.20253   2.21885
 Alpha virt. eigenvalues --    2.23996   2.25308   2.27393   2.27500   2.29043
 Alpha virt. eigenvalues --    2.30128   2.30998   2.32143   2.33982   2.34916
 Alpha virt. eigenvalues --    2.37297   2.39897   2.40569   2.42387   2.44929
 Alpha virt. eigenvalues --    2.47393   2.48168   2.50947   2.51658   2.52435
 Alpha virt. eigenvalues --    2.53394   2.57190   2.57736   2.60213   2.61644
 Alpha virt. eigenvalues --    2.62557   2.62900   2.64927   2.65294   2.70177
 Alpha virt. eigenvalues --    2.70446   2.71585   2.73563   2.75330   2.76585
 Alpha virt. eigenvalues --    2.77647   2.78059   2.78936   2.79286   2.80696
 Alpha virt. eigenvalues --    2.81977   2.82761   2.84241   2.85095   2.86220
 Alpha virt. eigenvalues --    2.88168   2.88392   2.90276   2.91401   2.92373
 Alpha virt. eigenvalues --    2.94189   2.95865   2.96437   2.97665   2.99429
 Alpha virt. eigenvalues --    3.00746   3.01445   3.02017   3.03667   3.05477
 Alpha virt. eigenvalues --    3.07678   3.08547   3.09947   3.10694   3.11573
 Alpha virt. eigenvalues --    3.12698   3.14495   3.14630   3.16789   3.17970
 Alpha virt. eigenvalues --    3.19127   3.20486   3.21751   3.22474   3.24790
 Alpha virt. eigenvalues --    3.25979   3.28027   3.28298   3.29087   3.29945
 Alpha virt. eigenvalues --    3.33210   3.33598   3.34459   3.35302   3.35899
 Alpha virt. eigenvalues --    3.36747   3.39320   3.39813   3.41140   3.42544
 Alpha virt. eigenvalues --    3.43866   3.44584   3.45588   3.47043   3.47542
 Alpha virt. eigenvalues --    3.50591   3.50947   3.51579   3.51993   3.54677
 Alpha virt. eigenvalues --    3.54871   3.60264   3.60988   3.63963   3.64191
 Alpha virt. eigenvalues --    3.66351   3.67351   3.68577   3.70467   3.71023
 Alpha virt. eigenvalues --    3.72077   3.73347   3.75051   3.76867   3.78414
 Alpha virt. eigenvalues --    3.79492   3.81707   3.82628   3.84372   3.85983
 Alpha virt. eigenvalues --    3.86262   3.87971   3.88682   3.90252   3.92104
 Alpha virt. eigenvalues --    3.93816   3.95369   3.96650   3.98853   4.00428
 Alpha virt. eigenvalues --    4.02161   4.03844   4.05049   4.07807   4.09835
 Alpha virt. eigenvalues --    4.10768   4.11966   4.14336   4.14546   4.18547
 Alpha virt. eigenvalues --    4.18934   4.21557   4.22927   4.23265   4.23819
 Alpha virt. eigenvalues --    4.25402   4.26294   4.27307   4.27820   4.29291
 Alpha virt. eigenvalues --    4.30529   4.31491   4.32687   4.32815   4.34165
 Alpha virt. eigenvalues --    4.35006   4.36185   4.37093   4.38743   4.39611
 Alpha virt. eigenvalues --    4.40623   4.40929   4.42913   4.43962   4.44814
 Alpha virt. eigenvalues --    4.45291   4.46617   4.46644   4.48569   4.49446
 Alpha virt. eigenvalues --    4.49953   4.50674   4.52440   4.52811   4.53536
 Alpha virt. eigenvalues --    4.55330   4.56130   4.56637   4.57283   4.58198
 Alpha virt. eigenvalues --    4.58930   4.59835   4.60723   4.62407   4.62779
 Alpha virt. eigenvalues --    4.64363   4.64696   4.66541   4.67763   4.67936
 Alpha virt. eigenvalues --    4.68820   4.69475   4.71386   4.72200   4.73353
 Alpha virt. eigenvalues --    4.74378   4.75415   4.76210   4.77203   4.79372
 Alpha virt. eigenvalues --    4.80395   4.81434   4.82409   4.83514   4.85547
 Alpha virt. eigenvalues --    4.86147   4.87186   4.88316   4.90851   4.91536
 Alpha virt. eigenvalues --    4.94098   4.94628   4.95242   4.97522   4.98863
 Alpha virt. eigenvalues --    5.00102   5.00683   5.02032   5.03369   5.04964
 Alpha virt. eigenvalues --    5.05597   5.08076   5.08980   5.09569   5.11452
 Alpha virt. eigenvalues --    5.12439   5.15485   5.15828   5.17478   5.19276
 Alpha virt. eigenvalues --    5.20781   5.23499   5.25553   5.25823   5.26541
 Alpha virt. eigenvalues --    5.28128   5.29690   5.32146   5.33532   5.37393
 Alpha virt. eigenvalues --    5.38150   5.42363   5.42764   5.44963   5.46118
 Alpha virt. eigenvalues --    5.46363   5.50953   5.54303   5.55576   5.58030
 Alpha virt. eigenvalues --    5.59932   5.63334   5.65435   5.68864   5.70370
 Alpha virt. eigenvalues --    5.72420   5.73635   5.78269   5.81715   5.93053
 Alpha virt. eigenvalues --    5.94279   5.95843   6.01513   6.02951   6.09512
 Alpha virt. eigenvalues --    6.12683   6.14581   6.20306   6.24468   6.35271
 Alpha virt. eigenvalues --    6.40803   6.70748   6.73960   6.88335   7.04689
 Alpha virt. eigenvalues --    7.19281   7.43368   9.48747  10.56176  10.67434
 Alpha virt. eigenvalues --   10.79829  11.03645  11.20620  11.26792  11.51292
 Alpha virt. eigenvalues --   11.56780  11.71490  12.00498  12.22987  12.58110
 Alpha virt. eigenvalues --   12.63653  12.84062  12.92028  13.06809  13.30317
 Alpha virt. eigenvalues --   14.07106  17.16889
          Condensed to atoms (all electrons):
               1          2          3          4          5          6
     1  C    5.193303   0.157238  -0.001058  -0.002195   0.005838   0.000147
     2  O    0.157238   8.184223   0.060717   0.009879  -0.049396   0.008305
     3  C   -0.001058   0.060717   5.391692   0.487584   0.009970  -0.017839
     4  C   -0.002195   0.009879   0.487584   5.003571   0.344509  -0.052055
     5  C    0.005838  -0.049396   0.009970   0.344509   5.173156   0.430290
     6  C    0.000147   0.008305  -0.017839  -0.052055   0.430290   5.134280
     7  C    0.000021  -0.000449  -0.028615  -0.012486  -0.057011   0.457918
     8  C   -0.000001  -0.000007  -0.001340  -0.000649  -0.000378  -0.012878
     9  O    0.000000  -0.000000  -0.000759   0.000868   0.000436  -0.001268
    10  N    0.000000   0.000006  -0.004191  -0.001113   0.003012  -0.051365
    11  C   -0.000000   0.000000   0.000259  -0.000198  -0.000093   0.002178
    12  C    0.000000   0.000000   0.000022  -0.000483   0.000017  -0.000084
    13  O   -0.000000  -0.000000  -0.000000   0.000003  -0.000000  -0.000001
    14  C    0.000000  -0.000013   0.002934   0.000531   0.000259   0.001966
    15  C   -0.000000   0.000000  -0.000181  -0.000030  -0.000244  -0.001386
    16  O   -0.000000  -0.000000  -0.000009   0.000000   0.000003  -0.000023
    17  C    0.000000  -0.000001   0.001984   0.000085   0.000120   0.000198
    18  N   -0.000008   0.000047   0.072503  -0.007043  -0.002153  -0.012503
    19  H    0.306555  -0.003796  -0.000038  -0.001240   0.000259  -0.000001
    20  H    0.334824  -0.005808   0.000041   0.000403  -0.000049   0.000001
    21  H    0.324391  -0.005165   0.000026   0.000109  -0.000112  -0.000042
    22  H    0.016876   0.002736  -0.028258   0.322096  -0.033829  -0.008889
    23  H   -0.000676   0.006735   0.005024  -0.041418   0.375300  -0.040359
    24  H    0.000027   0.000655  -0.005315  -0.006381  -0.034557   0.317160
    25  H    0.000011  -0.000145  -0.002904  -0.001836  -0.014154  -0.053701
    26  H   -0.000004   0.000013   0.010999  -0.000102  -0.001554   0.003644
    27  H    0.000000  -0.000000  -0.000004  -0.000018  -0.000000   0.000103
    28  H    0.000000   0.000000  -0.000007   0.000012   0.000003  -0.000116
    29  H   -0.000002   0.000000  -0.000133   0.002465   0.000020  -0.000850
    30  H   -0.000000   0.000000   0.000080   0.000021   0.000126   0.000962
    31  H   -0.000000  -0.000000  -0.000001   0.000000   0.000002   0.000025
    32  H    0.000000  -0.000000   0.000001   0.000000   0.000003   0.000068
    33  H    0.000000  -0.000000  -0.000129   0.000000  -0.000001  -0.000012
    34  H   -0.000000   0.000000  -0.000005  -0.000002  -0.000003  -0.000002
               7          8          9         10         11         12
     1  C    0.000021  -0.000001   0.000000   0.000000  -0.000000   0.000000
     2  O   -0.000449  -0.000007  -0.000000   0.000006   0.000000   0.000000
     3  C   -0.028615  -0.001340  -0.000759  -0.004191   0.000259   0.000022
     4  C   -0.012486  -0.000649   0.000868  -0.001113  -0.000198  -0.000483
     5  C   -0.057011  -0.000378   0.000436   0.003012  -0.000093   0.000017
     6  C    0.457918  -0.012878  -0.001268  -0.051365   0.002178  -0.000084
     7  C    5.145134   0.509573  -0.028131   0.005164   0.000205   0.000038
     8  C    0.509573   4.723502   0.315781  -0.061854   0.002094  -0.000138
     9  O   -0.028131   0.315781   7.932114   0.181930  -0.029242   0.000470
    10  N    0.005164  -0.061854   0.181930   6.574365   0.235424  -0.009606
    11  C    0.000205   0.002094  -0.029242   0.235424   5.279252   0.241789
    12  C    0.000038  -0.000138   0.000470  -0.009606   0.241789   4.530315
    13  O   -0.000000  -0.000000  -0.000016   0.001408  -0.055368   0.733808
    14  C   -0.107338   0.348253  -0.052650   0.001787  -0.000298  -0.000003
    15  C    0.001646   0.002280  -0.021478   0.002600  -0.000012   0.000000
    16  O    0.000760  -0.005850   0.000472  -0.000083  -0.000001  -0.000000
    17  C    0.001398  -0.022607   0.005139   0.000040   0.000025   0.000002
    18  N   -0.027540  -0.042795  -0.014067  -0.001366   0.000384   0.000004
    19  H    0.000000   0.000000  -0.000000  -0.000000   0.000000  -0.000000
    20  H   -0.000000   0.000000  -0.000000  -0.000000   0.000000  -0.000000
    21  H   -0.000000   0.000000  -0.000000  -0.000000   0.000000  -0.000000
    22  H   -0.000154  -0.000092   0.000021  -0.000139  -0.000071  -0.000173
    23  H   -0.011962   0.000651   0.000010  -0.000088   0.000001  -0.000000
    24  H   -0.059570  -0.018888  -0.003528   0.061619  -0.005513   0.000508
    25  H    0.374348  -0.036831   0.000946  -0.000159   0.000004  -0.000000
    26  H    0.000681   0.007463  -0.031232   0.293632  -0.033673   0.003193
    27  H    0.000020   0.000978   0.003779  -0.021475   0.350166  -0.007674
    28  H    0.000004  -0.000009   0.003037  -0.029371   0.342524  -0.013614
    29  H   -0.000025   0.000047  -0.000125   0.019472  -0.130876   0.368339
    30  H   -0.005808  -0.011026   0.000695  -0.000048   0.000001  -0.000000
    31  H    0.001819   0.004191   0.000437   0.000079   0.000012   0.000003
    32  H   -0.000122  -0.016849   0.002317  -0.000110   0.000002  -0.000000
    33  H    0.000238  -0.000263   0.002625   0.000187   0.000008   0.000001
    34  H   -0.000019   0.000582   0.000345   0.000004   0.000001   0.000000
              13         14         15         16         17         18
     1  C   -0.000000   0.000000  -0.000000  -0.000000   0.000000  -0.000008
     2  O   -0.000000  -0.000013   0.000000  -0.000000  -0.000001   0.000047
     3  C   -0.000000   0.002934  -0.000181  -0.000009   0.001984   0.072503
     4  C    0.000003   0.000531  -0.000030   0.000000   0.000085  -0.007043
     5  C   -0.000000   0.000259  -0.000244   0.000003   0.000120  -0.002153
     6  C   -0.000001   0.001966  -0.001386  -0.000023   0.000198  -0.012503
     7  C   -0.000000  -0.107338   0.001646   0.000760   0.001398  -0.027540
     8  C   -0.000000   0.348253   0.002280  -0.005850  -0.022607  -0.042795
     9  O   -0.000016  -0.052650  -0.021478   0.000472   0.005139  -0.014067
    10  N    0.001408   0.001787   0.002600  -0.000083   0.000040  -0.001366
    11  C   -0.055368  -0.000298  -0.000012  -0.000001   0.000025   0.000384
    12  C    0.733808  -0.000003   0.000000  -0.000000   0.000002   0.000004
    13  O    7.622735  -0.000000  -0.000000   0.000000  -0.000000  -0.000000
    14  C   -0.000000   5.165142   0.154665  -0.074457   0.100767   0.098049
    15  C   -0.000000   0.154665   5.151172   0.298566  -0.058195   0.006648
    16  O    0.000000  -0.074457   0.298566   8.151436   0.104246  -0.002585
    17  C   -0.000000   0.100767  -0.058195   0.104246   5.218956   0.134471
    18  N   -0.000000   0.098049   0.006648  -0.002585   0.134471   7.148445
    19  H    0.000000  -0.000000   0.000000  -0.000000  -0.000000   0.000000
    20  H    0.000000  -0.000000   0.000000  -0.000000  -0.000000   0.000000
    21  H    0.000000  -0.000000  -0.000000   0.000000  -0.000000   0.000000
    22  H   -0.000000   0.000010  -0.000001   0.000000   0.000001  -0.000008
    23  H    0.000000   0.000060  -0.000009   0.000000   0.000018  -0.000182
    24  H    0.000005   0.001245  -0.000060   0.000001   0.000198  -0.000459
    25  H    0.000000  -0.045852   0.007894  -0.000388   0.001109   0.025703
    26  H   -0.000176   0.000513  -0.000412   0.000019   0.001416   0.016061
    27  H   -0.001944   0.000018  -0.000091   0.000001  -0.000004  -0.000009
    28  H    0.000144  -0.000017   0.000018  -0.000002   0.000011  -0.000003
    29  H   -0.047778  -0.000002  -0.000000   0.000000   0.000000  -0.000002
    30  H    0.000000   0.390919  -0.044371   0.014480  -0.016752  -0.021896
    31  H   -0.000000  -0.009820   0.339152  -0.033790  -0.001786  -0.000412
    32  H    0.000000  -0.005035   0.326580  -0.018546   0.005836   0.000010
    33  H    0.000000  -0.006586   0.003777  -0.015302   0.327058  -0.007399
    34  H    0.000000  -0.000819   0.004955  -0.030821   0.340486  -0.010247
              19         20         21         22         23         24
     1  C    0.306555   0.334824   0.324391   0.016876  -0.000676   0.000027
     2  O   -0.003796  -0.005808  -0.005165   0.002736   0.006735   0.000655
     3  C   -0.000038   0.000041   0.000026  -0.028258   0.005024  -0.005315
     4  C   -0.001240   0.000403   0.000109   0.322096  -0.041418  -0.006381
     5  C    0.000259  -0.000049  -0.000112  -0.033829   0.375300  -0.034557
     6  C   -0.000001   0.000001  -0.000042  -0.008889  -0.040359   0.317160
     7  C    0.000000  -0.000000  -0.000000  -0.000154  -0.011962  -0.059570
     8  C    0.000000   0.000000   0.000000  -0.000092   0.000651  -0.018888
     9  O   -0.000000  -0.000000  -0.000000   0.000021   0.000010  -0.003528
    10  N   -0.000000  -0.000000  -0.000000  -0.000139  -0.000088   0.061619
    11  C    0.000000   0.000000   0.000000  -0.000071   0.000001  -0.005513
    12  C   -0.000000  -0.000000  -0.000000  -0.000173  -0.000000   0.000508
    13  O    0.000000   0.000000   0.000000  -0.000000   0.000000   0.000005
    14  C   -0.000000  -0.000000  -0.000000   0.000010   0.000060   0.001245
    15  C    0.000000   0.000000  -0.000000  -0.000001  -0.000009  -0.000060
    16  O   -0.000000  -0.000000   0.000000   0.000000   0.000000   0.000001
    17  C   -0.000000  -0.000000  -0.000000   0.000001   0.000018   0.000198
    18  N    0.000000   0.000000   0.000000  -0.000008  -0.000182  -0.000459
    19  H    0.688210  -0.047365  -0.047295   0.001461   0.000020  -0.000002
    20  H   -0.047365   0.614600  -0.043817  -0.000679  -0.000001   0.000000
    21  H   -0.047295  -0.043817   0.650917  -0.000595   0.000042  -0.000001
    22  H    0.001461  -0.000679  -0.000595   0.488030   0.004284   0.001834
    23  H    0.000020  -0.000001   0.000042   0.004284   0.531733   0.005817
    24  H   -0.000002   0.000000  -0.000001   0.001834   0.005817   0.581771
    25  H   -0.000000  -0.000000  -0.000001  -0.000065   0.007124   0.005378
    26  H    0.000000   0.000000   0.000000  -0.000186   0.000011  -0.010498
    27  H   -0.000000  -0.000000  -0.000000   0.000000  -0.000000  -0.000367
    28  H   -0.000000   0.000000  -0.000000   0.000000  -0.000000   0.000505
    29  H    0.000000  -0.000000   0.000000   0.001173   0.000001   0.003050
    30  H    0.000000   0.000000   0.000000   0.000000  -0.000015  -0.000052
    31  H    0.000000  -0.000000   0.000000   0.000000  -0.000000  -0.000011
    32  H   -0.000000  -0.000000  -0.000000   0.000000   0.000000   0.000011
    33  H    0.000000  -0.000000  -0.000000  -0.000000  -0.000000  -0.000002
    34  H    0.000000   0.000000   0.000000  -0.000000  -0.000000  -0.000000
              25         26         27         28         29         30
     1  C    0.000011  -0.000004   0.000000   0.000000  -0.000002  -0.000000
     2  O   -0.000145   0.000013  -0.000000   0.000000   0.000000   0.000000
     3  C   -0.002904   0.010999  -0.000004  -0.000007  -0.000133   0.000080
     4  C   -0.001836  -0.000102  -0.000018   0.000012   0.002465   0.000021
     5  C   -0.014154  -0.001554  -0.000000   0.000003   0.000020   0.000126
     6  C   -0.053701   0.003644   0.000103  -0.000116  -0.000850   0.000962
     7  C    0.374348   0.000681   0.000020   0.000004  -0.000025  -0.005808
     8  C   -0.036831   0.007463   0.000978  -0.000009   0.000047  -0.011026
     9  O    0.000946  -0.031232   0.003779   0.003037  -0.000125   0.000695
    10  N   -0.000159   0.293632  -0.021475  -0.029371   0.019472  -0.000048
    11  C    0.000004  -0.033673   0.350166   0.342524  -0.130876   0.000001
    12  C   -0.000000   0.003193  -0.007674  -0.013614   0.368339  -0.000000
    13  O    0.000000  -0.000176  -0.001944   0.000144  -0.047778   0.000000
    14  C   -0.045852   0.000513   0.000018  -0.000017  -0.000002   0.390919
    15  C    0.007894  -0.000412  -0.000091   0.000018  -0.000000  -0.044371
    16  O   -0.000388   0.000019   0.000001  -0.000002   0.000000   0.014480
    17  C    0.001109   0.001416  -0.000004   0.000011   0.000000  -0.016752
    18  N    0.025703   0.016061  -0.000009  -0.000003  -0.000002  -0.021896
    19  H   -0.000000   0.000000  -0.000000  -0.000000   0.000000   0.000000
    20  H   -0.000000   0.000000  -0.000000   0.000000  -0.000000   0.000000
    21  H   -0.000001   0.000000  -0.000000  -0.000000   0.000000   0.000000
    22  H   -0.000065  -0.000186   0.000000   0.000000   0.001173   0.000000
    23  H    0.007124   0.000011  -0.000000  -0.000000   0.000001  -0.000015
    24  H    0.005378  -0.010498  -0.000367   0.000505   0.003050  -0.000052
    25  H    0.600187  -0.000195  -0.000000  -0.000001  -0.000001  -0.015787
    26  H   -0.000195   0.485667   0.005333  -0.008805   0.001287   0.000029
    27  H   -0.000000   0.005333   0.530859  -0.029582   0.003344   0.000000
    28  H   -0.000001  -0.008805  -0.029582   0.588913   0.005063  -0.000000
    29  H   -0.000001   0.001287   0.003344   0.005063   0.671566   0.000000
    30  H   -0.015787   0.000029   0.000000  -0.000000   0.000000   0.500638
    31  H   -0.000167   0.000063   0.000122   0.000028   0.000000   0.003274
    32  H   -0.000448   0.000003   0.000002   0.000000   0.000000  -0.004052
    33  H    0.000038  -0.000544  -0.000002   0.000106   0.000000   0.000728
    34  H    0.000002  -0.000011  -0.000000   0.000000  -0.000000  -0.000622
              31         32         33         34
     1  C   -0.000000   0.000000   0.000000  -0.000000
     2  O   -0.000000  -0.000000  -0.000000   0.000000
     3  C   -0.000001   0.000001  -0.000129  -0.000005
     4  C    0.000000   0.000000   0.000000  -0.000002
     5  C    0.000002   0.000003  -0.000001  -0.000003
     6  C    0.000025   0.000068  -0.000012  -0.000002
     7  C    0.001819  -0.000122   0.000238  -0.000019
     8  C    0.004191  -0.016849  -0.000263   0.000582
     9  O    0.000437   0.002317   0.002625   0.000345
    10  N    0.000079  -0.000110   0.000187   0.000004
    11  C    0.000012   0.000002   0.000008   0.000001
    12  C    0.000003  -0.000000   0.000001   0.000000
    13  O   -0.000000   0.000000   0.000000   0.000000
    14  C   -0.009820  -0.005035  -0.006586  -0.000819
    15  C    0.339152   0.326580   0.003777   0.004955
    16  O   -0.033790  -0.018546  -0.015302  -0.030821
    17  C   -0.001786   0.005836   0.327058   0.340486
    18  N   -0.000412   0.000010  -0.007399  -0.010247
    19  H    0.000000  -0.000000   0.000000   0.000000
    20  H   -0.000000  -0.000000  -0.000000   0.000000
    21  H    0.000000  -0.000000  -0.000000   0.000000
    22  H    0.000000   0.000000  -0.000000  -0.000000
    23  H   -0.000000   0.000000  -0.000000  -0.000000
    24  H   -0.000011   0.000011  -0.000002  -0.000000
    25  H   -0.000167  -0.000448   0.000038   0.000002
    26  H    0.000063   0.000003  -0.000544  -0.000011
    27  H    0.000122   0.000002  -0.000002  -0.000000
    28  H    0.000028   0.000000   0.000106   0.000000
    29  H    0.000000   0.000000   0.000000  -0.000000
    30  H    0.003274  -0.004052   0.000728  -0.000622
    31  H    0.629930  -0.061251   0.000953   0.000061
    32  H   -0.061251   0.663992  -0.000358  -0.000607
    33  H    0.000953  -0.000358   0.538558  -0.032990
    34  H    0.000061  -0.000607  -0.032990   0.528250
 Mulliken charges:
               1
     1  C   -0.335287
     2  O   -0.365776
     3  C    0.046953
     4  C   -0.044889
     5  C   -0.149789
     6  C   -0.103871
     7  C   -0.159734
     8  C    0.317063
     9  O   -0.268925
    10  N   -0.199759
    11  C   -0.198986
    12  C    0.153267
    13  O   -0.252819
    14  C    0.035772
    15  C   -0.173482
    16  O   -0.388128
    17  C   -0.144218
    18  N   -0.351648
    19  H    0.103230
    20  H    0.147851
    21  H    0.121544
    22  H    0.234619
    23  H    0.157879
    24  H    0.165420
    25  H    0.149889
    26  H    0.257366
    27  H    0.166445
    28  H    0.141160
    29  H    0.103966
    30  H    0.208476
    31  H    0.127086
    32  H    0.108554
    33  H    0.189312
    34  H    0.201463
 Sum of Mulliken charges =  -0.00000
 Mulliken charges with hydrogens summed into heavy atoms:
               1
     1  C    0.037337
     2  O   -0.365776
     3  C    0.046953
     4  C    0.189730
     5  C    0.008089
     6  C    0.061548
     7  C   -0.009845
     8  C    0.317063
     9  O   -0.268925
    10  N    0.057607
    11  C    0.108619
    12  C    0.257232
    13  O   -0.252819
    14  C    0.244248
    15  C    0.062157
    16  O   -0.388128
    17  C    0.246556
    18  N   -0.351648
 Electronic spatial extent (au):  <R**2>=           5139.0852
 Charge=             -0.0000 electrons
 Dipole moment (field-independent basis, Debye):
    X=              1.0272    Y=              0.7143    Z=             -1.7997  Tot=              2.1918
 Quadrupole moment (field-independent basis, Debye-Ang):
   XX=           -103.0534   YY=           -122.6042   ZZ=           -109.1585
   XY=             -0.2918   XZ=              3.5155   YZ=              5.6781
 Traceless Quadrupole moment (field-independent basis, Debye-Ang):
   XX=              8.5520   YY=            -10.9988   ZZ=              2.4469
   XY=             -0.2918   XZ=              3.5155   YZ=              5.6781
 Octapole moment (field-independent basis, Debye-Ang**2):
  XXX=            -68.5074  YYY=            -97.1001  ZZZ=             10.1571  XYY=             34.4478
  XXY=             24.6319  XXZ=            -18.0528  XZZ=             25.8507  YZZ=             18.4594
  YYZ=            -13.0406  XYZ=             -6.5642
 Hexadecapole moment (field-independent basis, Debye-Ang**3):
 XXXX=          -3252.2692 YYYY=          -3118.7287 ZZZZ=           -593.3984 XXXY=            103.0121
 XXXZ=             44.8593 YYYX=             43.7892 YYYZ=            -11.5937 ZZZX=             10.1968
 ZZZY=              0.2617 XXYY=          -1044.7459 XXZZ=           -700.1068 YYZZ=           -496.3126
 XXYZ=             27.3779 YYXZ=             14.7486 ZZXY=            -23.8009
 N-N= 1.364298631094D+03 E-N=-4.773595678907D+03  KE= 8.701257383194D+02
 PrsmSu:  requested number of processors reduced to:  12 ShMem   1 Linda.
 Calling FoFJK, ICntrl=      2127 FMM=F ISym2X=0 I1Cent= 0 IOpClX= 0 NMat=1 NMatS=1 NMatT=0.
 ***** Axes restored to original set *****
 -------------------------------------------------------------------
 Center     Atomic                   Forces (Hartrees/Bohr)
 Number     Number              X              Y              Z
 -------------------------------------------------------------------
      1        6          -0.120742615    0.021650104    0.049982957
      2        8          -0.045106112   -0.006425861    0.044044717
      3        6           0.000311525   -0.038537666   -0.034195551
      4        6          -0.114071372    0.031499542    0.070016600
      5        6          -0.067280120   -0.040688533   -0.032742902
      6        6           0.042886428    0.035364753   -0.008185229
      7        6          -0.048912721    0.064436902   -0.008829586
      8        6           0.001618369   -0.016672950   -0.000924531
      9        8          -0.003665141    0.015246613    0.002268033
     10        7          -0.022435530    0.010819447   -0.014808707
     11        6          -0.007180370   -0.007961549   -0.001220481
     12        6           0.021850728    0.002016297    0.049894256
     13        8          -0.017136068   -0.002360923   -0.035091266
     14        6           0.051264357   -0.055729176   -0.026853600
     15        6           0.075596821    0.029485594   -0.021513174
     16        8           0.023065575   -0.017261158   -0.028595819
     17        6           0.047461536    0.020626256   -0.046015843
     18        7           0.052001285   -0.047585800   -0.035354655
     19        1           0.057350656   -0.012994551   -0.054094912
     20        1           0.054351633    0.000166912   -0.023857981
     21        1           0.064218606   -0.039578827   -0.014132532
     22        1           0.045281664   -0.012171609   -0.000206334
     23        1           0.009895979    0.021737043    0.024828521
     24        1           0.007344516    0.034542980    0.020865511
     25        1           0.014339152    0.040039923    0.031029527
     26        1           0.007714957   -0.003235117   -0.002515457
     27        1           0.003228852   -0.002037149   -0.000834774
     28        1           0.014448241    0.001876875    0.007632125
     29        1           0.001005604    0.000552512   -0.003680444
     30        1          -0.007229635    0.019545923    0.032252145
     31        1          -0.030745497   -0.001469860    0.003917220
     32        1          -0.016532294   -0.024068624    0.000630383
     33        1          -0.058181704   -0.009250379    0.009451422
     34        1          -0.036017304   -0.011577945    0.046840360
 -------------------------------------------------------------------
 Cartesian Forces:  Max     0.120742615 RMS     0.035258244

 GradGradGradGradGradGradGradGradGradGradGradGradGradGradGradGradGradGrad
 Berny optimization.
 FormGI is forming the generalized inverse of G from B-inverse, IUseBI=4.
 Internal  Forces:  Max     0.137140005 RMS     0.028797543
 Search for a local minimum.
 Step number   1 out of a maximum of  194
 All quantities printed in internal units (Hartrees-Bohrs-Radians)
 Mixed Optimization -- RFO/linear search
 Second derivative matrix not updated -- first step.
 ITU=  0
     Eigenvalues ---    0.00230   0.00242   0.00586   0.00586   0.00940
     Eigenvalues ---    0.01057   0.01197   0.01299   0.01440   0.02213
     Eigenvalues ---    0.02467   0.02488   0.02945   0.02992   0.03060
     Eigenvalues ---    0.03224   0.03265   0.03728   0.03832   0.03849
     Eigenvalues ---    0.04138   0.04452   0.04899   0.04939   0.05007
     Eigenvalues ---    0.05623   0.05718   0.06124   0.07009   0.07482
     Eigenvalues ---    0.07797   0.07992   0.08400   0.08562   0.08950
     Eigenvalues ---    0.08979   0.09202   0.09363   0.10073   0.10156
     Eigenvalues ---    0.10516   0.10771   0.11096   0.12574   0.12629
     Eigenvalues ---    0.13134   0.13170   0.13611   0.13831   0.13885
     Eigenvalues ---    0.14259   0.14799   0.16000   0.16000   0.16000
     Eigenvalues ---    0.16000   0.17493   0.18626   0.19385   0.19388
     Eigenvalues ---    0.22000   0.22023   0.22099   0.22664   0.22706
     Eigenvalues ---    0.23282   0.23291   0.23895   0.24242   0.24590
     Eigenvalues ---    0.24659   0.24993   0.25000   0.26007   0.28959
     Eigenvalues ---    0.29391   0.29655   0.30055   0.30990   0.31263
     Eigenvalues ---    0.32618   0.33797   0.34041   0.34610   0.34922
     Eigenvalues ---    0.41038   0.42606   0.42769   0.44098   0.44309
     Eigenvalues ---    0.50703   0.51012   0.57954   0.58280   0.63407
     Eigenvalues ---    0.91861
 RFO step:  Lambda=-2.80757357D-01 EMin= 2.30000000D-03
 Linear search not attempted -- first point.
 Maximum step size (   0.300) exceeded in Quadratic search.
    -- Step size scaled by   0.444
 Iteration  1 RMS(Cart)=  0.10853221 RMS(Int)=  0.00186114
 Iteration  2 RMS(Cart)=  0.00294381 RMS(Int)=  0.00031433
 Iteration  3 RMS(Cart)=  0.00000749 RMS(Int)=  0.00031432
 Iteration  4 RMS(Cart)=  0.00000000 RMS(Int)=  0.00031432
 Variable       Old X    -DE/DX   Delta X   Delta X   Delta X     New X
                                 (Linear)    (Quad)   (Total)
    R1        3.74605  -0.07591   0.00000  -0.09040  -0.09040   3.65565
    R2        2.50014  -0.06717   0.00000  -0.06544  -0.06544   2.43470
    R3        2.26961  -0.04513   0.00000  -0.03804  -0.03804   2.23158
    R4        2.42784  -0.06589   0.00000  -0.06163  -0.06163   2.36622
    R5        3.56095  -0.01424   0.00000  -0.01496  -0.01479   3.54616
    R6        3.78458   0.01822   0.00000   0.02048   0.02034   3.80492
    R7        2.51040   0.05556   0.00000   0.02830   0.02828   2.53867
    R8        2.80974   0.04542   0.00000   0.03259   0.03259   2.84232
    R9        2.15894  -0.02748   0.00000  -0.02123  -0.02123   2.13771
   R10        2.48342   0.13714   0.00000   0.06655   0.06655   2.54997
   R11        2.14554  -0.03165   0.00000  -0.02417  -0.02417   2.12138
   R12        2.58857   0.06842   0.00000   0.03840   0.03840   2.62698
   R13        2.07260   0.00861   0.00000   0.00615   0.00615   2.07875
   R14        2.52328   0.11008   0.00000   0.05659   0.05659   2.57987
   R15        2.23414  -0.04948   0.00000  -0.04061  -0.04061   2.19353
   R16        2.68158  -0.00590   0.00000  -0.00371  -0.00371   2.67787
   R17        2.59162   0.10663   0.00000   0.06009   0.06009   2.65171
   R18        2.67955  -0.00113   0.00000  -0.00071  -0.00071   2.67885
   R19        2.70167   0.02257   0.00000   0.01450   0.01450   2.71616
   R20        1.92787  -0.00043   0.00000  -0.00026  -0.00026   1.92760
   R21        2.86032   0.00657   0.00000   0.00493   0.00493   2.86525
   R22        2.06312   0.00015   0.00000   0.00010   0.00010   2.06323
   R23        2.05801   0.00662   0.00000   0.00466   0.00466   2.06267
   R24        2.32087  -0.03912   0.00000  -0.01448  -0.01448   2.30639
   R25        2.09727  -0.00077   0.00000  -0.00056  -0.00056   2.09671
   R26        3.14030   0.02790   0.00000   0.02544   0.02553   3.16584
   R27        3.74758   0.00938   0.00000   0.00925   0.00957   3.75715
   R28        3.46018   0.00763   0.00000   0.00774   0.00783   3.46800
   R29        2.12213  -0.03057   0.00000  -0.02287  -0.02287   2.09926
   R30        2.58681   0.02992   0.00000   0.01862   0.01846   2.60527
   R31        2.15356  -0.02092   0.00000  -0.01609  -0.01609   2.13747
   R32        2.16789  -0.02228   0.00000  -0.01734  -0.01734   2.15054
   R33        3.45759  -0.00403   0.00000  -0.00601  -0.00591   3.45168
   R34        3.70070   0.00436   0.00000   0.01097   0.01078   3.71148
   R35        3.44994   0.01014   0.00000   0.01880   0.01861   3.46856
   R36        3.64652  -0.04464   0.00000  -0.05303  -0.05326   3.59326
   R37        2.23744  -0.03812   0.00000  -0.03536  -0.03525   2.20219
   R38        2.21270  -0.03632   0.00000  -0.03205  -0.03195   2.18075
    A1        2.42766  -0.03447   0.00000  -0.03510  -0.03530   2.39237
    A2        1.95264  -0.03005   0.00000  -0.02863  -0.02873   1.92391
    A3        2.26270  -0.02519   0.00000  -0.02584  -0.02606   2.23663
    A4        1.44738   0.04297   0.00000   0.04451   0.04447   1.49184
    A5        1.51790   0.05128   0.00000   0.05066   0.05047   1.56837
    A6        1.53608   0.03605   0.00000   0.03734   0.03724   1.57333
    A7        2.55706  -0.00008   0.00000  -0.00312  -0.00314   2.55392
    A8        1.86383  -0.01555   0.00000  -0.01037  -0.01033   1.85351
    A9        1.46272   0.11023   0.00000   0.09587   0.09545   1.55817
   A10        1.40818   0.01361   0.00000   0.02034   0.01860   1.42678
   A11        1.71166   0.01788   0.00000   0.01114   0.01069   1.72235
   A12        2.42305  -0.00227   0.00000   0.00284   0.00144   2.42449
   A13        1.75674   0.05158   0.00000   0.05428   0.05309   1.80983
   A14        1.59258   0.05435   0.00000   0.04902   0.04891   1.64149
   A15        2.03705  -0.01080   0.00000  -0.00541  -0.00541   2.03164
   A16        2.16187  -0.01708   0.00000  -0.01300  -0.01331   2.14856
   A17        2.00690   0.02415   0.00000   0.02267   0.02242   2.02932
[...]
 0000056,0.00001783,0.00001849,0.00002692,0.00001445,0.00000931,-0.0000
 6006,0.00008608,-0.00000702,0.00002489,0.00002422,0.00002943,0.0001226
 4,-0.00049072,0.00028791,0.00087709,-0.00082732,0.00104241,0.00206952,
 -0.00136614,0.00218666,-0.03412770,0.27844767,0.00000185,0.00000641,0.
 00000921,0.00002708,-0.00000980,-0.00002041,-0.00005366,-0.00001218,0.
 00000419,0.00005838,0.00002288,-0.00000572,-0.00004342,-0.00002362,-0.
 00000857,0.00004229,0.00006227,-0.00000024,-0.00007965,-0.00000917,0.0
 0004245,-0.00012615,-0.00027927,-0.00030313,0.00016092,-0.00118444,0.0
 0060068,0.00035855,0.00089306,0.00257087,-0.00559658,0.01846202,0.0063
 6593,0.00514582,-0.03444368,-0.06309434,-0.00345991,-0.04618528,-0.020
 50639,0.00005111,0.00004761,0.00006339,0.00002319,0.00001118,-0.000030
 81,-0.00001207,-0.00001385,0.00002847,0.00004226,0.00001585,-0.0000574
 1,-0.00001380,-0.00000159,-0.00000024,-0.00000188,-0.00000148,-0.00000
 127,0.00000023,-0.00000093,-0.00000108,-0.00000127,-0.00000098,-0.0000
 0079,0.00000265,-0.00000465,-0.00000219,-0.00000515,-0.00000357,0.0000
 0177,0.00002026,-0.00002587,0.00002043,0.00001769,-0.00000116,0.000000
 30,0.00002973,0.00003865,-0.00021009,-0.00067521,0.00026712,-0.0003208
 2,-0.00170836,0.00179929,-0.00278064,0.00579087,0.06058708,0.07761157,
 -0.00000129,-0.00000328,0.00000038,-0.00000772,0.00000536,0.00001000,0
 .00001166,0.00000725,-0.00001233,-0.00006195,0.00003216,0.00003743,0.0
 0013667,0.00000100,-0.00005003,-0.00036406,0.00011498,0.00008871,0.001
 84899,0.00061600,-0.00069210,0.00779067,0.00192305,0.01100853,0.000862
 25,-0.00193944,0.00132426,0.00004559,0.00023109,0.00121971,0.00036714,
 -0.00029699,0.00022984,-0.00019466,0.00024086,-0.00002912,0.00011078,-
 0.00004954,0.00016299,-0.16056300,-0.00066462,-0.13917516,-0.00592172,
 0.00322405,-0.01613513,-0.00409222,0.00127176,-0.00180884,-0.00179303,
 -0.00160279,-0.00219813,-0.00232734,-0.00100332,-0.00405588,0.00000059
 ,-0.00000029,-0.00000112,0.00000004,0.00000022,-0.00000047,0.00000042,
 0.00000073,-0.00000025,0.00000356,-0.00000876,0.00000535,-0.00000253,-
 0.00000733,0.00000400,0.00004694,-0.00005534,0.00002362,-0.00016123,-0
 .00017979,0.00005158,0.00000956,0.00008582,0.00037614,0.00000087,-0.00
 000199,-0.00004211,-0.00002352,0.00002200,0.00004341,0.00001942,-0.000
 02684,-0.00001846,0.16548266,-0.00000023,0.00000893,-0.00000325,0.0000
 0674,-0.00000938,-0.00000666,-0.00001367,-0.00000215,0.00000920,0.0000
 0734,-0.00001687,-0.00002251,-0.00005660,0.00007389,0.00005278,-0.0000
 7700,-0.00032458,-0.00008907,-0.00043984,0.00076104,0.00100073,-0.0030
 5258,-0.00713050,0.00108290,-0.00053251,0.00158576,-0.00165589,0.00031
 827,-0.00007548,-0.00066903,-0.00017884,0.00029688,-0.00021995,0.00011
 837,-0.00017347,-0.00001433,-0.00006290,0.00004222,-0.00009008,-0.0035
 2347,-0.04166545,-0.00002303,-0.00628043,0.00435207,-0.01338654,-0.003
 19772,-0.00067995,-0.00019371,-0.00084794,-0.00316957,0.00536273,0.017
 75985,-0.00026411,0.02271494,-0.00000036,-0.00000140,0.00000006,0.0000
 0012,-0.00000098,-0.00000024,-0.00000041,-0.00000193,-0.00000007,0.000
 00080,-0.00000328,-0.00000565,-0.00000700,-0.00000561,0.00000333,0.000
 02638,-0.00001832,0.00000004,0.00003794,-0.00010433,0.00003906,-0.0000
 0896,-0.00008914,-0.00001092,-0.00000883,0.00000041,0.00001462,-0.0000
 0924,-0.00000411,0.00001757,-0.00001707,0.00002337,0.00000913,-0.00212
 917,0.04671037,-0.00000246,0.00003982,0.00001306,0.00009376,-0.0000356
 0,-0.00008195,-0.00017048,-0.00007656,0.00007850,0.00029261,-0.0000049
 5,-0.00006343,-0.00046572,0.00004374,-0.00008179,0.00113464,-0.0000930
 4,-0.00020813,-0.00234088,-0.00149317,0.00163433,-0.01316387,-0.000032
 35,-0.01285960,-0.00101095,0.00261088,-0.00156198,0.00032823,-0.000487
 72,-0.00119142,-0.00050374,0.00034190,-0.00014080,0.00025346,-0.000318
 70,0.00013473,-0.00014659,0.00005504,-0.00028536,-0.14283910,0.0069548
 2,-0.22032348,0.00347038,-0.00022065,0.00269336,0.00242756,-0.00104330
 ,0.00172414,0.00211995,-0.00036147,-0.00000782,0.00189291,0.00844883,-
 0.00099491,-0.00000461,-0.00000465,0.00000128,0.00000332,-0.00000315,-
 0.00000236,-0.00000648,-0.00000643,0.00000046,-0.00000746,0.00001904,-
 0.00001453,0.00001699,0.00002496,-0.00000647,-0.00006257,0.00003633,0.
 00003671,0.00034201,0.00046888,-0.00004805,-0.00000762,-0.00004702,-0.
 00028686,-0.00000461,-0.00000431,0.00002237,0.00003369,-0.00004862,-0.
 00010363,-0.00002396,0.00002633,0.00002645,0.14895067,-0.01420228,0.23
 100524,-0.00000140,-0.00001460,-0.00000696,-0.00003259,0.00001422,0.00
 002606,0.00005973,0.00002156,-0.00001433,-0.00007456,-0.00001748,0.000
 00258,0.00005690,0.00000636,0.00003160,-0.00009439,-0.00002529,-0.0000
 0800,0.00013390,0.00012919,-0.00010598,0.00153442,0.00193481,-0.001095
 47,-0.00027863,0.00010713,0.00035988,0.00029740,0.00020739,0.00006891,
 -0.00000619,0.00004367,0.00003835,0.00002765,-0.00002610,0.00002358,-0
 .00001897,-0.00000077,-0.00003339,0.00429121,-0.02493693,-0.00917793,-
 0.04683388,0.01022547,0.00810949,-0.00341478,0.02982755,-0.00012825,-0
 .00721154,-0.00127492,-0.00060742,-0.00196650,-0.00597936,0.00036541,0
 .00000175,0.00000144,0.00000088,-0.00000070,0.00000152,0.00000110,0.00
 000147,0.00000286,-0.00000006,-0.00000022,0.00000176,0.00000728,0.0000
 0979,0.00000108,-0.00000027,-0.00002091,0.00001314,0.00003105,0.000069
 46,-0.00000058,0.00001236,0.00000821,0.00003420,0.00012867,0.00000092,
 -0.00001097,-0.00001185,0.00001985,-0.00000825,-0.00000290,-0.00000161
 ,0.00000336,0.00000492,-0.00131121,-0.00020682,-0.00023702,0.05251728,
 -0.00000053,-0.00001732,-0.00000934,-0.00004186,0.00001882,0.00003188,
 0.00007410,0.00002308,-0.00001599,-0.00008173,-0.00002849,0.00000079,0
 .00004184,0.00002909,0.00002705,-0.00008472,-0.00006942,-0.00001391,0.
 00002539,0.00008604,0.00019853,0.00022962,-0.00009679,-0.00180189,0.00
 059674,0.00123856,0.00011119,0.00016497,0.00020335,0.00028987,-0.00006
 936,0.00006286,-0.00000689,0.00004402,-0.00009529,0.00000458,-0.000016
 10,0.00003458,-0.00002306,-0.00133923,-0.00999602,-0.00479857,0.015914
 78,-0.26155854,-0.10055879,0.00574384,-0.02047803,0.00237669,0.0026116
 5,0.00011191,-0.00046801,-0.00031881,-0.00097799,0.00011384,0.00000242
 ,0.00000187,0.00000145,-0.00000161,0.00000164,0.00000179,0.00000217,0.
 00000337,-0.00000016,-0.00000040,0.00000298,0.00000690,0.00001072,0.00
 000212,-0.00000093,-0.00002722,0.00001632,0.00003252,0.00008749,0.0000
 2852,0.00000120,0.00005323,-0.00021773,-0.00016313,-0.00000059,0.00000
 313,0.00000865,0.00000025,0.00001638,0.00003877,-0.00001037,0.00002569
 ,0.00000168,-0.00086883,-0.00094699,0.00011716,-0.02130062,0.29090849,
 0.00000525,-0.00003022,-0.00001756,-0.00009696,0.00004277,0.00006659,0
 .00016932,0.00002906,-0.00003744,-0.00016965,-0.00004866,0.00003123,0.
 00013341,0.00004955,-0.00005857,-0.00014718,0.00001299,0.00002235,0.00
 024495,-0.00031182,0.00003593,-0.00112894,0.00056767,0.00014476,0.0005
 8172,0.00029532,0.00008725,-0.00030840,-0.00014355,-0.00001901,0.00012
 974,-0.00014477,0.00000093,-0.00010501,0.00015135,-0.00009559,0.000058
 79,-0.00002844,0.00012863,-0.00045015,0.00106208,0.00230862,0.01023794
 ,-0.11043502,-0.09685598,-0.00346762,0.02552990,0.00595132,-0.00341835
 ,0.00260120,-0.00076766,0.00027519,0.00130927,-0.00126246,0.00000581,0
 .00000598,0.00000032,-0.00000539,0.00000271,0.00000403,0.00000673,0.00
 000471,0.00000169,-0.00000126,-0.00000401,0.00000059,-0.00000348,-0.00
 000268,-0.00000097,0.00002830,-0.00001587,0.00000573,-0.00008498,-0.00
 003430,-0.00001133,-0.00001951,0.00019244,-0.00001022,-0.00000271,0.00
 000490,0.00000118,-0.00001096,0.00000282,-0.00000179,0.00001356,-0.000
 02566,-0.00000970,0.00005599,-0.00006027,0.00003742,-0.00498740,0.1047
 3364,0.10211755,0.00000832,-0.00009213,-0.00007529,-0.00031246,0.00013
 586,0.00021410,0.00058185,0.00009430,-0.00009637,-0.00057979,-0.000197
 05,0.00009302,0.00041994,0.00029402,-0.00020218,-0.00060453,-0.0001852
 9,0.00008031,0.00107073,-0.00039065,0.00080297,-0.00425683,-0.00300901
 ,-0.00090497,0.00013539,-0.00017010,-0.00072877,-0.00002434,0.00002127
 ,-0.00025225,0.00007877,-0.00009089,0.00008259,-0.00005810,0.00008139,
 -0.00003795,0.00003597,-0.00001542,0.00005320,-0.01103392,-0.00186489,
 0.02701209,-0.07942245,-0.00499150,0.08403772,0.00548634,0.00874501,-0
 .02942477,-0.00120595,-0.00331842,-0.00186478,0.00108965,0.00064144,0.
 00052881,0.00001989,0.00001503,0.00000470,-0.00001470,0.00000826,0.000
 01296,0.00001976,0.00001389,0.00000491,-0.00000800,-0.00000065,-0.0000
 0605,-0.00001066,-0.00001175,-0.00000591,0.00000750,-0.00005737,0.0000
 5182,-0.00009871,0.00000013,-0.00005641,-0.00004366,0.00008993,0.00043
 168,0.00001277,-0.00000190,-0.00006223,-0.00000311,-0.00000294,-0.0000
 1104,0.00000169,-0.00001629,-0.00000252,0.00065374,0.00047251,-0.00044
 777,0.00139181,-0.00106666,0.00191042,0.08639552,0.00000250,-0.0000446
 3,-0.00003358,-0.00013966,0.00006203,0.00009409,0.00026257,0.00004542,
 -0.00003845,-0.00026421,-0.00009815,0.00003945,0.00017187,0.00016351,-
 0.00008117,-0.00028519,-0.00011446,0.00001114,0.00046076,-0.00029700,0
 .00064897,-0.00279607,-0.00142629,-0.00138464,0.00043800,0.00087014,-0
 .00039344,0.00012744,0.00011100,0.00010792,-0.00006903,0.00000462,-0.0
 0003205,0.00001789,-0.00002540,-0.00001736,-0.00000196,0.00001377,0.00
 000414,-0.00985829,-0.00192483,0.01670846,-0.00254036,-0.05421522,0.00
 680933,-0.00109293,-0.00369093,0.02303593,0.00079645,0.00246777,0.0023
 5663,0.00000145,0.00107160,-0.00080662,0.00000889,0.00000611,0.0000027
 6,-0.00000598,0.00000400,0.00000549,0.00000791,0.00000689,0.00000144,-
 0.00000327,0.00000137,0.00000074,-0.00000089,-0.00000266,-0.00000362,-
 0.00000807,-0.00002263,0.00004605,-0.00001955,0.00002174,-0.00003353,0
 .00003928,-0.00013763,-0.00021114,0.00000186,0.00000733,0.00001296,0.0
 0000448,0.00001274,0.00003201,-0.00000706,0.00001181,-0.00000076,0.000
 55672,0.00060446,-0.00051706,0.01009680,0.00289927,-0.02685305,0.00367
 984,0.05469092,-0.00000890,0.00001864,0.00000807,0.00007004,-0.0000258
 9,-0.00004784,-0.00010936,-0.00002159,0.00003724,0.00008860,0.00003344
 ,0.00000990,-0.00001692,0.00001114,-0.00000624,-0.00009110,0.00006692,
 0.00004232,0.00041460,-0.00011749,-0.00008106,-0.00113496,-0.00130006,
 0.00134587,0.00032112,0.00032463,-0.00001587,-0.00004337,-0.00007007,-
 0.00006266,-0.00003919,0.00006725,0.00017478,0.00008368,-0.00006772,0.
 00016458,-0.00004701,-0.00000317,-0.00014730,0.00113048,-0.00029902,0.
 00046011,0.08261184,0.00731627,-0.25925695,-0.00790509,0.01321799,-0.0
 2031929,-0.00200330,-0.00346462,-0.00155624,0.00072928,0.00026704,0.00
 038484,-0.00000346,-0.00000565,0.00000122,0.00000524,-0.00000168,-0.00
 000344,-0.00000603,-0.00000273,-0.00000189,0.00000122,0.00000726,0.000
 00277,0.00000209,0.00000689,-0.00000325,-0.00002609,0.00001136,0.00001
 476,-0.00000321,0.00002173,-0.00001230,0.00001349,0.00005795,0.0004110
 3,0.00002792,-0.00000971,-0.00004751,0.00001125,-0.00002843,-0.0000415
 0,-0.00000706,0.00000165,0.00000846,0.00060351,0.00049964,0.00072430,0
 .00690097,-0.00007372,-0.01180000,-0.08201691,-0.01851986,0.28936946,-
 0.00000380,-0.00001273,-0.00002089,-0.00005394,0.00002361,0.00004021,0
 .00010947,0.00001442,-0.00000739,-0.00010784,-0.00004347,0.00002621,0.
 00008465,0.00005833,-0.00003673,-0.00009588,-0.00002283,0.00003732,0.0
 0033365,-0.00018266,0.00001887,0.00237243,-0.00096782,-0.00068617,-0.0
 0001161,0.00069718,0.00067198,0.00022893,0.00016781,-0.00036830,-0.000
 09750,-0.00048837,0.00053279,0.00009353,0.00006322,0.00027681,-0.00007
 058,-0.00006379,-0.00018351,-0.00533455,-0.00150110,-0.00327713,-0.002
 69648,-0.00153626,-0.00062997,0.00620190,-0.00917391,0.00890494,-0.067
 36616,0.02819467,-0.05491667,-0.01327619,0.01677008,-0.02941681,0.0000
 0421,0.00000164,0.00000263,-0.00000162,0.00000133,0.00000253,0.0000031
 7,0.00000191,0.00000101,-0.00000349,0.00000691,-0.00000226,0.00000134,
 0.00000653,-0.00000856,-0.00002563,0.00002522,0.00000218,0.00004247,0.
 00005520,-0.00003054,0.00036850,0.00034028,0.00017406,0.00003516,0.000
 00778,-0.00007183,0.00010557,-0.00011169,-0.00027458,0.00001190,-0.000
 03138,0.00002392,-0.00069783,0.00183884,0.00015903,0.00042318,-0.00012
 249,0.00024976,0.00024251,0.00024598,-0.00002050,0.07327595,0.00000460
 ,-0.00000374,0.00000175,-0.00001383,0.00000416,0.00000881,0.00001810,0
 .00000238,-0.00001126,-0.00001907,0.00000618,0.00000027,0.00002561,-0.
 00002275,-0.00000157,0.00001076,0.00002831,0.00000892,-0.00001646,0.00
 000843,-0.00014381,-0.00005198,0.00018938,0.00117689,-0.00028708,0.000
 07622,-0.00031356,-0.00018863,-0.00020292,0.00063948,0.00002908,0.0002
 7700,-0.00046932,-0.00009957,0.00018627,-0.00020248,0.00006216,-0.0000
 3901,0.00014782,-0.00125065,-0.00087921,0.00040787,-0.00432356,-0.0029
 4646,0.00143536,0.00927711,-0.02634532,0.02651607,0.02735174,-0.090020
 12,0.08771270,0.00135279,0.00310145,-0.00100193,0.00000052,0.00000176,
 -0.00000160,-0.00000170,0.00000042,0.00000038,0.00000134,0.00000043,0.
 00000055,0.00000031,-0.00000701,-0.00000134,-0.00000552,-0.00000399,0.
 00000200,0.00002389,-0.00001955,-0.00000778,-0.00004296,-0.00002111,-0
 .00000595,0.00002589,-0.00140506,-0.00081466,-0.00006503,0.00002921,0.
 00010808,-0.00006599,0.00010321,0.00023257,0.00000151,-0.00001972,-0.0
 0001649,0.00027044,0.00009644,-0.00002357,0.00054031,-0.00047693,0.000
 56349,0.00093788,-0.00094234,0.00094640,-0.03038624,0.11078381,0.00000
 338,-0.00002240,-0.00002483,-0.00009491,0.00003597,0.00007121,0.000167
 94,0.00002930,-0.00003562,-0.00017159,-0.00005151,0.00002048,0.0001312
 2,0.00003102,-0.00000368,-0.00016958,-0.00005809,0.00003264,0.00003338
 ,0.00022207,0.00005186,-0.00047010,0.00007879,0.00082101,-0.00032642,0
 .00021113,0.00077161,0.00072703,-0.00121987,-0.00207666,0.00025019,-0.
 00022351,-0.00025490,-0.00008484,0.00004332,-0.00010083,0.00005329,0.0
 0000363,0.00010756,0.00058716,-0.00263256,0.00089534,0.00091427,-0.002
 16793,0.00093362,0.00175156,0.00133101,0.00633039,-0.06277282,0.098755
 20,-0.26012053,-0.00214047,0.00172111,-0.00036327,0.00000647,0.0000051
 0,0.00000114,-0.00000531,0.00000254,0.00000397,0.00000645,0.00000332,0
 .00000242,-0.00000273,-0.00000241,-0.00000295,-0.00000371,-0.00000064,
 -0.00000448,0.00000599,0.00000145,-0.00001083,-0.00001599,0.00000729,-
 0.00001882,0.00032177,-0.00038145,-0.00034386,-0.00000560,0.00000976,0
 .00000460,-0.00000204,0.00000463,0.00002219,-0.00000184,0.00001087,-0.
 00002107,-0.00007111,0.00003381,0.00006773,0.00011615,-0.00005789,0.00
 008052,0.00018337,-0.00025054,0.00003106,0.06752651,-0.10433055,0.2730
 2002,0.00000690,-0.00008950,-0.00008714,-0.00032807,0.00011711,0.00026
 326,0.00058632,0.00015555,-0.00016027,-0.00066231,-0.00016177,0.000040
 95,0.00059093,0.00003023,0.00019347,-0.00089508,-0.00045200,0.00013517
 ,0.00018491,0.00218471,-0.00026938,-0.00504562,-0.00211465,-0.00211628
 ,0.00037722,0.00024868,0.00044181,0.00049583,-0.00016206,-0.00044691,0
 .00007983,-0.00016844,-0.00000195,-0.00009518,0.00015905,-0.00006471,0
 .00005327,-0.00003513,0.00008012,0.00117749,-0.00064341,0.00064013,-0.
 00101141,0.00063280,-0.00205335,0.00783048,-0.01233230,-0.00763993,-0.
 08035336,0.04853198,0.06999383,-0.02986821,0.01596201,0.02738805,0.000
 02024,0.00001592,0.00000469,-0.00001636,0.00000891,0.00001406,0.000022
 47,0.00001474,0.00000584,-0.00000357,-0.00001370,0.00000676,-0.0000047
 8,-0.00001490,-0.00000526,-0.00000360,0.00004601,-0.00004709,-0.000054
 63,-0.00005709,-0.00003517,0.00003079,0.00014701,0.00041245,0.00000207
 ,0.00001023,-0.00005257,-0.00000831,-0.00000482,-0.00001800,0.00000613
 ,-0.00003008,-0.00000363,0.00013177,0.00006444,-0.00007331,0.00042314,
 -0.00025210,0.00030104,0.00002506,0.00017187,0.00046714,0.00590458,-0.
 00311577,-0.00644708,0.10040107,-0.00000175,-0.00000516,-0.00000041,-0
 .00000237,0.00000313,0.00000581,0.00000909,0.00000753,-0.00000647,-0.0
 0002156,0.00001152,0.00000559,0.00005855,-0.00001887,-0.00000328,-0.00
 005344,0.00001148,0.00007538,0.00041106,-0.00009676,-0.00024398,-0.000
 73203,0.00212118,0.00039002,0.00027812,0.00040803,-0.00050780,-0.00004
 605,0.00001392,0.00067142,-0.00004534,0.00016499,-0.00010231,0.0000265
 5,-0.00009173,-0.00003036,-0.00000077,0.00003882,0.00000978,-0.0002182
 5,0.00058973,0.00035888,-0.00310483,0.00154017,-0.00501079,0.00382212,
 -0.03651470,-0.02342610,0.04882152,-0.10042734,-0.08439483,0.00269817,
 0.00147258,-0.00088034,0.00000028,-0.00000040,0.00000033,0.00000038,0.
 00000025,-0.00000003,-0.00000010,0.00000115,-0.00000083,0.00000061,0.0
 0000056,0.00000397,0.00000272,-0.00000084,0.00000180,-0.00001236,0.000
 00659,-0.00000036,0.00000090,-0.00002087,-0.00002179,-0.00019355,-0.00
 043759,0.00041919,-0.00000319,0.00000360,0.00000417,-0.00003251,0.0000
 3618,0.00006633,-0.00000810,0.00002668,-0.00000546,0.00023483,0.000131
 75,-0.00016311,0.00058891,-0.00075855,0.00097649,0.00025217,-0.0001343
 5,0.00113523,-0.00387622,0.00846019,0.00885802,-0.04885354,0.12345715,
 -0.00000848,0.00001349,0.00001144,0.00006826,-0.00002756,-0.00004254,-
 0.00011625,-0.00000656,0.00002431,0.00008584,0.00003740,-0.00001413,-0
 .00004218,-0.00002255,0.00005639,-0.00006618,-0.00007001,0.00006860,0.
 00001085,0.00028220,-0.00001324,-0.00285458,0.00138903,0.00131733,-0.0
 0010519,0.00013093,0.00025822,0.00040943,-0.00019515,-0.00093295,-0.00
 006725,-0.00020162,0.00036619,0.00009890,-0.00007814,0.00025441,-0.000
 06806,-0.00000368,-0.00019715,0.00053583,-0.00107152,0.00061901,-0.000
 51085,0.00007024,0.00053372,-0.00434082,-0.00425748,0.00806156,0.07589
 517,-0.08729184,-0.21021205,-0.00057523,0.00260051,0.00555745,-0.00000
 426,-0.00000460,0.00000138,0.00000516,-0.00000160,-0.00000292,-0.00000
 512,-0.00000150,-0.00000247,0.00000284,0.00000758,0.00000701,0.0000055
 3,0.00000195,0.00000139,-0.00002104,0.00002726,0.00000203,0.00001221,0
 .00000074,-0.00001797,0.00014687,0.00055411,0.00029237,0.00004289,-0.0
 0001660,-0.00006484,0.00006036,-0.00007939,-0.00015349,-0.00000263,-0.
 00000425,0.00002070,0.00009412,-0.00018708,0.00006247,0.00018797,-0.00
 010593,-0.00007833,0.00069151,-0.00074067,0.00021258,0.01130109,-0.012
 56354,-0.01988703,-0.08086673,0.10181586,0.21389054\\0.00001678,-0.000
 00124,0.00000338,0.00000933,-0.00002597,-0.00001442,-0.00002266,0.0000
 2749,0.00002679,0.00001521,-0.00001533,-0.00001948,0.00000821,0.000011
 35,0.00001527,-0.00000696,-0.00000410,-0.00000221,0.00000318,-0.000004
 32,-0.00000500,0.00000831,-0.00000851,-0.00000834,-0.00000128,0.000027
 00,-0.00000057,-0.00000320,-0.00001049,0.00001542,-0.00000206,-0.00000
 243,0.00000954,0.00000079,0.00000948,0.00000341,-0.00000170,-0.0000026
 1,-0.00000499,-0.00000429,0.00002314,0.00000556,-0.00000721,-0.0000223
 2,-0.00000454,0.00000895,0.00001401,0.00000977,-0.00000985,0.00000050,
 0.00000168,-0.00001022,0.00000815,-0.00000121,-0.00000976,0.00000234,-
 0.00001055,-0.00000093,0.00000020,0.00000122,-0.00000036,0.00000162,0.
 00000324,-0.00000202,0.00000003,-0.00000118,-0.00000012,0.00000219,-0.
 00000368,0.00000327,0.00000168,0.00000139,-0.00000519,-0.00000661,0.00
 000506,-0.00000636,-0.00000163,-0.00000566,0.00000026,-0.00000201,-0.0
 0000399,0.00000349,-0.00000104,-0.00000239,0.00000068,-0.00000227,-0.0
 0000113,0.00000529,-0.00000696,-0.00000492,-0.00000093,0.00000084,0.00
 000094,-0.00000177,-0.00000462,0.,0.00001099,-0.00000427,-0.00000992,0
 .00000214,-0.00000331,0.00000148\\\@


 ON INDUCTION, OR "WHY DO YOU BELIEVE THE SUN WILL RISE TOMORROW?":

 ... THE FARMER WHO HAS FED THE CHICKEN EVERY DAY THROUGHOUT ITS
 LIFE AT LAST WRINGS ITS NECK INSTEAD, SHOWING THAT MORE REFINED VIEWS
 AS TO THE UNIFORMITY OF NATURE WOULD HAVE BEEN USEFUL TO THE CHICKEN.

                               -- BERTRAND RUSSELL
 Job cpu time:       0 days 12 hours 57 minutes  8.4 seconds.
 Elapsed time:       0 days  3 hours 14 minutes 18.9 seconds.
 File lengths (MBytes):  RWF=    869 Int=      0 D2E=      0 Chk=     28 Scr=      1
 Normal termination of Gaussian 16 at Sat May 20 20:14:17 2023.
### All Done ###
