### Starting Gaussian ###
 Entering Gaussian System, Link 0=g16
 Initial command:
 /cluster/software/gaussian/gaussian-16-A.03/avx2/g16/l1.exe "/local/scratch/ks29c/Gau-1753.inp" -scrdir="/local/scratch/ks29c/"
 Entering Link 1 = /cluster/software/gaussian/gaussian-16-A.03/avx2/g16/l1.exe PID=      1754.
  
 Copyright (c) 1988,1990,1992,1993,1995,1998,2003,2009,2016,
            Gaussian, Inc.  All Rights Reserved.
  
 This is part of the Gaussian(R) 16 program.  It is based on
 the Gaussian(R) 09 system (copyright 2009, Gaussian, Inc.),
 the Gaussian(R) 03 system (copyright 2003, Gaussian, Inc.),
 the Gaussian(R) 98 system (copyright 1998, Gaussian, Inc.),
 the Gaussian(R) 94 system (copyright 1995, Gaussian, Inc.),
 the Gaussian 92(TM) system (copyright 1992, Gaussian, Inc.),
 the Gaussian 90(TM) system (copyright 1990, Gaussian, Inc.),
 the Gaussian 88(TM) system (copyright 1988, Gaussian, Inc.),
 the Gaussian 86(TM) system (copyright 1986, Carnegie Mellon
 University), and the Gaussian 82(TM) system (copyright 1983,
 Carnegie Mellon University). Gaussian is a federally registered
 trademark of Gaussian, Inc.
  
 This software contains proprietary and confidential information,
 including trade secrets, belonging to Gaussian, Inc.
  
 This software is provided under written license and may be
 used, copied, transmitted, or stored only in accord with that
 written license.
  
 The following legend is applicable only to US Government
 contracts under FAR:
  
                    RESTRICTED RIGHTS LEGEND
  
 Use, reproduction and disclosure by the US Government is
 subject to restrictions as set forth in subparagraphs (a)
 and (c) of the Commercial Computer Software - Restricted
 Rights clause in FAR 52.227-19.
  
 Gaussian, Inc.
 340 Quinnipiac St., Bldg. 40, Wallingford CT 06492
  
  
 ---------------------------------------------------------------
 Warning -- This program may not be used in any manner that
 competes with the business of Gaussian, Inc. or will provide
 assistance to any competitor of Gaussian, Inc.  The licensee
 of this program is prohibited from giving any competitor of
 Gaussian, Inc. access to this program.  By using this program,
 the user acknowledges that Gaussian, Inc. is engaged in the
 business of creating and licensing software in the field of
 computational chemistry and represents and warrants to the
 licensee that it is not a competitor of Gaussian, Inc. and that
 it will not use this program in any manner prohibited above.
 ---------------------------------------------------------------
  

 Cite this work as:
 Gaussian 16, Revision A.03,
 M. J. Frisch, G. W. Trucks, H. B. Schlegel, G. E. Scuseria, 
 M. A. Robb, J. R. Cheeseman, G. Scalmani, V. Barone, 
 G. A. Petersson, H. Nakatsuji, X. Li, M. Caricato, A. V. Marenich, 
 J. Bloino, B. G. Janesko, R. Gomperts, B. Mennucci, H. P. Hratchian, 
 J. V. Ortiz, A. F. Izmaylov, J. L. Sonnenberg, D. Williams-Young, 
 F. Ding, F. Lipparini, F. Egidi, J. Goings, B. Peng, A. Petrone, 
 T. Henderson, D. Ranasinghe, V. G. Zakrzewski, J. Gao, N. Rega, 
 G. Zheng, W. Liang, M. Hada, M. Ehara, K. Toyota, R. Fukuda, 
 J. Hasegawa, M. Ishida, T. Nakajima, Y. Honda, O. Kitao, H. Nakai, 
 T. Vreven, K. Throssell, J. A. Montgomery, Jr., J. E. Peralta, 
 F. Ogliaro, M. J. Bearpark, J. J. Heyd, E. N. Brothers, K. N. Kudin, 
 V. N. Staroverov, T. A. Keith, R. Kobayashi, J. Normand, 
 K. Raghavachari, A. P. Rendell, J. C. Burant, S. S. Iyengar, 
 J. Tomasi, M. Cossi, J. M. Millam, M. Klene, C. Adamo, R. Cammi, 
 J. W. Ochterski, R. L. Martin, K. Morokuma, O. Farkas, 
 J. B. Foresman, and D. J. Fox, Gaussian, Inc., Wallingford CT, 2016.
 
 ******************************************
 Gaussian 16:  ES64L-G16RevA.03 25-Dec-2016
                17-May-2023 
 ******************************************
 %chk=COCC1dC2CdCOCqdCC2dOrCdCCdC1.chk
 %NProcShared=20
 Will use up to   20 processors via shared memory.
 -----------------------------
 # opt freq b3lyp/6-31g(2df,p)
 -----------------------------
 1/18=20,19=15,26=3,38=1/1,3;
 2/9=110,12=2,17=6,18=5,40=1/2;
 3/5=1,6=6,7=104,11=2,25=1,30=1,71=1,74=-5/1,2,3;
 4//1;
 5/5=2,38=5/2;
 6/7=2,8=2,9=2,10=2,28=1/1;
 7//1,2,3,16;
 1/18=20,19=15,26=3/3(2);
 2/9=110/2;
 99//99;
 2/9=110/2;
 3/5=1,6=6,7=104,11=2,25=1,30=1,71=1,74=-5/1,2,3;
 4/5=5,16=3,69=1/1;
 5/5=2,38=5/2;
 7//1,2,3,16;
 1/18=20,19=15,26=3/3(-5);
 2/9=110/2;
 6/7=2,8=2,9=2,10=2,19=2,28=1/1;
 99/9=1/99;
 -------------------
 Title Card Required
 -------------------
 Symbolic Z-matrix:
 Charge =  0 Multiplicity = 1
 C                     1.1919    0.03511   0.17358 
 O                     2.62439  -0.09127   0.45933 
 C                     2.96709   0.60201   1.70098 
 C                     4.47051   0.50568   2.37098 
 C                     5.13385   1.69341   2.25473 
 C                     6.57126   1.72982   2.21156 
 C                     7.32954   1.49112   3.27588 
 O                     7.01253   1.69334   4.59216 
 C                     5.74377   1.83896   5.14891 
 C                     4.58548   2.27065   4.61446 
 C                     4.45336   2.62017   3.2061 
 O                     3.61829   3.48172   2.85305 
 C                     5.63719   1.01559   6.33806 
 C                     5.98935  -0.22996   5.99173 
 C                     5.52275  -0.85063   4.67693 
 C                     5.00638  -0.60689   3.39601 
 H                     0.90321  -0.51326  -0.73792 
 H                     0.86221   1.07704   0.03094 
 H                     0.62075  -0.40169   0.99912 
 H                     2.22957   0.31652   2.44397 
 H                     2.78563   1.65286   1.41296 
 H                     7.02366   1.78911   1.22349 
 H                     8.33256   1.08865   3.16315 
 H                     3.63839   2.1051    5.12805 
 H                     4.66304   1.06972   6.83368 
 H                     7.06866  -0.39688   6.23056 
 H                     5.38948  -1.87803   5.04335 
 H                     5.46396  -1.34427   2.71898 
 

 GradGradGradGradGradGradGradGradGradGradGradGradGradGradGradGradGradGrad
 Berny optimization.
 Initialization pass.
                           ----------------------------
                           !    Initial Parameters    !
                           ! (Angstroms and Degrees)  !
 --------------------------                            --------------------------
 ! Name  Definition              Value          Derivative Info.                !
 --------------------------------------------------------------------------------
 ! R1    R(1,2)                  1.4662         estimate D2E/DX2                !
 ! R2    R(1,17)                 1.1022         estimate D2E/DX2                !
 ! R3    R(1,18)                 1.1021         estimate D2E/DX2                !
 ! R4    R(1,19)                 1.0948         estimate D2E/DX2                !
 ! R5    R(2,3)                  1.4628         estimate D2E/DX2                !
 ! R6    R(3,4)                  1.6488         estimate D2E/DX2                !
 ! R7    R(3,20)                 1.0851         estimate D2E/DX2                !
 ! R8    R(3,21)                 1.1046         estimate D2E/DX2                !
 ! R9    R(4,5)                  1.3654         estimate D2E/DX2                !
 ! R10   R(4,16)                 1.6049         estimate D2E/DX2                !
 ! R11   R(5,6)                  1.4385         estimate D2E/DX2                !
 ! R12   R(5,11)                 1.4923         estimate D2E/DX2                !
 ! R13   R(6,7)                  1.3284         estimate D2E/DX2                !
 ! R14   R(6,22)                 1.0883         estimate D2E/DX2                !
 ! R15   R(7,8)                  1.3689         estimate D2E/DX2                !
 ! R16   R(7,23)                 1.0866         estimate D2E/DX2                !
 ! R17   R(8,9)                  1.3932         estimate D2E/DX2                !
 ! R18   R(9,10)                 1.3467         estimate D2E/DX2                !
 ! R19   R(9,13)                 1.4503         estimate D2E/DX2                !
 ! R20   R(10,11)                1.4571         estimate D2E/DX2                !
 ! R21   R(10,24)                1.09           estimate D2E/DX2                !
 ! R22   R(11,12)                1.2507         estimate D2E/DX2                !
 ! R23   R(13,14)                1.3399         estimate D2E/DX2                !
 ! R24   R(13,25)                1.0943         estimate D2E/DX2                !
 ! R25   R(14,15)                1.527          estimate D2E/DX2                !
 ! R26   R(14,26)                1.1179         estimate D2E/DX2                !
 ! R27   R(15,16)                1.4024         estimate D2E/DX2                !
 ! R28   R(15,27)                1.0989         estimate D2E/DX2                !
 ! R29   R(16,28)                1.1007         estimate D2E/DX2                !
 ! A1    A(2,1,17)             111.9742         estimate D2E/DX2                !
 ! A2    A(2,1,18)             113.5148         estimate D2E/DX2                !
 ! A3    A(2,1,19)             109.1696         estimate D2E/DX2                !
 ! A4    A(17,1,18)            106.5568         estimate D2E/DX2                !
 ! A5    A(17,1,19)            106.7652         estimate D2E/DX2                !
 ! A6    A(18,1,19)            108.5861         estimate D2E/DX2                !
 ! A7    A(1,2,3)              110.7            estimate D2E/DX2                !
 ! A8    A(2,3,4)              122.0637         estimate D2E/DX2                !
 ! A9    A(2,3,20)             107.2938         estimate D2E/DX2                !
 ! A10   A(2,3,21)             101.0149         estimate D2E/DX2                !
 ! A11   A(4,3,20)             109.0346         estimate D2E/DX2                !
 ! A12   A(4,3,21)             108.1394         estimate D2E/DX2                !
 ! A13   A(20,3,21)            108.492          estimate D2E/DX2                !
 ! A14   A(3,4,5)              110.9516         estimate D2E/DX2                !
 ! A15   A(3,4,16)             127.1934         estimate D2E/DX2                !
 ! A16   A(5,4,16)             119.6834         estimate D2E/DX2                !
 ! A17   A(4,5,6)              120.6658         estimate D2E/DX2                !
 ! A18   A(4,5,11)             105.3316         estimate D2E/DX2                !
 ! A19   A(6,5,11)             117.326          estimate D2E/DX2                !
 ! A20   A(5,6,7)              122.8045         estimate D2E/DX2                !
 ! A21   A(5,6,22)             116.3585         estimate D2E/DX2                !
 ! A22   A(7,6,22)             119.9927         estimate D2E/DX2                !
 ! A23   A(6,7,8)              127.7081         estimate D2E/DX2                !
 ! A24   A(6,7,23)             120.6856         estimate D2E/DX2                !
 ! A25   A(8,7,23)             111.6062         estimate D2E/DX2                !
 ! A26   A(7,8,9)              127.6323         estimate D2E/DX2                !
 ! A27   A(8,9,10)             131.1622         estimate D2E/DX2                !
 ! A28   A(8,9,13)             109.5879         estimate D2E/DX2                !
 ! A29   A(10,9,13)            116.3705         estimate D2E/DX2                !
 ! A30   A(9,10,11)            122.5792         estimate D2E/DX2                !
 ! A31   A(9,10,24)            120.7726         estimate D2E/DX2                !
 ! A32   A(11,10,24)           114.3974         estimate D2E/DX2                !
 ! A33   A(5,11,10)            115.206          estimate D2E/DX2                !
 ! A34   A(5,11,12)            123.5242         estimate D2E/DX2                !
 ! A35   A(10,11,12)           119.9089         estimate D2E/DX2                !
 ! A36   A(9,13,14)            107.2474         estimate D2E/DX2                !
 ! A37   A(9,13,25)            114.1223         estimate D2E/DX2                !
 ! A38   A(14,13,25)           113.3912         estimate D2E/DX2                !
 ! A39   A(13,14,15)           121.3385         estimate D2E/DX2                !
 ! A40   A(13,14,26)           109.7134         estimate D2E/DX2                !
 ! A41   A(15,14,26)           114.7253         estimate D2E/DX2                !
 ! A42   A(14,15,16)           145.926          estimate D2E/DX2                !
 ! A43   A(14,15,27)            97.468          estimate D2E/DX2                !
 ! A44   A(16,15,27)           114.9856         estimate D2E/DX2                !
 ! A45   A(4,16,15)            145.7696         estimate D2E/DX2                !
 ! A46   A(4,16,28)            102.1442         estimate D2E/DX2                !
 ! A47   A(15,16,28)           106.9962         estimate D2E/DX2                !
 ! D1    D(17,1,2,3)          -177.7797         estimate D2E/DX2                !
 ! D2    D(18,1,2,3)            61.5105         estimate D2E/DX2                !
 ! D3    D(19,1,2,3)           -59.7725         estimate D2E/DX2                !
 ! D4    D(1,2,3,4)            173.3926         estimate D2E/DX2                !
 ! D5    D(1,2,3,20)            46.6588         estimate D2E/DX2                !
 ! D6    D(1,2,3,21)           -66.8587         estimate D2E/DX2                !
 ! D7    D(2,3,4,5)            109.4862         estimate D2E/DX2                !
 ! D8    D(2,3,4,16)           -87.5291         estimate D2E/DX2                !
 ! D9    D(20,3,4,5)          -124.5562         estimate D2E/DX2                !
 ! D10   D(20,3,4,16)           38.4285         estimate D2E/DX2                !
 ! D11   D(21,3,4,5)            -6.7753         estimate D2E/DX2                !
 ! D12   D(21,3,4,16)          156.2094         estimate D2E/DX2                !
 ! D13   D(3,4,5,6)           -152.8991         estimate D2E/DX2                !
 ! D14   D(3,4,5,11)            71.3804         estimate D2E/DX2                !
 ! D15   D(16,4,5,6)            42.665          estimate D2E/DX2                !
 ! D16   D(16,4,5,11)          -93.0555         estimate D2E/DX2                !
 ! D17   D(3,4,16,15)         -119.0008         estimate D2E/DX2                !
 ! D18   D(3,4,16,28)           93.0245         estimate D2E/DX2                !
 ! D19   D(5,4,16,15)           42.6652         estimate D2E/DX2                !
 ! D20   D(5,4,16,28)         -105.3095         estimate D2E/DX2                !
 ! D21   D(4,5,6,7)            -71.9906         estimate D2E/DX2                !
 ! D22   D(4,5,6,22)            97.4695         estimate D2E/DX2                !
 ! D23   D(11,5,6,7)            58.7312         estimate D2E/DX2                !
 ! D24   D(11,5,6,22)         -131.8087         estimate D2E/DX2                !
 ! D25   D(4,5,11,10)           65.6689         estimate D2E/DX2                !
 ! D26   D(4,5,11,12)         -100.96           estimate D2E/DX2                !
 ! D27   D(6,5,11,10)          -71.8026         estimate D2E/DX2                !
 ! D28   D(6,5,11,12)          121.5685         estimate D2E/DX2                !
 ! D29   D(5,6,7,8)            -27.8621         estimate D2E/DX2                !
 ! D30   D(5,6,7,23)           152.2349         estimate D2E/DX2                !
 ! D31   D(22,6,7,8)           163.0466         estimate D2E/DX2                !
 ! D32   D(22,6,7,23)          -16.8564         estimate D2E/DX2                !
 ! D33   D(6,7,8,9)             19.1406         estimate D2E/DX2                !
 ! D34   D(23,7,8,9)          -160.9491         estimate D2E/DX2                !
 ! D35   D(7,8,9,10)           -25.7632         estimate D2E/DX2                !
 ! D36   D(7,8,9,13)           133.8456         estimate D2E/DX2                !
 ! D37   D(8,9,10,11)            3.7511         estimate D2E/DX2                !
 ! D38   D(8,9,10,24)          165.7478         estimate D2E/DX2                !
 ! D39   D(13,9,10,11)        -154.7557         estimate D2E/DX2                !
 ! D40   D(13,9,10,24)           7.241          estimate D2E/DX2                !
 ! D41   D(8,9,13,14)          -53.1816         estimate D2E/DX2                !
 ! D42   D(8,9,13,25)         -179.6581         estimate D2E/DX2                !
 ! D43   D(10,9,13,14)         109.7939         estimate D2E/DX2                !
 ! D44   D(10,9,13,25)         -16.6826         estimate D2E/DX2                !
 ! D45   D(9,10,11,5)           41.8879         estimate D2E/DX2                !
 ! D46   D(9,10,11,12)        -150.9627         estimate D2E/DX2                !
 ! D47   D(24,10,11,5)        -121.1587         estimate D2E/DX2                !
 ! D48   D(24,10,11,12)         45.9907         estimate D2E/DX2                !
 ! D49   D(9,13,14,15)         -41.9154         estimate D2E/DX2                !
 ! D50   D(9,13,14,26)          95.6791         estimate D2E/DX2                !
 ! D51   D(25,13,14,15)         84.9929         estimate D2E/DX2                !
 ! D52   D(25,13,14,26)       -137.4126         estimate D2E/DX2                !
 ! D53   D(13,14,15,16)         18.7792         estimate D2E/DX2                !
 ! D54   D(13,14,15,27)       -143.8061         estimate D2E/DX2                !
 ! D55   D(26,14,15,16)       -116.88           estimate D2E/DX2                !
 ! D56   D(26,14,15,27)         80.5347         estimate D2E/DX2                !
 ! D57   D(14,15,16,4)          -3.2961         estimate D2E/DX2                !
 ! D58   D(14,15,16,28)        143.8769         estimate D2E/DX2                !
 ! D59   D(27,15,16,4)         157.5937         estimate D2E/DX2                !
 ! D60   D(27,15,16,28)        -55.2332         estimate D2E/DX2                !
 --------------------------------------------------------------------------------
 Trust Radius=3.00D-01 FncErr=1.00D-07 GrdErr=1.00D-06 EigMax=2.50D+02 EigMin=1.00D-04
 Number of steps in this run=    146 maximum allowed number of steps=    168.
 GradGradGradGradGradGradGradGradGradGradGradGradGradGradGradGradGradGrad

                          Input orientation:                          
 ---------------------------------------------------------------------
 Center     Atomic      Atomic             Coordinates (Angstroms)
 Number     Number       Type             X           Y           Z
 ---------------------------------------------------------------------
      1          6           0        1.191900    0.035110    0.173580
      2          8           0        2.624390   -0.091270    0.459330
      3          6           0        2.967090    0.602010    1.700980
      4          6           0        4.470510    0.505680    2.370980
      5          6           0        5.133850    1.693410    2.254730
      6          6           0        6.571260    1.729820    2.211560
      7          6           0        7.329540    1.491120    3.275880
      8          8           0        7.012530    1.693340    4.592160
      9          6           0        5.743770    1.838960    5.148910
     10          6           0        4.585480    2.270650    4.614460
     11          6           0        4.453360    2.620170    3.206100
     12          8           0        3.618290    3.481720    2.853050
     13          6           0        5.637190    1.015590    6.338060
     14          6           0        5.989350   -0.229960    5.991730
     15          6           0        5.522750   -0.850630    4.676930
     16          6           0        5.006380   -0.606890    3.396010
     17          1           0        0.903210   -0.513260   -0.737920
     18          1           0        0.862210    1.077040    0.030940
     19          1           0        0.620750   -0.401690    0.999120
     20          1           0        2.229570    0.316520    2.443970
     21          1           0        2.785630    1.652860    1.412960
     22          1           0        7.023660    1.789110    1.223490
     23          1           0        8.332560    1.088650    3.163150
     24          1           0        3.638390    2.105100    5.128050
     25          1           0        4.663040    1.069720    6.833680
     26          1           0        7.068660   -0.396880    6.230560
     27          1           0        5.389480   -1.878030    5.043350
     28          1           0        5.463960   -1.344270    2.718980
 ---------------------------------------------------------------------
                    Distance matrix (angstroms):
                    1          2          3          4          5
     1  C    0.000000
     2  O    1.466169   0.000000
     3  C    2.409487   1.462797   0.000000
     4  C    3.974832   2.723768   1.648773   0.000000
     5  C    4.756061   3.564538   2.488502   1.365370   0.000000
     6  C    5.996909   4.686626   3.810865   2.436613   1.438519
     7  C    7.029570   5.707482   4.722478   3.156579   2.429964
     8  O    7.493551   6.286564   5.090728   3.578553   2.998836
     9  C    6.980495   5.953863   4.596544   3.334025   2.961328
    10  C    6.019588   5.166202   3.727185   2.856841   2.490430
    11  C    5.149353   4.271040   2.923586   2.273497   1.492332
    12  O    4.994602   4.414067   3.169236   3.132967   2.419289
    13  C    7.663078   6.697878   5.366842   4.166398   4.169697
    14  C    7.545638   6.476854   5.313828   3.994730   4.289103
    15  C    6.310385   5.173516   4.183042   2.874751   3.534181
    16  C    5.034528   3.816259   2.914321   1.604885   2.571021
    17  H    1.102218   2.138678   3.384030   4.840364   5.632376
    18  H    1.102116   2.157254   2.728591   4.338441   4.855107
    19  H    1.094771   2.098168   2.646759   4.186403   5.131673
    20  H    2.512095   2.064212   1.085115   2.250094   3.219702
    21  H    2.587113   1.994341   1.104613   2.252253   2.494866
    22  H    6.179664   4.844930   4.253582   3.079367   2.154993
    23  H    7.812586   6.425423   5.582386   3.985325   3.379750
    24  H    5.900589   5.258249   3.801938   3.294238   3.265250
    25  H    7.581304   6.792373   5.425828   4.502322   4.645152
    26  H    8.450440   7.290544   6.191749   4.739341   4.890810
    27  H    6.707790   5.643711   4.815601   3.697045   4.538384
    28  H    5.160644   3.839165   3.325461   2.128465   3.090631
                    6          7          8          9         10
     6  C    0.000000
     7  C    1.328436   0.000000
     8  O    2.421427   1.368934   0.000000
     9  C    3.053633   2.478689   1.393172   0.000000
    10  C    3.163819   3.151084   2.494866   1.346710   0.000000
    11  C    2.503464   3.090637   3.054427   2.459666   1.457085
    12  O    3.492949   4.232570   4.212324   3.533737   2.346212
    13  C    4.290759   3.530881   2.323590   1.450302   2.377408
    14  C    4.297562   3.483399   2.589358   2.247462   3.181316
    15  C    3.719697   3.272801   2.949307   2.739618   3.259565
    16  C    3.051554   3.132595   3.278181   3.098158   3.153096
    17  H    6.771826   7.837464   8.402537   7.976135   7.068043
    18  H    6.146094   7.247583   7.681861   7.113632   6.024624
    19  H    6.435986   7.333091   7.625873   6.963232   5.994261
    20  H    4.571838   5.299194   5.420983   4.688723   3.752328
    21  H    3.869713   4.913629   5.289200   4.768915   3.724342
    22  H    1.088331   2.096346   3.370049   4.129107   4.204198
    23  H    2.102094   1.086618   2.037204   3.347841   4.188560
    24  H    4.153128   4.175176   3.441155   2.122237   1.090028
    25  H    5.043910   4.466065   3.306572   2.144331   2.524517
    26  H    4.574125   3.516068   2.656412   2.815010   3.986688
    27  H    4.736266   4.270709   3.948740   3.735328   4.247577
    28  H    3.306602   3.439471   3.890237   4.014450   4.175191
                   11         12         13         14         15
    11  C    0.000000
    12  O    1.250702   0.000000
    13  C    3.712857   4.722610   0.000000
    14  C    4.271094   5.408309   1.339909   0.000000
    15  C    3.918340   5.071761   2.501045   1.526973   0.000000
    16  C    3.279606   4.351819   3.418482   2.801083   1.402428
    17  H    6.162568   6.018853   8.649708   8.440217   7.125628
    18  H    5.035797   4.619823   7.911003   7.970372   6.857242
    19  H    5.356426   5.244347   7.461745   7.333315   6.144708
    20  H    3.291335   3.480572   5.221543   5.198191   4.146491
    21  H    2.632938   2.472228   5.726615   5.896946   4.940930
    22  H    3.350798   4.137262   5.355321   5.280393   4.598609
    23  H    4.170802   5.295969   4.165382   3.902593   3.734618
    24  H    2.150201   2.659156   2.578053   3.424246   3.534213
    25  H    3.950595   4.770185   1.094321   2.038908   3.013041
    26  H    5.008966   6.193235   2.013885   1.117950   2.238190
    27  H    4.948294   6.054870   3.179728   1.993841   1.098897
    28  H    4.120119   5.168622   4.323967   3.496944   2.020075
                   16         17         18         19         20
    16  C    0.000000
    17  H    5.825302   0.000000
    18  H    5.597630   1.766884   0.000000
    19  H    5.002093   1.763389   1.783905   0.000000
    20  H    3.077294   3.545728   2.875896   2.278534   0.000000
    21  H    3.737738   3.586344   2.437436   3.013162   1.777073
    22  H    3.811834   6.827001   6.316066   6.771056   5.161530
    23  H    3.740662   8.542816   8.100432   8.147156   6.193536
    24  H    3.496605   6.981878   5.894456   5.695455   3.519670
    25  H    3.840114   8.600655   7.792537   7.248948   5.075297
    26  H    3.511663   9.305162   8.895378   8.303224   6.185790
    27  H    2.115725   7.443944   7.372440   6.424653   4.643044
    28  H    1.100672   5.782835   5.853580   5.225233   3.646249
                   21         22         23         24         25
    21  H    0.000000
    22  H    4.244451   0.000000
    23  H    5.843794   2.442569   0.000000
    24  H    3.838439   5.177402   5.189339   0.000000
    25  H    5.766188   6.128971   5.190234   2.243010   0.000000
    26  H    6.764248   5.463637   3.635003   4.386591   2.881263
    27  H    5.694467   5.541641   4.582364   4.351875   3.524518
    28  H    4.226337   3.806209   3.787513   4.586336   4.837311
                   26         27         28
    26  H    0.000000
    27  H    2.534348   0.000000
    28  H    3.975400   2.386031   0.000000
 Stoichiometry    C13H12O3
 Framework group  C1[X(C13H12O3)]
 Deg. of freedom    78
 Full point group                 C1      NOp   1
 Largest Abelian subgroup         C1      NOp   1
 Largest concise Abelian subgroup C1      NOp   1
                         Standard orientation:                         
 ---------------------------------------------------------------------
 Center     Atomic      Atomic             Coordinates (Angstroms)
 Number     Number       Type             X           Y           Z
 ---------------------------------------------------------------------
      1          6           0       -4.756909    0.639804   -0.351487
      2          8           0       -3.584293    0.678252    0.527800
      3          6           0       -2.383860    0.253874   -0.192366
      4          6           0       -0.881603    0.343276    0.481194
      5          6           0       -0.397885   -0.902107    0.762754
      6          6           0        0.555631   -1.096618    1.822145
      7          6           0        1.821020   -0.702194    1.732917
      8          8           0        2.577572   -0.565558    0.600247
      9          6           0        2.128804   -0.447978   -0.713415
     10          6           0        0.992823   -0.867119   -1.302905
     11          6           0       -0.083561   -1.512211   -0.562398
     12          8           0       -0.825857   -2.339879   -1.135301
     13          6           0        2.837554    0.630843   -1.374621
     14          6           0        2.706429    1.721391   -0.607244
     15          6           0        1.375468    2.071706    0.054171
     16          6           0        0.118827    1.597973    0.458193
     17          1           0       -5.667308    0.993377    0.159439
     18          1           0       -4.984329   -0.367180   -0.737393
     19          1           0       -4.591202    1.309916   -1.201200
     20          1           0       -2.376855    0.776002   -1.143580
     21          1           0       -2.614523   -0.810232   -0.378489
     22          1           0        0.154561   -1.425854    2.778812
     23          1           0        2.385091   -0.442442    2.624597
     24          1           0        0.702234   -0.491522   -2.284050
     25          1           0        2.536762    0.792469   -2.414303
     26          1           0        3.600033    1.825134    0.056473
     27          1           0        1.450336    3.163665   -0.043789
     28          1           0       -0.130616    2.110308    1.399877
 ---------------------------------------------------------------------
 Rotational constants (GHZ):           0.9480735           0.3831464           0.3525654
 Standard basis: 6-31G(2df,p) (6D, 7F)
 There are   556 symmetry adapted cartesian basis functions of A   symmetry.
 There are   508 symmetry adapted basis functions of A   symmetry.
   508 basis functions,   788 primitive gaussians,   556 cartesian basis functions
    57 alpha electrons       57 beta electrons
       nuclear repulsion energy      1072.8425954039 Hartrees.
 NAtoms=   28 NActive=   28 NUniq=   28 SFac= 1.00D+00 NAtFMM=   60 NAOKFM=F Big=F
 Integral buffers will be    131072 words long.
 Raffenetti 2 integral format.
 Two-electron integral symmetry is turned on.
 One-electron integrals computed using PRISM.
 PrsmSu:  requested number of processors reduced to:  12 ShMem   1 Linda.
 NBasis=   508 RedAO= T EigKep=  4.49D-04  NBF=   508
 NBsUse=   508 1.00D-06 EigRej= -1.00D+00 NBFU=   508
 ExpMin= 1.61D-01 ExpMax= 5.48D+03 ExpMxC= 8.25D+02 IAcc=3 IRadAn=         5 AccDes= 0.00D+00
 Harris functional with IExCor=  402 and IRadAn=       5 diagonalized for initial guess.
 HarFok:  IExCor=  402 AccDes= 0.00D+00 IRadAn=         5 IDoV= 1 UseB2=F ITyADJ=14
 ICtDFT=  3500011 ScaDFX=  1.000000  1.000000  1.000000  1.000000
 FoFCou: FMM=F IPFlag=           0 FMFlag=      100000 FMFlg1=           0
         NFxFlg=           0 DoJE=T BraDBF=F KetDBF=T FulRan=T
         wScrn=  0.000000 ICntrl=       500 IOpCl=  0 I1Cent=   200000004 NGrid=           0
         NMat0=    1 NMatS0=      1 NMatT0=    0 NMatD0=    1 NMtDS0=    0 NMtDT0=    0
 Petite list used in FoFCou.
 Requested convergence on RMS density matrix=1.00D-08 within 128 cycles.
 Requested convergence on MAX density matrix=1.00D-06.
 Requested convergence on             energy=1.00D-06.
 No special actions if energy rises.
 Integral accuracy reduced to 1.0D-05 until final iterations.
 EnCoef did     3 forward-backward iterations
 EnCoef did     4 forward-backward iterations
 EnCoef did     3 forward-backward iterations
 EnCoef did     1 forward-backward iterations
 Initial convergence to 1.0D-05 achieved.  Increase integral accuracy.
 SCF Done:  E(RB3LYP) =  -727.807360784     A.U. after   25 cycles
            NFock= 25  Conv=0.45D-08     -V/T= 2.0076

 **********************************************************************

            Population analysis using the SCF density.

 **********************************************************************

 Orbital symmetries:
       Occupied  (A) (A) (A) (A) (A) (A) (A) (A) (A) (A) (A) (A)
                 (A) (A) (A) (A) (A) (A) (A) (A) (A) (A) (A) (A)
                 (A) (A) (A) (A) (A) (A) (A) (A) (A) (A) (A) (A)
                 (A) (A) (A) (A) (A) (A) (A) (A) (A) (A) (A) (A)
                 (A) (A) (A) (A) (A) (A) (A) (A) (A)
       Virtual   (A) (A) (A) (A) (A) (A) (A) (A) (A) (A) (A) (A)
                 (A) (A) (A) (A) (A) (A) (A) (A) (A) (A) (A) (A)
                 (A) (A) (A) (A) (A) (A) (A) (A) (A) (A) (A) (A)
                 (A) (A) (A) (A) (A) (A) (A) (A) (A) (A) (A) (A)
                 (A) (A) (A) (A) (A) (A) (A) (A) (A) (A) (A) (A)
                 (A) (A) (A) (A) (A) (A) (A) (A) (A) (A) (A) (A)
                 (A) (A) (A) (A) (A) (A) (A) (A) (A) (A) (A) (A)
                 (A) (A) (A) (A) (A) (A) (A) (A) (A) (A) (A) (A)
                 (A) (A) (A) (A) (A) (A) (A) (A) (A) (A) (A) (A)
                 (A) (A) (A) (A) (A) (A) (A) (A) (A) (A) (A) (A)
                 (A) (A) (A) (A) (A) (A) (A) (A) (A) (A) (A) (A)
                 (A) (A) (A) (A) (A) (A) (A) (A) (A) (A) (A) (A)
                 (A) (A) (A) (A) (A) (A) (A) (A) (A) (A) (A) (A)
                 (A) (A) (A) (A) (A) (A) (A) (A) (A) (A) (A) (A)
                 (A) (A) (A) (A) (A) (A) (A) (A) (A) (A) (A) (A)
                 (A) (A) (A) (A) (A) (A) (A) (A) (A) (A) (A) (A)
                 (A) (A) (A) (A) (A) (A) (A) (A) (A) (A) (A) (A)
                 (A) (A) (A) (A) (A) (A) (A) (A) (A) (A) (A) (A)
                 (A) (A) (A) (A) (A) (A) (A) (A) (A) (A) (A) (A)
                 (A) (A) (A) (A) (A) (A) (A) (A) (A) (A) (A) (A)
                 (A) (A) (A) (A) (A) (A) (A) (A) (A) (A) (A) (A)
                 (A) (A) (A) (A) (A) (A) (A) (A) (A) (A) (A) (A)
                 (A) (A) (A) (A) (A) (A) (A) (A) (A) (A) (A) (A)
                 (A) (A) (A) (A) (A) (A) (A) (A) (A) (A) (A) (A)
                 (A) (A) (A) (A) (A) (A) (A) (A) (A) (A) (A) (A)
                 (A) (A) (A) (A) (A) (A) (A) (A) (A) (A) (A) (A)
                 (A) (A) (A) (A) (A) (A) (A) (A) (A) (A) (A) (A)
                 (A) (A) (A) (A) (A) (A) (A) (A) (A) (A) (A) (A)
                 (A) (A) (A) (A) (A) (A) (A) (A) (A) (A) (A) (A)
                 (A) (A) (A) (A) (A) (A) (A) (A) (A) (A) (A) (A)
                 (A) (A) (A) (A) (A) (A) (A) (A) (A) (A) (A) (A)
                 (A) (A) (A) (A) (A) (A) (A) (A) (A) (A) (A) (A)
                 (A) (A) (A) (A) (A) (A) (A) (A) (A) (A) (A) (A)
                 (A) (A) (A) (A) (A) (A) (A) (A) (A) (A) (A) (A)
                 (A) (A) (A) (A) (A) (A) (A) (A) (A) (A) (A) (A)
                 (A) (A) (A) (A) (A) (A) (A) (A) (A) (A) (A) (A)
                 (A) (A) (A) (A) (A) (A) (A) (A) (A) (A) (A) (A)
                 (A) (A) (A) (A) (A) (A) (A)
 The electronic state is 1-A.
 Alpha  occ. eigenvalues --  -19.20848 -19.13878 -19.12423 -10.28773 -10.27749
 Alpha  occ. eigenvalues --  -10.25844 -10.24411 -10.24246 -10.23824 -10.23534
 Alpha  occ. eigenvalues --  -10.22846 -10.21565 -10.21336 -10.21032 -10.20414
 Alpha  occ. eigenvalues --  -10.19079  -1.09814  -1.01782  -1.00300  -0.86522
 Alpha  occ. eigenvalues --   -0.85332  -0.79821  -0.76975  -0.74285  -0.70307
 Alpha  occ. eigenvalues --   -0.68290  -0.66617  -0.63277  -0.58214  -0.57710
 Alpha  occ. eigenvalues --   -0.55083  -0.53351  -0.50660  -0.49328  -0.47760
 Alpha  occ. eigenvalues --   -0.46601  -0.46501  -0.45821  -0.44793  -0.44093
 Alpha  occ. eigenvalues --   -0.42782  -0.42707  -0.41412  -0.40736  -0.39837
 Alpha  occ. eigenvalues --   -0.37977  -0.37386  -0.36278  -0.34877  -0.31260
 Alpha  occ. eigenvalues --   -0.29385  -0.27102  -0.25743  -0.25153  -0.24239
 Alpha  occ. eigenvalues --   -0.19989  -0.18357
 Alpha virt. eigenvalues --   -0.13718  -0.09644  -0.03348  -0.02875  -0.00152
 Alpha virt. eigenvalues --    0.04480   0.08001   0.09473   0.10260   0.10862
 Alpha virt. eigenvalues --    0.11806   0.12863   0.13739   0.14272   0.15458
 Alpha virt. eigenvalues --    0.16016   0.16601   0.17641   0.18402   0.18642
 Alpha virt. eigenvalues --    0.19870   0.21183   0.22268   0.22376   0.25136
 Alpha virt. eigenvalues --    0.27855   0.29664   0.30712   0.32714   0.33931
 Alpha virt. eigenvalues --    0.36078   0.37783   0.38622   0.39288   0.40000
 Alpha virt. eigenvalues --    0.41051   0.42465   0.43016   0.43875   0.44339
 Alpha virt. eigenvalues --    0.45799   0.46040   0.47463   0.48063   0.48322
 Alpha virt. eigenvalues --    0.49065   0.50663   0.51065   0.52180   0.53003
 Alpha virt. eigenvalues --    0.53292   0.53885   0.54239   0.57205   0.57476
 Alpha virt. eigenvalues --    0.58612   0.59252   0.60087   0.61176   0.61786
 Alpha virt. eigenvalues --    0.64185   0.64604   0.66252   0.66920   0.67253
 Alpha virt. eigenvalues --    0.67992   0.69161   0.69616   0.70299   0.71244
 Alpha virt. eigenvalues --    0.71972   0.72348   0.73277   0.73690   0.74397
 Alpha virt. eigenvalues --    0.74936   0.75417   0.75619   0.76603   0.77281
 Alpha virt. eigenvalues --    0.77717   0.78134   0.79017   0.80190   0.81034
 Alpha virt. eigenvalues --    0.82229   0.82558   0.83674   0.84114   0.85261
 Alpha virt. eigenvalues --    0.86092   0.87033   0.88165   0.89728   0.90569
 Alpha virt. eigenvalues --    0.92474   0.93661   0.95099   0.95579   0.95793
 Alpha virt. eigenvalues --    0.97304   0.97943   0.99645   1.01276   1.02193
 Alpha virt. eigenvalues --    1.02678   1.03327   1.04338   1.06826   1.07907
 Alpha virt. eigenvalues --    1.08788   1.10715   1.11890   1.12840   1.15207
 Alpha virt. eigenvalues --    1.15394   1.17212   1.18570   1.21612   1.22219
 Alpha virt. eigenvalues --    1.23190   1.25023   1.25752   1.27193   1.29597
 Alpha virt. eigenvalues --    1.30166   1.31232   1.32773   1.33637   1.34828
 Alpha virt. eigenvalues --    1.35740   1.37622   1.38093   1.38679   1.40196
 Alpha virt. eigenvalues --    1.41290   1.41468   1.43095   1.45026   1.45365
 Alpha virt. eigenvalues --    1.46413   1.48731   1.48848   1.50089   1.51074
 Alpha virt. eigenvalues --    1.51392   1.53047   1.54511   1.55727   1.56720
 Alpha virt. eigenvalues --    1.58673   1.59626   1.60895   1.61408   1.63158
 Alpha virt. eigenvalues --    1.64525   1.65097   1.66607   1.69048   1.71035
 Alpha virt. eigenvalues --    1.71102   1.74584   1.75163   1.77025   1.77279
 Alpha virt. eigenvalues --    1.78785   1.79974   1.80663   1.81304   1.82870
 Alpha virt. eigenvalues --    1.84666   1.87104   1.88879   1.89832   1.92093
 Alpha virt. eigenvalues --    1.94014   1.94355   1.96941   1.98260   2.02189
 Alpha virt. eigenvalues --    2.03090   2.04136   2.05335   2.07210   2.09384
 Alpha virt. eigenvalues --    2.11540   2.12820   2.15178   2.16885   2.18302
 Alpha virt. eigenvalues --    2.20379   2.21131   2.24756   2.26006   2.27365
 Alpha virt. eigenvalues --    2.28518   2.31628   2.33393   2.34505   2.35215
 Alpha virt. eigenvalues --    2.37387   2.41804   2.43996   2.45541   2.47088
 Alpha virt. eigenvalues --    2.47359   2.49913   2.53324   2.55278   2.57884
 Alpha virt. eigenvalues --    2.60032   2.63325   2.63674   2.65128   2.69629
 Alpha virt. eigenvalues --    2.71595   2.72108   2.73986   2.76205   2.78012
 Alpha virt. eigenvalues --    2.79894   2.80900   2.81992   2.82666   2.83792
 Alpha virt. eigenvalues --    2.85630   2.86353   2.87320   2.88944   2.90228
 Alpha virt. eigenvalues --    2.90899   2.92509   2.93844   2.94928   2.96671
 Alpha virt. eigenvalues --    2.97884   2.99135   3.01179   3.01447   3.02909
 Alpha virt. eigenvalues --    3.04810   3.05209   3.07590   3.09034   3.09533
 Alpha virt. eigenvalues --    3.10208   3.11458   3.12808   3.14505   3.15411
 Alpha virt. eigenvalues --    3.16292   3.17933   3.18409   3.19847   3.20354
 Alpha virt. eigenvalues --    3.21902   3.22570   3.23966   3.25332   3.26873
 Alpha virt. eigenvalues --    3.27968   3.30897   3.32197   3.32336   3.33011
 Alpha virt. eigenvalues --    3.33557   3.35974   3.36812   3.38483   3.39888
 Alpha virt. eigenvalues --    3.40623   3.41148   3.42928   3.44014   3.45828
 Alpha virt. eigenvalues --    3.46057   3.48149   3.50653   3.51368   3.52489
 Alpha virt. eigenvalues --    3.53813   3.54765   3.57158   3.58051   3.59971
 Alpha virt. eigenvalues --    3.61768   3.62241   3.62970   3.65191   3.65796
 Alpha virt. eigenvalues --    3.67798   3.68302   3.69368   3.70726   3.74368
 Alpha virt. eigenvalues --    3.75216   3.77147   3.81553   3.82253   3.83944
 Alpha virt. eigenvalues --    3.84809   3.85378   3.87992   3.89471   3.90141
 Alpha virt. eigenvalues --    3.94226   3.96816   3.97981   4.00138   4.01729
 Alpha virt. eigenvalues --    4.03842   4.10580   4.11074   4.13533   4.14971
 Alpha virt. eigenvalues --    4.17406   4.17753   4.18853   4.21504   4.23668
 Alpha virt. eigenvalues --    4.24067   4.25546   4.27177   4.28830   4.31202
 Alpha virt. eigenvalues --    4.32583   4.34209   4.35009   4.35169   4.36333
 Alpha virt. eigenvalues --    4.37664   4.38848   4.40637   4.41425   4.42818
 Alpha virt. eigenvalues --    4.44082   4.44591   4.45846   4.46733   4.48077
 Alpha virt. eigenvalues --    4.48394   4.49450   4.50180   4.51233   4.52303
 Alpha virt. eigenvalues --    4.53505   4.54686   4.55858   4.58319   4.59439
 Alpha virt. eigenvalues --    4.60444   4.62356   4.62781   4.65528   4.65954
 Alpha virt. eigenvalues --    4.67052   4.70159   4.70884   4.71313   4.72207
 Alpha virt. eigenvalues --    4.72732   4.73610   4.74200   4.75076   4.76347
 Alpha virt. eigenvalues --    4.79248   4.79773   4.81671   4.83232   4.84714
 Alpha virt. eigenvalues --    4.86212   4.86972   4.87531   4.88364   4.90991
 Alpha virt. eigenvalues --    4.91836   4.95143   4.96475   4.97221   4.99413
 Alpha virt. eigenvalues --    5.00665   5.04973   5.06149   5.06908   5.07879
 Alpha virt. eigenvalues --    5.09266   5.11032   5.12529   5.13229   5.14819
 Alpha virt. eigenvalues --    5.16420   5.19208   5.21495   5.25043   5.26349
 Alpha virt. eigenvalues --    5.29113   5.29745   5.32088   5.33513   5.35313
 Alpha virt. eigenvalues --    5.36225   5.37267   5.43503   5.47021   5.48341
 Alpha virt. eigenvalues --    5.49005   5.51041   5.55513   5.59374   5.59867
 Alpha virt. eigenvalues --    5.65704   5.67568   5.73149   5.74570   5.78156
 Alpha virt. eigenvalues --    5.79925   5.83501   5.84529   5.89233   5.92282
 Alpha virt. eigenvalues --    5.96244   5.96788   6.01298   6.04287   6.09062
 Alpha virt. eigenvalues --    6.13846   6.18581   6.30482   6.41387   6.41958
 Alpha virt. eigenvalues --    6.55183   6.81838   6.89905   6.99578   7.35833
 Alpha virt. eigenvalues --   10.41511  10.61210  10.78189  10.90923  11.19375
 Alpha virt. eigenvalues --   11.40118  11.63340  11.79100  11.88896  12.10920
 Alpha virt. eigenvalues --   12.15511  12.21015  12.45632  13.22263  13.38148
 Alpha virt. eigenvalues --   13.74402
          Condensed to atoms (all electrons):
               1          2          3          4          5          6
     1  C    4.840226   0.355617  -0.072885   0.002306  -0.000023   0.000003
     2  O    0.355617   7.770556   0.324987  -0.011538  -0.001146  -0.000066
     3  C   -0.072885   0.324987   4.868123   0.395661  -0.036935   0.003948
     4  C    0.002306  -0.011538   0.395661   4.888666   0.541289  -0.033936
     5  C   -0.000023  -0.001146  -0.036935   0.541289   5.061344   0.403082
     6  C    0.000003  -0.000066   0.003948  -0.033936   0.403082   5.028773
     7  C    0.000000  -0.000001   0.000207  -0.007646  -0.032565   0.587828
     8  O   -0.000000   0.000000  -0.000008   0.000608  -0.012357  -0.028451
     9  C    0.000000  -0.000000  -0.000104  -0.008355  -0.006472  -0.006696
    10  C    0.000002  -0.000005   0.001611  -0.008582  -0.070665   0.001209
    11  C   -0.000006   0.000082  -0.010111  -0.044268   0.310371  -0.030866
    12  O    0.000008   0.000053  -0.004421  -0.001695  -0.063763  -0.000205
    13  C   -0.000000  -0.000000  -0.000050  -0.000031  -0.000456   0.000532
    14  C   -0.000000   0.000000   0.000036  -0.000153   0.001527   0.000747
    15  C   -0.000000   0.000007  -0.000031  -0.016930  -0.010798  -0.000843
    16  C   -0.000001   0.000167  -0.033823   0.366019  -0.057449  -0.010489
    17  H    0.383876  -0.014606   0.003534  -0.000075   0.000001  -0.000000
    18  H    0.366718  -0.029726  -0.000740  -0.000017   0.000029   0.000001
    19  H    0.368506  -0.030838  -0.006953   0.000108  -0.000010  -0.000000
    20  H   -0.007637  -0.038831   0.323171  -0.034412  -0.000034  -0.000306
    21  H   -0.001592  -0.035412   0.340534  -0.024470   0.002099   0.000808
    22  H   -0.000000   0.000003  -0.000117  -0.003036  -0.034429   0.366076
    23  H   -0.000000   0.000000   0.000005  -0.000043   0.003327  -0.051355
    24  H   -0.000000   0.000000  -0.000065   0.002796   0.002830   0.000166
    25  H   -0.000000   0.000000  -0.000002   0.000053   0.000027  -0.000006
    26  H   -0.000000  -0.000000  -0.000000   0.000003  -0.000028   0.000108
    27  H    0.000000   0.000000  -0.000065   0.002834  -0.000069   0.000016
    28  H   -0.000004   0.000098   0.001681  -0.050022   0.005311   0.001822
               7          8          9         10         11         12
     1  C    0.000000  -0.000000   0.000000   0.000002  -0.000006   0.000008
     2  O   -0.000001   0.000000  -0.000000  -0.000005   0.000082   0.000053
     3  C    0.000207  -0.000008  -0.000104   0.001611  -0.010111  -0.004421
     4  C   -0.007646   0.000608  -0.008355  -0.008582  -0.044268  -0.001695
     5  C   -0.032565  -0.012357  -0.006472  -0.070665   0.310371  -0.063763
     6  C    0.587828  -0.028451  -0.006696   0.001209  -0.030866  -0.000205
     7  C    4.700968   0.395029  -0.062043  -0.003192   0.002617  -0.000008
     8  O    0.395029   7.635528   0.354603  -0.018679  -0.000935   0.000040
     9  C   -0.062043   0.354603   4.798899   0.405268   0.004485   0.000876
    10  C   -0.003192  -0.018679   0.405268   5.307522   0.367117  -0.037963
    11  C    0.002617  -0.000935   0.004485   0.367117   4.402220   0.663634
    12  O   -0.000008   0.000040   0.000876  -0.037963   0.663634   7.802627
    13  C    0.001418  -0.038111   0.356024  -0.037891   0.003753  -0.000098
    14  C    0.001089   0.000497  -0.099444  -0.023066   0.000398  -0.000007
    15  C    0.003863  -0.005930   0.023908   0.006703   0.000891  -0.000010
    16  C    0.010995  -0.003629   0.013920   0.001020   0.003555   0.000084
    17  H   -0.000000   0.000000   0.000000  -0.000000  -0.000000   0.000000
    18  H    0.000000   0.000000  -0.000000  -0.000000   0.000006  -0.000015
    19  H    0.000000  -0.000000   0.000000  -0.000000   0.000010  -0.000000
    20  H    0.000003   0.000001   0.000068   0.000138   0.002304   0.000093
    21  H    0.000020  -0.000000  -0.000026   0.000615  -0.000299   0.015743
    22  H   -0.031177   0.002405  -0.000342   0.000141   0.000751  -0.000040
    23  H    0.373988  -0.031686   0.003449  -0.000127  -0.000207   0.000001
    24  H   -0.000244   0.001653  -0.036625   0.370881  -0.020813  -0.004929
    25  H   -0.000123   0.002373  -0.065988  -0.002731   0.000821  -0.000011
    26  H   -0.000427   0.003611  -0.011771   0.000637   0.000026  -0.000000
    27  H    0.000008   0.000105   0.000276   0.000112  -0.000018   0.000000
    28  H   -0.001377   0.000104  -0.000253   0.000430   0.000038  -0.000000
              13         14         15         16         17         18
     1  C   -0.000000  -0.000000  -0.000000  -0.000001   0.383876   0.366718
     2  O   -0.000000   0.000000   0.000007   0.000167  -0.014606  -0.029726
     3  C   -0.000050   0.000036  -0.000031  -0.033823   0.003534  -0.000740
     4  C   -0.000031  -0.000153  -0.016930   0.366019  -0.000075  -0.000017
     5  C   -0.000456   0.001527  -0.010798  -0.057449   0.000001   0.000029
     6  C    0.000532   0.000747  -0.000843  -0.010489  -0.000000   0.000001
     7  C    0.001418   0.001089   0.003863   0.010995  -0.000000   0.000000
     8  O   -0.038111   0.000497  -0.005930  -0.003629   0.000000   0.000000
     9  C    0.356024  -0.099444   0.023908   0.013920   0.000000  -0.000000
    10  C   -0.037891  -0.023066   0.006703   0.001020  -0.000000  -0.000000
    11  C    0.003753   0.000398   0.000891   0.003555  -0.000000   0.000006
    12  O   -0.000098  -0.000007  -0.000010   0.000084   0.000000  -0.000015
    13  C    5.129374   0.508468  -0.066076  -0.019643   0.000000   0.000000
    14  C    0.508468   5.162557   0.419306  -0.032199   0.000000  -0.000000
    15  C   -0.066076   0.419306   4.859376   0.585549   0.000000   0.000000
    16  C   -0.019643  -0.032199   0.585549   5.049603   0.000001   0.000004
    17  H    0.000000   0.000000   0.000000   0.000001   0.567184  -0.039353
    18  H    0.000000  -0.000000   0.000000   0.000004  -0.039353   0.624182
    19  H   -0.000000  -0.000000  -0.000001  -0.000015  -0.035698  -0.047426
    20  H    0.000008  -0.000015   0.000346   0.001629  -0.000012  -0.002423
    21  H    0.000007   0.000002   0.000041   0.003400  -0.000182   0.009574
    22  H   -0.000000   0.000002  -0.000008   0.000160   0.000000   0.000000
    23  H   -0.000212   0.000349   0.000339  -0.000843  -0.000000   0.000000
    24  H   -0.002027   0.000197  -0.000752   0.000106   0.000000   0.000000
    25  H    0.378127  -0.064131  -0.012033  -0.000053   0.000000   0.000000
    26  H   -0.043311   0.349361  -0.046651  -0.001536   0.000000   0.000000
    27  H    0.006626  -0.068331   0.368316  -0.039455   0.000000   0.000000
    28  H   -0.000002   0.003764  -0.044196   0.349371  -0.000000   0.000000
              19         20         21         22         23         24
     1  C    0.368506  -0.007637  -0.001592  -0.000000  -0.000000  -0.000000
     2  O   -0.030838  -0.038831  -0.035412   0.000003   0.000000   0.000000
     3  C   -0.006953   0.323171   0.340534  -0.000117   0.000005  -0.000065
     4  C    0.000108  -0.034412  -0.024470  -0.003036  -0.000043   0.002796
     5  C   -0.000010  -0.000034   0.002099  -0.034429   0.003327   0.002830
     6  C   -0.000000  -0.000306   0.000808   0.366076  -0.051355   0.000166
     7  C    0.000000   0.000003   0.000020  -0.031177   0.373988  -0.000244
     8  O   -0.000000   0.000001  -0.000000   0.002405  -0.031686   0.001653
     9  C    0.000000   0.000068  -0.000026  -0.000342   0.003449  -0.036625
    10  C   -0.000000   0.000138   0.000615   0.000141  -0.000127   0.370881
    11  C    0.000010   0.002304  -0.000299   0.000751  -0.000207  -0.020813
    12  O   -0.000000   0.000093   0.015743  -0.000040   0.000001  -0.004929
    13  C   -0.000000   0.000008   0.000007  -0.000000  -0.000212  -0.002027
    14  C   -0.000000  -0.000015   0.000002   0.000002   0.000349   0.000197
    15  C   -0.000001   0.000346   0.000041  -0.000008   0.000339  -0.000752
    16  C   -0.000015   0.001629   0.003400   0.000160  -0.000843   0.000106
    17  H   -0.035698  -0.000012  -0.000182   0.000000  -0.000000   0.000000
    18  H   -0.047426  -0.002423   0.009574   0.000000   0.000000   0.000000
    19  H    0.623143   0.015879  -0.001762  -0.000000  -0.000000   0.000000
    20  H    0.015879   0.689768  -0.042053  -0.000004  -0.000000   0.000057
    21  H   -0.001762  -0.042053   0.595473  -0.000040  -0.000000  -0.000056
    22  H   -0.000000  -0.000004  -0.000040   0.576024  -0.004338   0.000003
    23  H   -0.000000  -0.000000  -0.000000  -0.004338   0.575236   0.000005
    24  H    0.000000   0.000057  -0.000056   0.000003   0.000005   0.536364
    25  H   -0.000000   0.000001   0.000001  -0.000000   0.000008   0.003224
    26  H   -0.000000   0.000000   0.000000  -0.000002   0.000027  -0.000010
    27  H   -0.000000   0.000002   0.000001   0.000001  -0.000005   0.000027
    28  H    0.000000  -0.000212  -0.000136   0.000146   0.000146  -0.000006
              25         26         27         28
     1  C   -0.000000  -0.000000   0.000000  -0.000004
     2  O    0.000000  -0.000000   0.000000   0.000098
     3  C   -0.000002  -0.000000  -0.000065   0.001681
     4  C    0.000053   0.000003   0.002834  -0.050022
     5  C    0.000027  -0.000028  -0.000069   0.005311
     6  C   -0.000006   0.000108   0.000016   0.001822
     7  C   -0.000123  -0.000427   0.000008  -0.001377
     8  O    0.002373   0.003611   0.000105   0.000104
     9  C   -0.065988  -0.011771   0.000276  -0.000253
    10  C   -0.002731   0.000637   0.000112   0.000430
    11  C    0.000821   0.000026  -0.000018   0.000038
    12  O   -0.000011  -0.000000   0.000000  -0.000000
    13  C    0.378127  -0.043311   0.006626  -0.000002
    14  C   -0.064131   0.349361  -0.068331   0.003764
    15  C   -0.012033  -0.046651   0.368316  -0.044196
    16  C   -0.000053  -0.001536  -0.039455   0.349371
    17  H    0.000000   0.000000   0.000000  -0.000000
    18  H    0.000000   0.000000   0.000000   0.000000
    19  H   -0.000000  -0.000000  -0.000000   0.000000
    20  H    0.000001   0.000000   0.000002  -0.000212
    21  H    0.000001   0.000000   0.000001  -0.000136
    22  H   -0.000000  -0.000002   0.000001   0.000146
    23  H    0.000008   0.000027  -0.000005   0.000146
    24  H    0.003224  -0.000010   0.000027  -0.000006
    25  H    0.637831   0.008424  -0.000114  -0.000011
    26  H    0.008424   0.607299  -0.000326  -0.000220
    27  H   -0.000114  -0.000326   0.599835  -0.010973
    28  H   -0.000011  -0.000220  -0.010973   0.594822
 Mulliken charges:
               1
     1  C   -0.235113
     2  O   -0.289402
     3  C   -0.097189
     4  C    0.044866
     5  C   -0.004039
     6  C   -0.231900
     7  C    0.060771
     8  O   -0.256772
     9  C    0.336343
    10  C   -0.260505
    11  C    0.344443
    12  O   -0.369993
    13  C   -0.176430
    14  C   -0.160954
    15  C   -0.064387
    16  C   -0.186450
    17  H    0.135328
    18  H    0.119186
    19  H    0.115057
    20  H    0.092473
    21  H    0.137711
    22  H    0.127826
    23  H    0.131935
    24  H    0.147217
    25  H    0.114315
    26  H    0.134786
    27  H    0.141195
    28  H    0.149681
 Sum of Mulliken charges =  -0.00000
 Mulliken charges with hydrogens summed into heavy atoms:
               1
     1  C    0.134459
     2  O   -0.289402
     3  C    0.132996
     4  C    0.044866
     5  C   -0.004039
     6  C   -0.104074
     7  C    0.192706
     8  O   -0.256772
     9  C    0.336343
    10  C   -0.113288
    11  C    0.344443
    12  O   -0.369993
    13  C   -0.062114
    14  C   -0.026168
    15  C    0.076808
    16  C   -0.036770
 Electronic spatial extent (au):  <R**2>=           3446.9098
 Charge=             -0.0000 electrons
 Dipole moment (field-independent basis, Debye):
    X=              1.2442    Y=              2.7669    Z=              0.4438  Tot=              3.0660
 Quadrupole moment (field-independent basis, Debye-Ang):
   XX=            -87.4016   YY=            -98.7404   ZZ=            -87.4873
   XY=              0.2711   XZ=              4.5912   YZ=             -5.7023
 Traceless Quadrupole moment (field-independent basis, Debye-Ang):
   XX=              3.8082   YY=             -7.5307   ZZ=              3.7225
   XY=              0.2711   XZ=              4.5912   YZ=             -5.7023
 Octapole moment (field-independent basis, Debye-Ang**2):
  XXX=            -60.0532  YYY=             15.9616  ZZZ=             10.2471  XYY=              4.8470
  XXY=              7.7286  XXZ=            -13.0442  XZZ=              7.6160  YZZ=             -0.9010
  YYZ=             13.1225  XYZ=              6.8656
 Hexadecapole moment (field-independent basis, Debye-Ang**3):
 XXXX=          -2657.4477 YYYY=           -949.8087 ZZZZ=           -603.3553 XXXY=            -15.6884
 XXXZ=             95.3575 YYYX=            -17.3264 YYYZ=            -13.8203 ZZZX=             20.5288
 ZZZY=            -14.0389 XXYY=           -652.9466 XXZZ=           -603.5984 YYZZ=           -276.7896
 XXYZ=             -7.1343 YYXZ=             -2.8401 ZZXY=             -9.0916
 N-N= 1.072842595404D+03 E-N=-3.841309612053D+03  KE= 7.223144637798D+02
 PrsmSu:  requested number of processors reduced to:  13 ShMem   1 Linda.
 Calling FoFJK, ICntrl=      2127 FMM=F ISym2X=0 I1Cent= 0 IOpClX= 0 NMat=1 NMatS=1 NMatT=0.
 ***** Axes restored to original set *****
 -------------------------------------------------------------------
 Center     Atomic                   Forces (Hartrees/Bohr)
 Number     Number              X              Y              Z
 -------------------------------------------------------------------
      1        6           0.017773262   -0.001795077    0.009616839
      2        8          -0.002452187   -0.006741474    0.002419998
      3        6          -0.002134669    0.000310460    0.007308734
      4        6          -0.033643737   -0.023487029   -0.000393158
      5        6           0.008133796    0.009011034    0.027200539
      6        6           0.013981084   -0.014584438    0.006879589
      7        6           0.010666708    0.012299684    0.000791240
      8        8          -0.008596123    0.000375885   -0.002814937
      9        6           0.039586458    0.000786559    0.035194835
     10        6           0.012478479    0.009722453   -0.012931782
     11        6          -0.070867997    0.072768408   -0.047902768
     12        8           0.023161989   -0.027576048    0.018467042
     13        6          -0.058025910    0.058951781    0.000290749
     14        6           0.043589137   -0.043504761   -0.035513126
     15        6          -0.032702025   -0.027891168    0.055641804
     16        6           0.017655463    0.007210228   -0.051580929
     17        1           0.013953230    0.000108622    0.003488545
     18        1           0.005480930    0.000312973    0.002914864
     19        1          -0.002531426    0.000930785    0.002733603
     20        1          -0.006485613   -0.004018322    0.007483399
     21        1           0.011113963    0.001225136    0.015788441
     22        1           0.000485550   -0.009768005    0.001253313
     23        1           0.004221381    0.011653847    0.007322868
     24        1           0.006893588    0.010158004    0.001898242
     25        1          -0.008814421    0.009641589   -0.011216173
     26        1          -0.007480662   -0.014887511   -0.022895938
     27        1           0.022754828   -0.012092508   -0.033362245
     28        1          -0.018195075   -0.019121107    0.011916416
 -------------------------------------------------------------------
 Cartesian Forces:  Max     0.072768408 RMS     0.023442054

 GradGradGradGradGradGradGradGradGradGradGradGradGradGradGradGradGradGrad
 Berny optimization.
 FormGI is forming the generalized inverse of G from B-inverse, IUseBI=4.
 Internal  Forces:  Max     0.104732462 RMS     0.019388302
 Search for a local minimum.
 Step number   1 out of a maximum of  146
 All quantities printed in internal units (Hartrees-Bohrs-Radians)
 Mixed Optimization -- RFO/linear search
 Second derivative matrix not updated -- first step.
 ITU=  0
     Eigenvalues ---    0.00230   0.00700   0.00816   0.00861   0.01010
     Eigenvalues ---    0.01185   0.01385   0.01433   0.01602   0.01941
     Eigenvalues ---    0.02211   0.02271   0.02361   0.02433   0.02674
     Eigenvalues ---    0.02794   0.02835   0.03453   0.04562   0.04657
     Eigenvalues ---    0.05739   0.06879   0.08020   0.09525   0.09976
     Eigenvalues ---    0.10304   0.11116   0.12757   0.13502   0.14666
     Eigenvalues ---    0.15337   0.15400   0.15741   0.15821   0.16000
     Eigenvalues ---    0.16000   0.16000   0.16000   0.17357   0.19775
     Eigenvalues ---    0.20357   0.20706   0.21891   0.22254   0.22640
     Eigenvalues ---    0.22881   0.23059   0.23434   0.24241   0.24408
     Eigenvalues ---    0.25000   0.29011   0.31773   0.32110   0.33177
     Eigenvalues ---    0.33438   0.33449   0.33608   0.33804   0.34267
     Eigenvalues ---    0.34318   0.34809   0.35006   0.35206   0.35383
     Eigenvalues ---    0.35669   0.36203   0.36616   0.37201   0.38482
     Eigenvalues ---    0.43657   0.45268   0.48621   0.50659   0.52894
     Eigenvalues ---    0.56258   0.58057   0.82978
 RFO step:  Lambda=-1.46508040D-01 EMin= 2.30000000D-03
 Linear search not attempted -- first point.
 Maximum step size (   0.300) exceeded in Quadratic search.
    -- Step size scaled by   0.622
 Iteration  1 RMS(Cart)=  0.11134613 RMS(Int)=  0.00203932
 Iteration  2 RMS(Cart)=  0.00368192 RMS(Int)=  0.00047346
 Iteration  3 RMS(Cart)=  0.00000588 RMS(Int)=  0.00047345
 Iteration  4 RMS(Cart)=  0.00000000 RMS(Int)=  0.00047345
 Variable       Old X    -DE/DX   Delta X   Delta X   Delta X     New X
                                 (Linear)    (Quad)   (Total)
    R1        2.77066  -0.03757   0.00000  -0.04598  -0.04598   2.72468
    R2        2.08289  -0.00659   0.00000  -0.00853  -0.00853   2.07436
    R3        2.08270  -0.00172   0.00000  -0.00223  -0.00223   2.08047
    R4        2.06882   0.00301   0.00000   0.00383   0.00383   2.07265
    R5        2.76429  -0.02212   0.00000  -0.02685  -0.02685   2.73744
    R6        3.11573  -0.05325   0.00000  -0.09373  -0.09373   3.02200
    R7        2.05057   0.01059   0.00000   0.01317   0.01317   2.06374
    R8        2.08742  -0.00478   0.00000  -0.00621  -0.00621   2.08120
    R9        2.58018   0.04645   0.00000   0.04457   0.04487   2.62504
   R10        3.03279  -0.02405   0.00000  -0.04675  -0.04695   2.98584
   R11        2.71841   0.02769   0.00000   0.03364   0.03349   2.75190
   R12        2.82010   0.02270   0.00000   0.02585   0.02621   2.84631
   R13        2.51038   0.00178   0.00000   0.00172   0.00158   2.51196
   R14        2.05665  -0.00147   0.00000  -0.00184  -0.00184   2.05481
   R15        2.58691  -0.01349   0.00000  -0.01363  -0.01376   2.57315
   R16        2.05341  -0.00118   0.00000  -0.00147  -0.00147   2.05194
   R17        2.63271  -0.01180   0.00000  -0.01371  -0.01366   2.61905
   R18        2.54491   0.00829   0.00000   0.01264   0.01310   2.55802
   R19        2.74067  -0.01360   0.00000  -0.01383  -0.01372   2.72695
   R20        2.75349  -0.00309   0.00000   0.00003   0.00041   2.75390
   R21        2.05985  -0.00664   0.00000  -0.00835  -0.00835   2.05150
   R22        2.36348  -0.03967   0.00000  -0.02529  -0.02529   2.33819
   R23        2.53206   0.10473   0.00000   0.09365   0.09352   2.62558
   R24        2.06797   0.00324   0.00000   0.00412   0.00412   2.07209
   R25        2.88556  -0.01201   0.00000  -0.02005  -0.02052   2.86505
   R26        2.11262  -0.00989   0.00000  -0.01326  -0.01326   2.09936
   R27        2.65020  -0.01132   0.00000  -0.01597  -0.01638   2.63383
   R28        2.07661  -0.00258   0.00000  -0.00331  -0.00331   2.07330
   R29        2.07997  -0.00208   0.00000  -0.00269  -0.00269   2.07728
    A1        1.95432  -0.01777   0.00000  -0.03661  -0.03673   1.91759
    A2        1.98121  -0.00585   0.00000  -0.01228  -0.01242   1.96879
    A3        1.90537   0.00679   0.00000   0.01471   0.01475   1.92012
    A4        1.85977   0.00937   0.00000   0.01739   0.01712   1.87689
    A5        1.86340   0.00710   0.00000   0.01519   0.01526   1.87867
    A6        1.89519   0.00150   0.00000   0.00398   0.00399   1.89917
    A7        1.93208  -0.01177   0.00000  -0.01847  -0.01847   1.91361
    A8        2.13041  -0.04771   0.00000  -0.08115  -0.08122   2.04919
    A9        1.87263   0.01444   0.00000   0.02221   0.02177   1.89440
   A10        1.76304   0.03085   0.00000   0.06116   0.06043   1.82347
   A11        1.90301   0.01379   0.00000   0.02083   0.02086   1.92388
   A12        1.88739  -0.00671   0.00000  -0.01891  -0.01837   1.86901
   A13        1.89354  -0.00100   0.00000   0.00372   0.00315   1.89669
   A14        1.93647   0.00595   0.00000   0.01452   0.01433   1.95080
   A15        2.21994  -0.04178   0.00000  -0.06871  -0.06935   2.15059
   A16        2.08887   0.03666   0.00000   0.05845   0.05936   2.14823
   A17        2.10602  -0.02153   0.00000  -0.01816  -0.01909   2.08693
   A18        1.83838   0.03255   0.00000   0.05805   0.05857   1.89696
   A19        2.04772  -0.00034   0.00000  -0.00201  -0.00254   2.04518
   A20        2.14334   0.00463   0.00000   0.01529   0.01472   2.15806
   A21        2.03084   0.00102   0.00000  -0.00075  -0.00052   2.03031
   A22        2.09427  -0.00542   0.00000  -0.01263  -0.01236   2.08191
   A23        2.22893  -0.00393   0.00000  -0.00956  -0.01038   2.21855
   A24        2.10636   0.01008   0.00000   0.02125   0.02153   2.12789
   A25        1.94790  -0.00614   0.00000  -0.01166  -0.01139   1.93651
   A26        2.22760  -0.00476   0.00000  -0.01383  -0.01416   2.21344
   A27        2.28921   0.00823   0.00000   0.01083   0.01001   2.29923
   A28        1.91267   0.00518   0.00000   0.00640   0.00659   1.91926
   A29        2.03105  -0.01631   0.00000  -0.02685  -0.02654   2.00451
   A30        2.13941   0.01669   0.00000   0.02989   0.02956   2.16897
   A31        2.10788  -0.00862   0.00000  -0.01697  -0.01671   2.09117
   A32        1.99661  -0.00993   0.00000  -0.02034  -0.02043   1.97618
   A33        2.01072  -0.03573   0.00000  -0.06826  -0.06784   1.94288
   A34        2.15590   0.02673   0.00000   0.04689   0.04637   2.20227
   A35        2.09281   0.00787   0.00000   0.01799   0.01806   2.11087
   A36        1.87182   0.01586   0.00000   0.04603   0.04621   1.91803
   A37        1.99181  -0.00130   0.00000  -0.00968  -0.01067   1.98114
   A38        1.97905   0.00003   0.00000   0.01056   0.01007   1.98912
   A39        2.11776   0.01900   0.00000   0.03911   0.03846   2.15622
   A40        1.91486   0.00756   0.00000   0.02827   0.02872   1.94358
   A41        2.00233  -0.01871   0.00000  -0.04298  -0.04343   1.95891
   A42        2.54689  -0.03250   0.00000  -0.06631  -0.06678   2.48011
   A43        1.70114   0.04230   0.00000   0.08642   0.08663   1.78777
   A44        2.00688  -0.00856   0.00000  -0.01308  -0.01276   1.99411
   A45        2.54416  -0.01511   0.00000  -0.04290  -0.04291   2.50125
   A46        1.78275   0.02047   0.00000   0.04756   0.04762   1.83037
   A47        1.86744  -0.00290   0.00000   0.00659   0.00691   1.87435
    D1       -3.10284  -0.00277   0.00000  -0.00748  -0.00720  -3.11004
    D2        1.07356   0.00245   0.00000   0.00596   0.00574   1.07930
    D3       -1.04323  -0.00043   0.00000  -0.00149  -0.00155  -1.04477
    D4        3.02627   0.00184   0.00000   0.00246   0.00322   3.02949
    D5        0.81435   0.00793   0.00000   0.01904   0.01975   0.83410
    D6       -1.16690  -0.00908   0.00000  -0.01874  -0.02022  -1.18712
    D7        1.91089  -0.00254   0.00000  -0.00713  -0.00672   1.90417
    D8       -1.52767   0.00837   0.00000   0.02164   0.02187  -1.50580
    D9       -2.17392  -0.00916   0.00000  -0.02456  -0.02433  -2.19824
   D10        0.67070   0.00174   0.00000   0.00421   0.00427   0.67498
   D11       -0.11825  -0.00652   0.00000  -0.01926  -0.01964  -0.13789
   D12        2.72637   0.00439   0.00000   0.00951   0.00896   2.73533
   D13       -2.66859  -0.02127   0.00000  -0.04775  -0.04678  -2.71537
   D14        1.24582  -0.03600   0.00000  -0.09211  -0.09139   1.15443
   D15        0.74464  -0.01655   0.00000  -0.05013  -0.05047   0.69417
   D16       -1.62413  -0.03128   0.00000  -0.09449  -0.09509  -1.71921
   D17       -2.07696  -0.00170   0.00000   0.01434   0.01498  -2.06198
   D18        1.62358  -0.01433   0.00000  -0.03725  -0.03668   1.58690
   D19        0.74465   0.00394   0.00000   0.03630   0.03666   0.78131
   D20       -1.83800  -0.00869   0.00000  -0.01529  -0.01500  -1.85299
   D21       -1.25647  -0.01251   0.00000  -0.04284  -0.04298  -1.29946
   D22        1.70116  -0.01165   0.00000  -0.03248  -0.03256   1.66860
   D23        1.02505   0.01561   0.00000   0.02971   0.02942   1.05447
   D24       -2.30050   0.01647   0.00000   0.04006   0.03984  -2.26066
   D25        1.14614  -0.00323   0.00000   0.00792   0.00924   1.15538
   D26       -1.76208   0.00188   0.00000   0.02310   0.02444  -1.73765
   D27       -1.25319  -0.00554   0.00000  -0.02489  -0.02453  -1.27772
   D28        2.12177  -0.00042   0.00000  -0.00971  -0.00933   2.11244
   D29       -0.48628   0.01739   0.00000   0.05852   0.05825  -0.42804
   D30        2.65700   0.00726   0.00000   0.03081   0.03073   2.68773
   D31        2.84570   0.01579   0.00000   0.04646   0.04623   2.89193
   D32       -0.29420   0.00566   0.00000   0.01874   0.01871  -0.27549
   D33        0.33407  -0.01829   0.00000  -0.05408  -0.05356   0.28051
   D34       -2.80909  -0.00891   0.00000  -0.02841  -0.02852  -2.83761
   D35       -0.44965  -0.01232   0.00000  -0.04012  -0.03922  -0.48887
   D36        2.33605  -0.02571   0.00000  -0.07873  -0.07765   2.25839
   D37        0.06547   0.01582   0.00000   0.05955   0.06000   0.12547
   D38        2.89284   0.00677   0.00000   0.02692   0.02770   2.92055
   D39       -2.70100   0.02610   0.00000   0.09431   0.09415  -2.60685
   D40        0.12638   0.01705   0.00000   0.06167   0.06185   0.18823
   D41       -0.92819   0.00646   0.00000   0.03825   0.03804  -0.89015
   D42       -3.13562  -0.00513   0.00000  -0.00483  -0.00502  -3.14065
   D43        1.91626   0.00010   0.00000   0.01343   0.01373   1.92999
   D44       -0.29117  -0.01149   0.00000  -0.02965  -0.02934  -0.32050
   D45        0.73108  -0.00619   0.00000  -0.01780  -0.01717   0.71391
   D46       -2.63480  -0.00809   0.00000  -0.02764  -0.02653  -2.66132
   D47       -2.11462   0.00250   0.00000   0.01308   0.01336  -2.10126
   D48        0.80269   0.00059   0.00000   0.00324   0.00400   0.80669
   D49       -0.73156  -0.02957   0.00000  -0.08915  -0.08991  -0.82147
   D50        1.66992  -0.02837   0.00000  -0.07767  -0.07736   1.59256
   D51        1.48341  -0.01895   0.00000  -0.05860  -0.05874   1.42467
   D52       -2.39830  -0.01775   0.00000  -0.04712  -0.04619  -2.44449
   D53        0.32776   0.00044   0.00000   0.01594   0.01582   0.34358
   D54       -2.50989  -0.01211   0.00000  -0.03421  -0.03425  -2.54414
   D55       -2.03994  -0.01191   0.00000  -0.02559  -0.02502  -2.06496
   D56        1.40560  -0.02446   0.00000  -0.07573  -0.07508   1.33052
   D57       -0.05753  -0.01096   0.00000  -0.02038  -0.01985  -0.07738
   D58        2.51113   0.00548   0.00000   0.03814   0.03867   2.54979
   D59        2.75053   0.00620   0.00000   0.04104   0.04131   2.79184
   D60       -0.96400   0.02265   0.00000   0.09956   0.09983  -0.86418
         Item               Value     Threshold  Converged?
 Maximum Force            0.104732     0.000450     NO 
 RMS     Force            0.019388     0.000300     NO 
 Maximum Displacement     0.312402     0.001800     NO 
 RMS     Displacement     0.112013     0.001200     NO 
 Predicted change in Energy=-7.764334D-02
 GradGradGradGradGradGradGradGradGradGradGradGradGradGradGradGradGradGrad

                          Input orientation:                          
 ---------------------------------------------------------------------
 Center     Atomic      Atomic             Coordinates (Angstroms)
 Number     Number       Type             X           Y           Z
 ---------------------------------------------------------------------
      1          6           0        1.284615   -0.017098    0.278346
      2          8           0        2.695257   -0.084046    0.569046
      3          6           0        2.970455    0.612300    1.809119
      4          6           0        4.457096    0.519829    2.391104
      5          6           0        5.131119    1.729118    2.277306
      6          6           0        6.586737    1.739461    2.235956
      7          6           0        7.355301    1.532509    3.300592
      8          8           0        7.023642    1.736139    4.605442
      9          6           0        5.748273    1.900581    5.122389
     10          6           0        4.610330    2.388847    4.575548
     11          6           0        4.460954    2.740952    3.169334
     12          8           0        3.652648    3.607246    2.812773
     13          6           0        5.550146    1.007752    6.238620
     14          6           0        5.900716   -0.286995    5.876465
     15          6           0        5.448464   -0.948409    4.589372
     16          6           0        4.951342   -0.659014    3.319849
     17          1           0        1.067039   -0.571165   -0.643945
     18          1           0        0.926366    1.014422    0.138021
     19          1           0        0.711711   -0.483300    1.089148
     20          1           0        2.249680    0.282063    2.560169
     21          1           0        2.778652    1.671940    1.578276
     22          1           0        7.040988    1.761803    1.248282
     23          1           0        8.363708    1.139451    3.213025
     24          1           0        3.661988    2.244297    5.083780
     25          1           0        4.555496    1.089375    6.692851
     26          1           0        6.967813   -0.495929    6.104117
     27          1           0        5.331498   -1.996775    4.890993
     28          1           0        5.356726   -1.411654    2.628802
 ---------------------------------------------------------------------
                    Distance matrix (angstroms):
                    1          2          3          4          5
     1  C    0.000000
     2  O    1.441839   0.000000
     3  C    2.362512   1.448590   0.000000
     4  C    3.849242   2.605501   1.599174   0.000000
     5  C    4.673404   3.484127   2.476884   1.389114   0.000000
     6  C    5.918634   4.609488   3.811847   2.459053   1.456242
     7  C    6.956183   5.638316   4.722092   3.201919   2.456167
     8  O    7.398244   6.191968   5.050818   3.601369   3.000317
     9  C    6.860501   5.830315   4.511507   3.321676   2.916294
    10  C    5.942634   5.082791   3.674023   2.878977   2.447116
    11  C    5.104290   4.226085   2.933076   2.353518   1.506202
    12  O    5.016649   4.424539   3.231472   3.218242   2.449483
    13  C    7.400671   6.441000   5.141174   4.029418   4.048204
    14  C    7.260866   6.203616   5.092982   3.857817   4.196539
    15  C    6.065470   4.948767   4.038088   2.823282   3.551832
    16  C    4.807045   3.603807   2.796866   1.580037   2.611970
    17  H    1.097702   2.087996   3.322816   4.679132   5.508336
    18  H    1.100939   2.126356   2.670687   4.217470   4.771507
    19  H    1.096797   2.089106   2.611631   4.090142   5.083078
    20  H    2.495509   2.072956   1.092084   2.226611   3.236768
    21  H    2.602847   2.027063   1.101324   2.192082   2.454794
    22  H    6.102548   4.770105   4.266748   3.086266   2.169691
    23  H    7.750064   6.373296   5.597859   4.039939   3.416564
    24  H    5.818762   5.170935   3.723578   3.294919   3.209369
    25  H    7.284835   6.506796   5.156626   4.340403   4.498627
    26  H    8.152768   7.004383   5.971101   4.595861   4.792573
    27  H    6.447704   5.411795   4.677579   3.653399   4.555633
    28  H    4.904234   3.617810   3.234588   2.143936   3.168422
                    6          7          8          9         10
     6  C    0.000000
     7  C    1.329274   0.000000
     8  O    2.409431   1.361652   0.000000
     9  C    3.010062   2.457023   1.385944   0.000000
    10  C    3.130747   3.145425   2.500199   1.353644   0.000000
    11  C    2.528464   3.139237   3.104742   2.485525   1.457302
    12  O    3.525651   4.272253   4.251859   3.555091   2.347132
    13  C    4.198956   3.487974   2.317112   1.443042   2.357220
    14  C    4.222612   3.472972   2.639987   2.318914   3.243087
    15  C    3.749517   3.384071   3.112594   2.913887   3.440922
    16  C    3.098713   3.253024   3.418176   3.230445   3.313989
    17  H    6.640775   7.715378   8.268061   7.827776   6.968478
    18  H    6.080034   7.183417   7.593121   6.991422   5.928936
    19  H    6.385277   7.286375   7.558485   6.878726   5.966862
    20  H    4.586849   5.308409   5.393346   4.628684   3.751394
    21  H    3.865050   4.891987   5.214191   4.629434   3.585058
    22  H    1.087357   2.088862   3.357303   4.086450   4.167971
    23  H    2.114782   1.085839   2.022533   3.326483   4.183935
    24  H    4.113285   4.162567   3.433329   2.114761   1.085609
    25  H    4.940897   4.420712   3.296562   2.132399   2.484876
    26  H    4.483844   3.482020   2.689103   2.862574   4.026932
    27  H    4.752295   4.368181   4.108472   3.926402   4.455701
    28  H    3.405404   3.621284   4.073612   4.164395   4.334829
                   11         12         13         14         15
    11  C    0.000000
    12  O    1.237319   0.000000
    13  C    3.689287   4.700457   0.000000
    14  C    4.309285   5.441060   1.389397   0.000000
    15  C    4.074687   5.209151   2.560649   1.516117   0.000000
    16  C    3.438445   4.488285   3.414073   2.752453   1.393761
    17  H    6.085218   6.007778   8.364265   8.121634   6.835701
    18  H    4.966194   4.616238   7.654848   7.705036   6.642033
    19  H    5.364681   5.324712   7.221548   7.062770   5.908022
    20  H    3.362581   3.617868   4.995067   4.965049   3.982957
    21  H    2.550371   2.456270   5.462704   5.662079   4.802169
    22  H    3.362403   4.163429   5.262573   5.188244   4.587403
    23  H    4.218792   5.333320   4.133727   3.898075   3.840851
    24  H    2.133100   2.648620   2.535319   3.470978   3.691789
    25  H    3.892533   4.712729   1.096502   2.090573   3.061794
    26  H    5.037330   6.217661   2.070973   1.110934   2.192626
    27  H    5.115468   6.208268   3.300165   2.053903   1.097145
    28  H    4.282373   5.303497   4.349911   3.479670   2.016643
                   16         17         18         19         20
    16  C    0.000000
    17  H    5.550423   0.000000
    18  H    5.396744   1.773511   0.000000
    19  H    4.793889   1.771324   1.787146   0.000000
    20  H    2.960019   3.520367   2.855576   2.261644   0.000000
    21  H    3.631391   3.591574   2.436725   3.025979   1.782045
    22  H    3.810298   6.686653   6.259382   6.717556   5.183369
    23  H    3.858773   8.428749   8.048934   8.105383   6.208274
    24  H    3.633606   6.889660   5.784181   5.665774   3.494794
    25  H    3.819777   8.291882   7.492797   6.974918   4.800792
    26  H    3.441642   8.964437   8.624067   8.018035   5.951942
    27  H    2.098241   7.131165   7.145854   6.171471   4.485916
    28  H    1.099250   5.460651   5.631866   4.980817   3.539367
                   21         22         23         24         25
    21  H    0.000000
    22  H    4.276036   0.000000
    23  H    5.843697   2.448903   0.000000
    24  H    3.660114   5.134344   5.179438   0.000000
    25  H    5.445681   6.022721   5.158893   2.172858   0.000000
    26  H    6.536969   5.355543   3.602972   4.413435   2.946026
    27  H    5.563325   5.506234   4.673948   4.561921   3.656938
    28  H    4.154350   3.848819   3.986401   4.718583   4.838761
                   26         27         28
    26  H    0.000000
    27  H    2.530165   0.000000
    28  H    3.938524   2.336774   0.000000
 Stoichiometry    C13H12O3
 Framework group  C1[X(C13H12O3)]
 Deg. of freedom    78
 Full point group                 C1      NOp   1
 Largest Abelian subgroup         C1      NOp   1
 Largest concise Abelian subgroup C1      NOp   1
                         Standard orientation:                         
 ---------------------------------------------------------------------
 Center     Atomic      Atomic             Coordinates (Angstroms)
 Number     Number       Type             X           Y           Z
 ---------------------------------------------------------------------
      1          6           0       -4.641426    0.601750   -0.321299
      2          8           0       -3.466259    0.649865    0.512707
      3          6           0       -2.310819    0.221637   -0.248865
      4          6           0       -0.878495    0.352894    0.450118
      5          6           0       -0.351953   -0.888677    0.783123
      6          6           0        0.626747   -0.989759    1.856702
      7          6           0        1.892876   -0.602733    1.737972
      8          8           0        2.617071   -0.502397    0.589246
      9          6           0        2.122401   -0.479789   -0.705216
[...]
 4,0.00001267,0.00181858,0.00021510,-0.00064954,0.00029918,-0.00053177,
 -0.00353491,0.02277124,-0.00586890,0.01637761,-0.06776811,0.08099887,0
 .00022892,-0.00017249,-0.00003896,-0.00084954,0.00001568,-0.00041809,0
 .00115420,-0.00053988,-0.00130176,-0.00070119,0.00252644,-0.00051749,-
 0.01875993,0.00516849,0.02317485,-0.11834764,0.03171265,0.12444717,0.0
 0969690,-0.00351756,-0.01357889,0.00155665,-0.00145592,-0.00557838,-0.
 00280668,-0.00058043,-0.00012575,0.00076281,-0.00074457,0.00013760,-0.
 00206975,-0.00135453,-0.00187647,0.00023108,0.00079511,0.00013682,0.00
 028743,0.00022927,-0.00036924,-0.00011050,-0.00017598,0.00005007,0.000
 05963,-0.00038981,-0.00002953,-0.00011768,0.00019099,0.00112935,-0.000
 09805,-0.00001716,-0.00003614,-0.00003190,0.00003395,-0.00000274,-0.00
 004084,0.00000478,0.00000091,0.00011908,-0.00005219,0.00002926,-0.0000
 2555,0.00004503,0.00002338,0.12876784,0.00005604,-0.00007608,-0.000037
 20,-0.00043955,-0.00005048,-0.00026207,0.00084620,-0.00032361,-0.00037
 328,-0.00211705,-0.00122964,-0.00073852,0.00434830,0.00443113,0.001992
 23,0.02470046,-0.04147094,-0.05698596,0.00751463,-0.00291912,-0.008742
 80,-0.00360900,0.01070273,-0.00233587,-0.00066552,0.00067923,0.0001934
 7,0.00032876,0.00030434,0.00167354,0.00021081,0.00016321,-0.00060731,-
 0.00003385,-0.00096586,0.00091089,0.00036142,-0.00015529,-0.00029531,-
 0.00010774,0.00014366,-0.00023702,0.00008933,-0.00057742,0.00036243,0.
 00004684,0.00078131,-0.00016948,-0.00004604,-0.00000521,-0.00001940,-0
 .00001161,0.00000860,-0.00000590,-0.00002392,0.00000108,0.00000437,-0.
 00005481,-0.00003279,-0.00003781,-0.00004487,0.00002584,-0.00003332,-0
 .03184037,0.03551721,0.00000155,-0.00002442,-0.00001782,-0.00010858,-0
 .00001950,-0.00008425,0.00033019,0.00001053,-0.00038072,-0.00066274,-0
 .00025522,0.00107478,-0.00209478,0.00055435,0.00487616,0.11589673,-0.0
 5807565,-0.24718364,0.01593451,-0.00396498,-0.02027307,-0.00153586,-0.
 00447514,-0.00219746,-0.00233093,-0.00017021,0.00090226,-0.00014519,-0
 .00032483,-0.00051307,-0.00032484,0.00001544,-0.00015057,0.00014736,0.
 00036455,-0.00030208,-0.00004216,0.00019060,-0.00006051,0.00008075,-0.
 00007138,0.00010560,0.00020108,0.00003773,-0.00018216,-0.00016402,0.00
 026233,0.00021766,-0.00001430,-0.00000253,-0.00000189,-0.00000384,0.00
 000405,0.00000142,-0.00000006,0.00000095,-0.00000222,0.00006823,0.0000
 0422,0.00001051,-0.00001449,0.00001885,0.00001967,-0.12496396,0.064144
 01,0.26378230,0.00007033,-0.00001565,0.00002036,-0.00007704,-0.0000399
 0,-0.00008833,-0.00006592,-0.00010514,0.00028381,-0.00062304,0.0005017
 7,-0.00042236,0.00170428,-0.00228191,-0.00119869,-0.01078687,0.0000007
 7,0.00268203,-0.34135276,-0.02691597,-0.00312837,-0.01455232,0.0004560
 9,0.00753639,0.00382816,-0.00008591,0.00109805,-0.00031225,0.00009013,
 -0.00037093,0.00035150,-0.00017615,0.00076796,-0.00017219,0.00009372,-
 0.00023074,-0.00031270,0.00035602,0.00011707,-0.00021035,-0.00009527,0
 .00004472,0.00017066,0.00006098,-0.00004347,0.00001749,0.00013212,-0.0
 0008260,-0.00001045,-0.00000617,-0.00001134,-0.00000808,0.00000776,0.0
 0000040,-0.00000725,0.00000406,0.00000205,-0.00009267,-0.00000204,-0.0
 0005591,0.00001760,-0.00000761,0.00000166,0.00064608,0.00049659,-0.000
 34437,0.36193957,0.00000957,0.00002486,0.00003120,0.00017941,0.0000066
 8,0.00000982,-0.00021295,0.00026612,0.00063529,0.00115731,-0.00003128,
 0.00037322,0.00009250,0.01000305,-0.00304435,-0.00789775,0.00339442,0.
 00057824,-0.02863466,-0.04103076,-0.00321653,0.00953978,0.00025650,-0.
 00439687,-0.00166440,0.00435648,-0.00153448,-0.00025415,-0.00081058,0.
 00205587,-0.00153771,-0.00088424,-0.00201149,0.00013815,0.00051668,0.0
 0042766,0.00115202,-0.00008359,-0.00022561,0.00011360,0.00020903,-0.00
 007417,-0.00024617,-0.00025656,-0.00024424,0.00025068,-0.00045442,-0.0
 0017893,0.00001062,-0.00000126,0.00000094,-0.00000216,-0.00000099,0.00
 000052,0.00000210,0.00000342,-0.00000131,-0.00011977,-0.00005251,-0.00
 006209,0.00001113,-0.00001675,0.00001162,0.00019884,-0.00478548,0.0016
 7135,0.02774081,0.02927405,0.00006618,-0.00003097,-0.00000044,-0.00012
 908,-0.00001032,-0.00004862,-0.00011245,-0.00035155,0.00035834,-0.0014
 8132,0.00080746,-0.00040089,-0.00010346,-0.00499031,-0.00168917,-0.025
 04083,-0.00079893,0.00329745,-0.00794695,-0.00461018,-0.04830871,0.040
 37765,0.00084407,-0.01089675,-0.00129825,-0.00153648,-0.00361716,0.001
 02275,-0.00023252,0.00000367,0.00050630,-0.00041940,-0.00078730,0.0000
 5974,0.00006964,0.00023943,0.00066580,-0.00037974,-0.00017714,0.000208
 25,0.00006788,0.00000472,-0.00008338,-0.00010155,0.00008991,-0.0000349
 3,0.00030989,-0.00015700,-0.00001628,-0.00000363,-0.00001391,-0.000008
 10,0.00000877,-0.00000161,-0.00000648,0.00000352,0.00000086,-0.0002133
 0,-0.00001095,-0.00003644,0.00001521,-0.00000990,-0.00000190,-0.000272
 86,0.00181048,0.00015174,-0.00658672,0.00923095,0.06145588,0.00003916,
 -0.00000253,0.00000102,0.00002022,0.00002022,-0.00001207,-0.00007999,-
 0.00000989,0.00009906,-0.00019776,-0.00004866,0.00028732,0.00101168,0.
 00068747,0.00065905,0.00025994,-0.00014854,0.00010203,0.00036478,-0.00
 074468,-0.00258814,-0.00285138,0.00472661,0.00047776,-0.01975005,-0.00
 433654,0.00656723,-0.29580134,-0.00838427,0.07635460,-0.00482345,0.000
 29359,-0.00035740,0.00169046,-0.00008480,-0.00040710,0.00044804,-0.002
 87004,-0.00085414,0.00014086,0.00031231,0.00021595,0.00011148,-0.00007
 180,0.00006920,0.00003304,0.00009600,-0.00006709,-0.00000491,0.0000015
 7,0.00000092,-0.00000191,0.00000377,-0.00000439,-0.00000177,-0.0000034
 3,0.00000647,0.00008638,-0.00003211,-0.00007668,0.00003967,0.00003393,
 -0.00003173,0.00012988,-0.00013608,0.00008783,-0.00007112,-0.00004418,
 0.00028424,0.31811184,-0.00018373,-0.00001007,-0.00005484,0.00007081,0
 .00013587,0.00015252,0.00009386,-0.00027105,-0.00037571,-0.00178019,-0
 .00044066,0.00071089,0.00294575,0.00288443,0.00177970,-0.00026744,-0.0
 0000639,-0.00128522,-0.00199468,0.00075770,0.00165225,0.00410099,0.002
 09994,0.00665063,0.01495667,0.00830761,-0.01027677,-0.02141170,-0.0361
 6023,0.02430976,-0.01452054,0.00488324,-0.00801488,0.00621450,-0.00331
 993,0.00279815,0.00336387,-0.00545107,-0.00297525,-0.00228825,0.002249
 77,0.00028422,-0.00014039,-0.00156973,0.00078155,0.00002706,0.00082327
 ,0.00071810,0.00001054,0.00000970,0.00001526,0.00001272,-0.00001566,0.
 00000228,0.00002159,0.00000231,-0.00001717,-0.00006009,-0.00003925,-0.
 00009587,-0.00011205,-0.00001666,0.00004962,0.00003923,-0.00014204,0.0
 0016244,-0.00003980,-0.00003470,0.00017817,0.01043067,0.02607233,-0.00
 011632,-0.00001420,-0.00005637,-0.00003768,0.00021902,0.00016361,0.000
 15618,-0.00024361,-0.00013749,0.00007948,-0.00064203,0.00079328,-0.002
 25372,-0.00057910,-0.00119108,-0.00054564,0.00069532,0.00010489,-0.001
 14573,0.00023478,-0.00154359,-0.00369032,0.00550427,0.00341749,-0.0184
 0772,-0.00014719,0.00305036,0.08349807,0.00875975,-0.05999969,0.025516
 39,0.00677589,-0.01651061,-0.00146004,-0.00239579,0.00151584,0.0012643
 9,-0.00155369,-0.00206732,-0.00104379,0.00074823,-0.00001387,-0.000209
 93,-0.00089932,0.00009149,-0.00019263,0.00008398,0.00066057,0.00000197
 ,0.00001120,0.00001244,0.00001213,-0.00000853,-0.00001132,0.00001231,-
 0.00001037,-0.00000649,-0.00015912,-0.00021295,-0.00001889,0.00007193,
 0.00019045,-0.00015013,-0.00014328,-0.00016671,0.00014150,-0.00009288,
 -0.00018897,0.00039210,-0.08120585,-0.01659764,0.07154679,0.00001623,0
 .00000614,-0.00002348,-0.00001062,0.00003134,0.00004562,0.00003801,0.0
 0002978,-0.00017087,-0.00001673,0.00029173,0.00011715,-0.00026117,-0.0
 0004430,-0.00031501,0.00004708,0.00019417,0.00030927,0.00024174,-0.000
 64551,-0.00133349,-0.00006020,-0.00085593,0.00158963,-0.00888413,0.001
 16689,-0.00173426,0.00109863,0.00078803,-0.00082219,0.00056598,0.00019
 322,0.00023447,-0.00028023,0.00004579,-0.00010556,-0.33019031,-0.02727
 744,-0.01732938,-0.01580185,-0.00183960,-0.00298754,0.00098629,-0.0007
 3207,-0.00144784,0.00009012,-0.00020962,0.00064268,-0.00000436,-0.0000
 0039,0.00000143,-0.00000101,0.00000266,-0.00000060,0.00000727,-0.00000
 092,0.00000210,0.00011573,-0.00002676,0.00002707,-0.00001762,0.0000387
 9,-0.00005657,0.00007303,0.00003459,0.00002141,-0.00003134,0.00007888,
 0.00010326,0.00096794,0.00011936,-0.00022174,0.35184853,0.00000627,0.0
 0001361,-0.00002280,0.00003306,-0.00003852,0.00001180,0.00004578,0.000
 07514,-0.00003230,0.00019225,0.00043783,-0.00033802,-0.00035896,-0.000
 12427,-0.00040166,0.00030827,0.00019283,0.00055003,-0.00004414,-0.0012
 6946,-0.00237698,-0.00337694,-0.00380464,0.00380039,-0.02784537,-0.003
 57593,-0.00171086,-0.00205853,-0.00185379,0.00079814,0.00027457,0.0002
 9265,-0.00043273,0.00006192,-0.00017243,0.00010446,-0.02564043,-0.0527
 1758,-0.00417588,0.02807474,0.00116093,0.00249988,0.00115572,0.0004459
 2,0.00282424,-0.00078975,0.00031708,0.00000721,-0.00000082,-0.00000101
 ,-0.00000049,-0.00000052,-0.00000694,0.00000889,-0.00000481,0.00000467
 ,0.00000364,0.00001573,0.00007928,0.00002801,-0.00000945,-0.00002056,0
 .00004096,0.00006455,0.00005739,0.00002806,-0.00008399,0.00021532,0.00
 015338,0.00046767,-0.00097357,0.00051450,0.02640230,0.06374019,-0.0002
 7626,0.00001630,-0.00006099,0.00025592,0.00009032,0.00029336,-0.000102
 19,-0.00012489,-0.00026570,-0.00015009,0.00057143,-0.00041550,0.000166
 51,-0.00033947,0.00086302,-0.00005943,-0.00018497,-0.00004247,-0.00105
 010,-0.00019846,0.00136704,0.00185788,0.00314948,0.00411864,-0.0006155
 2,0.00327353,-0.00373836,0.00263083,-0.00033248,-0.00128491,0.00050741
 ,0.00244201,0.00041243,-0.00001578,-0.00052440,-0.00044981,-0.02837733
 ,-0.01174495,-0.03659896,0.00274295,0.00672812,0.00503063,0.00015138,0
 .00116339,-0.00489510,0.00143639,-0.00164463,0.00060972,0.00002539,0.0
 0001395,0.00002168,0.00002640,-0.00002235,0.00000348,0.00004142,-0.000
 00381,-0.00002949,-0.00033478,-0.00001124,-0.00009263,0.00001911,-0.00
 003990,0.00010443,0.00002450,0.00008756,-0.00000845,-0.00001719,-0.000
 03893,0.00009264,0.00053914,-0.00001392,0.00001173,0.02211357,0.001480
 08,0.02898547,0.00008258,0.00000620,0.00003456,-0.00005522,-0.00000890
 ,-0.00007166,-0.00000402,0.00014021,0.00006814,-0.00017739,-0.00026689
 ,0.00052704,-0.00035021,0.00026558,-0.00031826,0.00032377,-0.00019727,
 0.00066147,0.00048194,-0.00074304,-0.00092183,0.00107957,-0.00224266,0
 .00128395,-0.00104580,-0.00222274,0.00242277,-0.00029651,0.00031188,-0
 .00101114,0.00001985,-0.00026953,-0.00008200,-0.00008543,0.00013810,0.
 00004643,-0.01816657,0.00217268,-0.00330939,-0.31166469,0.00157728,-0.
 06108448,-0.00621052,0.00141012,-0.00164764,-0.00056610,-0.00158618,0.
 00025495,-0.00000245,-0.00000522,-0.00000715,-0.00001264,0.00001073,-0
 .00000395,-0.00000700,0.00000218,0.00000431,0.00008216,-0.00000334,0.0
 0000558,-0.00001681,0.00002743,-0.00005887,0.00003356,0.00010562,-0.00
 003952,-0.00001656,-0.00007604,-0.00002127,0.00015528,0.00009128,0.000
 04210,-0.00070352,0.00300078,-0.00108902,0.33654012,0.00012059,0.00000
 825,0.00000772,-0.00026345,-0.00002868,-0.00006785,0.00014794,-0.00002
 993,-0.00044259,-0.00037436,-0.00254463,0.00097971,0.00037276,0.002125
 12,0.00000508,0.00009165,-0.00038668,0.00022621,-0.00056093,-0.0016521
 6,0.00182851,-0.00050450,-0.00081941,0.00024238,0.00089333,-0.00293886
 ,0.00300180,-0.00070222,0.00147608,-0.00251758,0.00008040,-0.00093758,
 -0.00004446,-0.00034906,0.00042775,-0.00001359,0.02214712,0.01189838,0
 .00386481,-0.00304736,-0.05882932,-0.01359892,-0.01675506,0.00822628,0
 .00042434,-0.00342304,0.00066605,-0.00449500,-0.00001739,-0.00000807,-
 0.00001210,-0.00001578,0.00000815,-0.00000088,-0.00002650,-0.00000345,
 0.00001129,-0.00002982,-0.00002907,-0.00000216,0.00002838,0.00005944,-
 0.00003362,-0.00009528,0.00009534,-0.00012265,-0.00003440,0.00002517,0
 .00004357,-0.00014448,0.00014932,-0.00006893,0.00220505,-0.00251218,-0
 .00416262,-0.00163532,0.04480465,0.00000836,0.00002773,0.00002273,0.00
 006923,0.00005562,0.00007333,0.00011825,0.00032210,0.00033766,-0.00053
 391,0.00207971,-0.00012684,-0.00044284,-0.00218829,-0.00062925,-0.0005
 7394,-0.00032572,-0.00105847,0.00033706,0.00175246,0.00040744,0.000173
 08,-0.00146662,-0.00094230,-0.00098434,0.00524267,-0.00412565,0.000572
 99,-0.00224118,0.00318055,-0.00016757,0.00086077,-0.00053935,0.0004505
 9,-0.00040329,0.00012882,0.01535075,-0.00886129,0.00331674,-0.06026308
 ,0.00467963,-0.04161032,-0.02452268,-0.00527043,-0.01179754,0.00230801
 ,-0.00566708,0.00285512,0.00001453,0.00000134,0.00000826,-0.00001021,0
 .00001102,-0.00000633,0.00000630,-0.00000195,-0.00000277,-0.00002836,-
 0.00004271,0.00005032,-0.00016249,-0.00002997,-0.00003154,0.00010241,-
 0.00020264,0.00007401,0.00010570,0.00013884,-0.00000339,-0.00010766,-0
 .00015188,0.00000857,0.00131361,-0.00326125,0.00547061,0.06520216,0.01
 540437,0.04663645,0.00001752,0.00003219,0.00000185,0.00007625,0.000042
 34,-0.00000430,0.00006913,-0.00100777,0.00094782,0.00833148,0.00477364
 ,-0.00631672,-0.00157240,-0.00086780,-0.00130335,-0.00055594,0.0000973
 5,-0.00122399,-0.00000200,0.00031851,0.00056144,-0.00037833,-0.0009728
 1,-0.00046650,-0.00003127,0.00542594,-0.00157324,0.00062573,-0.0002829
 9,0.00235498,0.00059821,-0.00065342,0.00129931,-0.00008425,0.00014644,
 -0.00038606,0.00138152,-0.00558702,-0.00191582,0.00702164,-0.00254470,
 0.00622202,-0.07151273,0.07103807,-0.02357744,0.00299463,0.01224674,0.
 00174576,0.00000478,0.00000860,-0.00000625,-0.00001426,-0.00000547,-0.
 00000369,-0.00000795,0.00000456,0.00000688,-0.00022262,-0.00008752,0.0
 0000657,0.00024804,-0.00009545,0.00025017,0.00024542,0.00002553,0.0000
 6453,0.00001750,-0.00007952,0.00002769,0.00001198,-0.00000447,0.000080
 58,0.00016289,0.00016638,-0.00048620,0.00036424,0.00152541,-0.00004865
 ,0.05589620,-0.00012865,0.00000657,-0.00000378,0.00018808,0.00018748,0
 .00014180,-0.00017660,-0.00098942,0.00042092,0.00333745,0.00280674,-0.
 00067439,-0.00038872,0.00004008,-0.00031643,-0.00004494,0.00023033,-0.
 00011008,0.00018656,0.00009093,-0.00030602,-0.00037480,-0.00041693,0.0
 0013729,0.00063694,0.00123601,-0.00078337,0.00001871,-0.00092927,0.000
 83979,0.00006852,0.00044594,-0.00072268,0.00019134,-0.00022980,0.00026
 854,-0.00240297,-0.00300845,-0.00085067,0.00732547,-0.01341612,0.00060
 711,0.07325801,-0.29872589,0.01951698,0.00313309,-0.00852039,-0.000069
 92,0.00002789,0.00001579,0.00002457,0.00000757,0.00000113,-0.00001056,
 0.00002598,-0.00000683,-0.00001101,-0.00002884,-0.00001506,-0.00000702
 ,0.00024960,-0.00001773,0.00008392,0.00000660,-0.00002477,0.00002091,-
 0.00002618,-0.00004315,0.00002493,-0.00002906,-0.00008365,-0.00002033,
 0.00003420,0.00004387,0.00032840,-0.00022859,0.00043930,-0.00057104,-0
 .08336709,0.31983780,0.00008920,-0.00000537,0.00001525,0.00001640,-0.0
 0014628,-0.00001762,0.00000803,0.00196877,-0.00050444,-0.00675350,-0.0
 0222020,-0.00000526,0.00004069,-0.00003887,0.00033595,0.00036198,0.000
 07660,0.00050783,0.00022182,-0.00019654,-0.00073802,-0.00022375,0.0000
 9670,0.00038639,0.00033376,-0.00081416,-0.00065548,-0.00002621,-0.0008
 8702,0.00053672,0.00005578,0.00057751,-0.00172117,0.00014222,-0.000213
 70,0.00051804,-0.00239850,-0.00243521,-0.00064902,0.00723161,-0.023142
 23,-0.00056480,-0.01182377,0.01654263,-0.04467732,-0.00968838,0.029054
 24,-0.00464726,-0.00001816,-0.00001615,-0.00001784,0.00000400,0.000000
 20,0.00001130,-0.00000976,0.00000415,0.00000373,0.00007196,0.00000701,
 0.00003858,-0.00063320,0.00006869,-0.00023873,0.00000655,0.00004774,0.
 00000281,-0.00000983,0.00004204,0.00003875,-0.00004212,-0.00021016,-0.
 00012730,-0.00000801,-0.00005087,0.00051718,-0.00044807,0.00062187,-0.
 00012623,0.02055558,-0.01899400,0.05276901,-0.00051297,-0.00013655,-0.
 00023666,-0.00094799,0.00069765,-0.00055861,0.00013317,-0.00061562,0.0
 0001210,0.00686106,-0.00294741,0.00517186,0.00135837,0.00628365,-0.000
 18595,0.00015979,-0.00023758,0.00065222,0.00048229,-0.00058117,-0.0011
 7898,-0.00103727,0.00082243,0.00124632,0.00208861,-0.00273185,0.001912
 22,-0.00124917,-0.00170104,-0.00123276,0.00102084,-0.00117551,-0.00259
 543,-0.00054575,0.00037870,0.00062099,-0.00180779,0.00312399,-0.001004
 08,0.00831975,-0.00238210,-0.00842075,0.00266508,-0.00890744,-0.006076
 51,-0.07540546,-0.05359431,-0.06375169,0.00002371,0.00003101,0.0000169
 2,0.00014895,-0.00008001,0.00004829,0.00007018,0.00001487,-0.00000489,
 -0.00001338,0.00010169,-0.00010799,0.00014404,-0.00017413,-0.00012739,
 -0.00003329,-0.00003472,-0.00004451,-0.00006025,0.00009407,0.00001858,
 -0.00003897,0.00030441,0.00019087,0.00000360,-0.00005630,0.00003511,0.
 00021839,0.00036633,0.00171272,-0.00368539,-0.00149958,0.00294367,0.06
 163987,0.00070560,0.00068494,0.00046842,-0.00063900,0.00124077,0.00014
 997,-0.00173802,-0.00124374,-0.00120407,-0.01020920,-0.02169128,-0.014
 97253,0.00337927,-0.00254712,-0.00011687,0.00011655,0.00032219,-0.0010
 6184,-0.00041100,0.00022468,0.00062150,0.00022300,0.00008905,-0.000353
 24,-0.00006255,-0.00057086,-0.00019382,-0.00008328,-0.00005424,-0.0006
 5778,-0.00089603,-0.00033541,0.00177475,0.00058181,-0.00063965,-0.0001
 4769,0.00016377,-0.00014910,0.00054973,0.00108352,0.00061256,0.0013361
 0,0.00333813,0.00704567,0.00854560,-0.05979258,-0.19365679,-0.12589793
 ,0.00006429,-0.00003210,-0.00001326,-0.00035679,0.00008965,-0.00013918
 ,-0.00017125,-0.00001973,0.00003944,0.00022676,0.00010406,0.00014865,0
 .00004381,0.00016307,0.00011903,-0.00009547,-0.00015234,0.00001614,-0.
 00002474,-0.00006551,-0.00006629,0.00001728,0.00015918,0.00001199,-0.0
 0003039,-0.00000584,0.00004243,0.00022565,0.00031073,0.00010910,-0.000
 29568,0.00104547,0.00026260,0.06463653,0.20907167,-0.00004702,-0.00008
 178,-0.00012404,-0.00078340,0.00069056,-0.00094549,0.00003597,-0.00030
 587,0.00063860,0.00167196,0.00933977,0.00705907,-0.00076538,-0.0005701
 0,-0.00005682,-0.00009119,0.00003368,0.00041047,0.00004908,0.00016834,
 -0.00003152,0.00023284,-0.00044644,-0.00014698,-0.00072602,0.00110483,
 -0.00065185,0.00048144,0.00048280,0.00059471,-0.00004205,0.00091082,-0
 .00019094,-0.00006594,0.00002445,-0.00004857,0.00020992,-0.00035570,0.
 00056827,-0.00742407,0.00268230,0.00132615,-0.00989017,-0.02055746,-0.
 01749173,-0.05693776,-0.12337884,-0.15216589,-0.00002632,0.00001161,-0
 .00000932,0.00005627,0.00000438,0.00000474,0.00012990,-0.00000776,-0.0
 0001341,0.00009269,-0.00011284,-0.00012211,0.00009512,-0.00003145,-0.0
 0011721,-0.00000935,0.00002390,-0.00000248,0.00002353,0.00001041,0.000
 01496,0.00000256,-0.00017619,-0.00007650,0.00003527,-0.00004986,-0.000
 01967,-0.00043921,-0.00107872,-0.00157066,0.00318701,0.00103611,-0.000
 99104,0.07094433,0.13062906,0.16415926\\-0.00001083,-0.00000004,-0.000
 00030,0.00000732,-0.00000238,-0.00001199,-0.00001106,0.00000576,0.0000
 2866,0.00001691,-0.00000339,-0.00002005,-0.00000884,-0.00001463,-0.000
 00107,0.00000634,0.00000135,-0.00000549,-0.00000977,0.00000060,0.00001
 512,-0.00000137,0.00000522,-0.00001463,0.00000373,-0.00001592,0.000001
 84,-0.00002895,0.00001034,0.00003005,0.00000458,0.00001028,-0.00001774
 ,0.00000870,0.00000181,0.00000555,0.00001717,-0.00000222,0.00000236,-0
 .00000875,0.00001014,0.00001429,0.00000045,-0.00000082,-0.00001822,0.0
 0000658,0.00000474,0.00001541,0.00000421,0.00000187,-0.00000122,0.0000
 0141,-0.00000061,-0.00000095,0.00000357,-0.00000033,-0.00000164,-0.000
 00521,0.00000145,-0.00001251,-0.00000358,0.00000250,-0.00000279,-0.000
 00121,0.00000523,-0.00000060,0.00000108,-0.00000318,0.00000134,0.00000
 343,-0.00001170,-0.00000088,0.00000125,-0.00000156,-0.00000091,0.00000
 428,-0.00000234,-0.00000120,-0.00000072,-0.00000104,0.00000193,-0.0000
 0071,-0.00000114,-0.00000434\\\@


 THERE'S NOTHING WRONG WITH FOLLOWING A TRAIN OF THOUGHT...
 AS LONG AS IT ULTIMATELY PULLS INTO THE STATION.
 Job cpu time:       0 days 10 hours 47 minutes 22.5 seconds.
 Elapsed time:       0 days  2 hours 41 minutes 53.4 seconds.
 File lengths (MBytes):  RWF=    529 Int=      0 D2E=      0 Chk=     22 Scr=      1
 Normal termination of Gaussian 16 at Wed May 17 19:18:40 2023.
### All Done ###
