### Starting Gaussian ###
 Entering Gaussian System, Link 0=g16
 Initial command:
 /cluster/software/gaussian/gaussian-16-A.03/avx2/g16/l1.exe "/local/scratch/yxie/Gau-29950.inp" -scrdir="/local/scratch/yxie/"
 Entering Link 1 = /cluster/software/gaussian/gaussian-16-A.03/avx2/g16/l1.exe PID=     29951.
  
 Copyright (c) 1988,1990,1992,1993,1995,1998,2003,2009,2016,
            Gaussian, Inc.  All Rights Reserved.
  
 This is part of the Gaussian(R) 16 program.  It is based on
 the Gaussian(R) 09 system (copyright 2009, Gaussian, Inc.),
 the Gaussian(R) 03 system (copyright 2003, Gaussian, Inc.),
 the Gaussian(R) 98 system (copyright 1998, Gaussian, Inc.),
 the Gaussian(R) 94 system (copyright 1995, Gaussian, Inc.),
 the Gaussian 92(TM) system (copyright 1992, Gaussian, Inc.),
 the Gaussian 90(TM) system (copyright 1990, Gaussian, Inc.),
 the Gaussian 88(TM) system (copyright 1988, Gaussian, Inc.),
 the Gaussian 86(TM) system (copyright 1986, Carnegie Mellon
 University), and the Gaussian 82(TM) system (copyright 1983,
 Carnegie Mellon University). Gaussian is a federally registered
 trademark of Gaussian, Inc.
  
 This software contains proprietary and confidential information,
 including trade secrets, belonging to Gaussian, Inc.
  
 This software is provided under written license and may be
 used, copied, transmitted, or stored only in accord with that
 written license.
  
 The following legend is applicable only to US Government
 contracts under FAR:
  
                    RESTRICTED RIGHTS LEGEND
  
 Use, reproduction and disclosure by the US Government is
 subject to restrictions as set forth in subparagraphs (a)
 and (c) of the Commercial Computer Software - Restricted
 Rights clause in FAR 52.227-19.
  
 Gaussian, Inc.
 340 Quinnipiac St., Bldg. 40, Wallingford CT 06492
  
  
 ---------------------------------------------------------------
 Warning -- This program may not be used in any manner that
 competes with the business of Gaussian, Inc. or will provide
 assistance to any competitor of Gaussian, Inc.  The licensee
 of this program is prohibited from giving any competitor of
 Gaussian, Inc. access to this program.  By using this program,
 the user acknowledges that Gaussian, Inc. is engaged in the
 business of creating and licensing software in the field of
 computational chemistry and represents and warrants to the
 licensee that it is not a competitor of Gaussian, Inc. and that
 it will not use this program in any manner prohibited above.
 ---------------------------------------------------------------
  

 Cite this work as:
 Gaussian 16, Revision A.03,
 M. J. Frisch, G. W. Trucks, H. B. Schlegel, G. E. Scuseria, 
 M. A. Robb, J. R. Cheeseman, G. Scalmani, V. Barone, 
 G. A. Petersson, H. Nakatsuji, X. Li, M. Caricato, A. V. Marenich, 
 J. Bloino, B. G. Janesko, R. Gomperts, B. Mennucci, H. P. Hratchian, 
 J. V. Ortiz, A. F. Izmaylov, J. L. Sonnenberg, D. Williams-Young, 
 F. Ding, F. Lipparini, F. Egidi, J. Goings, B. Peng, A. Petrone, 
 T. Henderson, D. Ranasinghe, V. G. Zakrzewski, J. Gao, N. Rega, 
 G. Zheng, W. Liang, M. Hada, M. Ehara, K. Toyota, R. Fukuda, 
 J. Hasegawa, M. Ishida, T. Nakajima, Y. Honda, O. Kitao, H. Nakai, 
 T. Vreven, K. Throssell, J. A. Montgomery, Jr., J. E. Peralta, 
 F. Ogliaro, M. J. Bearpark, J. J. Heyd, E. N. Brothers, K. N. Kudin, 
 V. N. Staroverov, T. A. Keith, R. Kobayashi, J. Normand, 
 K. Raghavachari, A. P. Rendell, J. C. Burant, S. S. Iyengar, 
 J. Tomasi, M. Cossi, J. M. Millam, M. Klene, C. Adamo, R. Cammi, 
 J. W. Ochterski, R. L. Martin, K. Morokuma, O. Farkas, 
 J. B. Foresman, and D. J. Fox, Gaussian, Inc., Wallingford CT, 2016.
 
 ******************************************
 Gaussian 16:  ES64L-G16RevA.03 25-Dec-2016
                18-May-2023 
 ******************************************
 %chk=COCqNrdCOCdCCdCC1dCqNrCdCSCdC1.chk
 %NProcShared=20
 Will use up to   20 processors via shared memory.
 -----------------------------
 # opt freq b3lyp/6-31g(2df,p)
 -----------------------------
 1/18=20,19=15,26=3,38=1/1,3;
 2/9=110,12=2,17=6,18=5,40=1/2;
 3/5=1,6=6,7=104,11=2,25=1,30=1,71=1,74=-5/1,2,3;
 4//1;
 5/5=2,38=5/2;
 6/7=2,8=2,9=2,10=2,28=1/1;
 7//1,2,3,16;
 1/18=20,19=15,26=3/3(2);
 2/9=110/2;
 99//99;
 2/9=110/2;
 3/5=1,6=6,7=104,11=2,25=1,30=1,71=1,74=-5/1,2,3;
 4/5=5,16=3,69=1/1;
 5/5=2,38=5/2;
 7//1,2,3,16;
 1/18=20,19=15,26=3/3(-5);
 2/9=110/2;
 6/7=2,8=2,9=2,10=2,19=2,28=1/1;
 99/9=1/99;
 -------------------
 Title Card Required
 -------------------
 Symbolic Z-matrix:
 Charge =  0 Multiplicity = 1
 C                     0.99322   0.00022   0.02459 
 O                     2.41717   0.00496   0.0122 
 C                     3.05091   0.19209  -1.20292 
 N                     2.33288   0.3665   -2.34757 
 C                     4.395     0.19224  -1.21485 
 O                     5.11198   0.36423  -2.37878 
 C                     6.48443   0.41244  -2.3606 
 C                     7.18573   0.63037  -3.48192 
 C                     8.6263    0.70138  -3.50528 
 C                     9.37453   0.7782   -4.62102 
 C                     10.86421   0.73217  -4.6236 
 C                     11.48294  -0.28647  -3.96162 
 N                     10.76871  -1.30303  -3.34814 
 C                     12.91314  -0.46993  -3.80042 
 C                     14.01189   0.1483   -4.23359 
 S                     14.29228   1.5008   -5.21915 
 C                     12.78162   2.12408  -5.67373 
 C                     11.51845   1.77598  -5.40591 
 H                     0.6591   -0.16524   1.05384 
 H                     0.59385  -0.81473  -0.58905 
 H                     0.59221   0.96541  -0.30357 
 H                     1.32723   0.3898   -2.36126 
 H                     2.85101   0.521    -3.20531 
 H                     4.97986   0.05541  -0.31695 
 H                     6.93995   0.26341  -1.3905 
 H                     6.65627   0.74268  -4.42449 
 H                     9.13024   0.62477  -2.54208 
 H                     8.90975   0.87767  -5.60076 
 H                     9.76195  -1.33959  -3.44146 
 H                     11.20784  -1.97601  -2.73739 
 H                     13.14822  -1.32811  -3.1666 
 H                     14.94381  -0.30119  -3.89286 
 H                     12.88458   2.99602  -6.31824 
 H                     10.79081   2.43253  -5.89033 
 

 GradGradGradGradGradGradGradGradGradGradGradGradGradGradGradGradGradGrad
 Berny optimization.
 Initialization pass.
                           ----------------------------
                           !    Initial Parameters    !
                           ! (Angstroms and Degrees)  !
 --------------------------                            --------------------------
 ! Name  Definition              Value          Derivative Info.                !
 --------------------------------------------------------------------------------
 ! R1    R(1,2)                  1.424          estimate D2E/DX2                !
 ! R2    R(1,19)                 1.0947         estimate D2E/DX2                !
 ! R3    R(1,20)                 1.0955         estimate D2E/DX2                !
 ! R4    R(1,21)                 1.0955         estimate D2E/DX2                !
 ! R5    R(2,3)                  1.3832         estimate D2E/DX2                !
 ! R6    R(3,4)                  1.3624         estimate D2E/DX2                !
 ! R7    R(3,5)                  1.3441         estimate D2E/DX2                !
 ! R8    R(4,22)                 1.006          estimate D2E/DX2                !
 ! R9    R(4,23)                 1.0139         estimate D2E/DX2                !
 ! R10   R(5,6)                  1.3778         estimate D2E/DX2                !
 ! R11   R(5,24)                 1.0803         estimate D2E/DX2                !
 ! R12   R(6,7)                  1.3734         estimate D2E/DX2                !
 ! R13   R(7,8)                  1.3404         estimate D2E/DX2                !
 ! R14   R(7,25)                 1.082          estimate D2E/DX2                !
 ! R15   R(8,9)                  1.4425         estimate D2E/DX2                !
 ! R16   R(8,26)                 1.0869         estimate D2E/DX2                !
 ! R17   R(9,10)                 1.3456         estimate D2E/DX2                !
 ! R18   R(9,27)                 1.0898         estimate D2E/DX2                !
 ! R19   R(10,11)                1.4904         estimate D2E/DX2                !
 ! R20   R(10,28)                1.0889         estimate D2E/DX2                !
 ! R21   R(11,12)                1.3633         estimate D2E/DX2                !
 ! R22   R(11,18)                1.4593         estimate D2E/DX2                !
 ! R23   R(12,13)                1.3856         estimate D2E/DX2                !
 ! R24   R(12,14)                1.4509         estimate D2E/DX2                !
 ! R25   R(13,29)                1.0117         estimate D2E/DX2                !
 ! R26   R(13,30)                1.0093         estimate D2E/DX2                !
 ! R27   R(14,15)                1.3331         estimate D2E/DX2                !
 ! R28   R(14,31)                1.0925         estimate D2E/DX2                !
 ! R29   R(15,16)                1.6968         estimate D2E/DX2                !
 ! R30   R(15,32)                1.0893         estimate D2E/DX2                !
 ! R31   R(16,17)                1.6962         estimate D2E/DX2                !
 ! R32   R(17,18)                1.3373         estimate D2E/DX2                !
 ! R33   R(17,33)                1.0892         estimate D2E/DX2                !
 ! R34   R(18,34)                1.0932         estimate D2E/DX2                !
 ! A1    A(2,1,19)             108.2936         estimate D2E/DX2                !
 ! A2    A(2,1,20)             111.2311         estimate D2E/DX2                !
 ! A3    A(2,1,21)             111.131          estimate D2E/DX2                !
 ! A4    A(19,1,20)            107.6343         estimate D2E/DX2                !
 ! A5    A(19,1,21)            107.6433         estimate D2E/DX2                !
 ! A6    A(20,1,21)            110.7428         estimate D2E/DX2                !
 ! A7    A(1,2,3)              117.7914         estimate D2E/DX2                !
 ! A8    A(2,3,4)              120.9258         estimate D2E/DX2                !
 ! A9    A(2,3,5)              117.7732         estimate D2E/DX2                !
 ! A10   A(4,3,5)              121.3008         estimate D2E/DX2                !
 ! A11   A(3,4,22)             122.7674         estimate D2E/DX2                !
 ! A12   A(3,4,23)             117.447          estimate D2E/DX2                !
 ! A13   A(22,4,23)            119.7217         estimate D2E/DX2                !
 ! A14   A(3,5,6)              121.8614         estimate D2E/DX2                !
 ! A15   A(3,5,24)             122.275          estimate D2E/DX2                !
 ! A16   A(6,5,24)             115.8634         estimate D2E/DX2                !
 ! A17   A(5,6,7)              120.8777         estimate D2E/DX2                !
 ! A18   A(6,7,8)              121.1625         estimate D2E/DX2                !
 ! A19   A(6,7,25)             115.323          estimate D2E/DX2                !
 ! A20   A(8,7,25)             123.5145         estimate D2E/DX2                !
 ! A21   A(7,8,9)              122.9597         estimate D2E/DX2                !
 ! A22   A(7,8,26)             119.1696         estimate D2E/DX2                !
 ! A23   A(9,8,26)             117.8617         estimate D2E/DX2                !
 ! A24   A(8,9,10)             124.8584         estimate D2E/DX2                !
 ! A25   A(8,9,27)             116.3617         estimate D2E/DX2                !
 ! A26   A(10,9,27)            118.6695         estimate D2E/DX2                !
 ! A27   A(9,10,11)            123.7428         estimate D2E/DX2                !
 ! A28   A(9,10,28)            120.9242         estimate D2E/DX2                !
 ! A29   A(11,10,28)           115.3328         estimate D2E/DX2                !
 ! A30   A(10,11,12)           118.415          estimate D2E/DX2                !
 ! A31   A(10,11,18)           115.2738         estimate D2E/DX2                !
 ! A32   A(12,11,18)           126.2472         estimate D2E/DX2                !
 ! A33   A(11,12,13)           121.9526         estimate D2E/DX2                !
 ! A34   A(11,12,14)           126.5686         estimate D2E/DX2                !
 ! A35   A(13,12,14)           111.4786         estimate D2E/DX2                !
 ! A36   A(12,13,29)           119.9078         estimate D2E/DX2                !
 ! A37   A(12,13,30)           122.1964         estimate D2E/DX2                !
 ! A38   A(29,13,30)           117.6875         estimate D2E/DX2                !
 ! A39   A(12,14,15)           135.8664         estimate D2E/DX2                !
 ! A40   A(12,14,31)           112.0802         estimate D2E/DX2                !
 ! A41   A(15,14,31)           112.0534         estimate D2E/DX2                !
 ! A42   A(14,15,16)           133.9942         estimate D2E/DX2                !
 ! A43   A(14,15,32)           114.3384         estimate D2E/DX2                !
 ! A44   A(16,15,32)           111.6671         estimate D2E/DX2                !
 ! A45   A(15,16,17)           107.5404         estimate D2E/DX2                !
 ! A46   A(16,17,18)           133.7795         estimate D2E/DX2                !
 ! A47   A(16,17,33)           111.6269         estimate D2E/DX2                !
 ! A48   A(18,17,33)           114.5931         estimate D2E/DX2                !
 ! A49   A(11,18,17)           135.8068         estimate D2E/DX2                !
 ! A50   A(11,18,34)           111.636          estimate D2E/DX2                !
 ! A51   A(17,18,34)           112.5573         estimate D2E/DX2                !
 ! D1    D(19,1,2,3)           179.599          estimate D2E/DX2                !
 ! D2    D(20,1,2,3)            61.5171         estimate D2E/DX2                !
 ! D3    D(21,1,2,3)           -62.3663         estimate D2E/DX2                !
 ! D4    D(1,2,3,4)              0.0368         estimate D2E/DX2                !
 ! D5    D(1,2,3,5)           -179.7924         estimate D2E/DX2                !
 ! D6    D(2,3,4,22)             1.5152         estimate D2E/DX2                !
 ! D7    D(2,3,4,23)           178.5959         estimate D2E/DX2                !
 ! D8    D(5,3,4,22)          -178.6616         estimate D2E/DX2                !
 ! D9    D(5,3,4,23)            -1.581          estimate D2E/DX2                !
 ! D10   D(2,3,5,6)            179.6556         estimate D2E/DX2                !
 ! D11   D(2,3,5,24)            -0.1721         estimate D2E/DX2                !
 ! D12   D(4,3,5,6)             -0.1729         estimate D2E/DX2                !
 ! D13   D(4,3,5,24)           179.9994         estimate D2E/DX2                !
 ! D14   D(3,5,6,7)            177.4718         estimate D2E/DX2                !
 ! D15   D(24,5,6,7)            -2.6901         estimate D2E/DX2                !
 ! D16   D(5,6,7,8)           -177.4309         estimate D2E/DX2                !
 ! D17   D(5,6,7,25)             2.5811         estimate D2E/DX2                !
 ! D18   D(6,7,8,9)            179.3868         estimate D2E/DX2                !
 ! D19   D(6,7,8,26)            -1.7272         estimate D2E/DX2                !
 ! D20   D(25,7,8,9)            -0.6263         estimate D2E/DX2                !
 ! D21   D(25,7,8,26)          178.2598         estimate D2E/DX2                !
 ! D22   D(7,8,9,10)           172.6987         estimate D2E/DX2                !
 ! D23   D(7,8,9,27)            -3.4152         estimate D2E/DX2                !
 ! D24   D(26,8,9,10)           -6.2011         estimate D2E/DX2                !
 ! D25   D(26,8,9,27)          177.685          estimate D2E/DX2                !
 ! D26   D(8,9,10,11)         -174.5149         estimate D2E/DX2                !
 ! D27   D(8,9,10,28)            5.3127         estimate D2E/DX2                !
 ! D28   D(27,9,10,11)           1.5164         estimate D2E/DX2                !
 ! D29   D(27,9,10,28)        -178.656          estimate D2E/DX2                !
 ! D30   D(9,10,11,12)          51.3043         estimate D2E/DX2                !
 ! D31   D(9,10,11,18)        -131.422          estimate D2E/DX2                !
 ! D32   D(28,10,11,12)       -128.5321         estimate D2E/DX2                !
 ! D33   D(28,10,11,18)         48.7416         estimate D2E/DX2                !
 ! D34   D(10,11,12,13)          3.118          estimate D2E/DX2                !
 ! D35   D(10,11,12,14)       -177.0782         estimate D2E/DX2                !
 ! D36   D(18,11,12,13)       -173.8248         estimate D2E/DX2                !
 ! D37   D(18,11,12,14)          5.979          estimate D2E/DX2                !
 ! D38   D(10,11,18,17)        179.0792         estimate D2E/DX2                !
 ! D39   D(10,11,18,34)         -0.9164         estimate D2E/DX2                !
 ! D40   D(12,11,18,17)         -3.8942         estimate D2E/DX2                !
 ! D41   D(12,11,18,34)        176.1101         estimate D2E/DX2                !
 ! D42   D(11,12,13,29)          4.4638         estimate D2E/DX2                !
 ! D43   D(11,12,13,30)       -170.1682         estimate D2E/DX2                !
 ! D44   D(14,12,13,29)       -175.3669         estimate D2E/DX2                !
 ! D45   D(14,12,13,30)         10.0012         estimate D2E/DX2                !
 ! D46   D(11,12,14,15)         -4.0916         estimate D2E/DX2                !
 ! D47   D(11,12,14,31)        175.9178         estimate D2E/DX2                !
 ! D48   D(13,12,14,15)        175.7295         estimate D2E/DX2                !
 ! D49   D(13,12,14,31)         -4.2611         estimate D2E/DX2                !
 ! D50   D(12,14,15,16)          0.0593         estimate D2E/DX2                !
 ! D51   D(12,14,15,32)       -179.7025         estimate D2E/DX2                !
 ! D52   D(31,14,15,16)       -179.9501         estimate D2E/DX2                !
 ! D53   D(31,14,15,32)          0.2882         estimate D2E/DX2                !
 ! D54   D(14,15,16,17)          0.8254         estimate D2E/DX2                !
 ! D55   D(32,15,16,17)       -179.4081         estimate D2E/DX2                !
 ! D56   D(15,16,17,18)          0.693          estimate D2E/DX2                !
 ! D57   D(15,16,17,33)       -179.5832         estimate D2E/DX2                !
 ! D58   D(16,17,18,11)         -0.0019         estimate D2E/DX2                !
 ! D59   D(16,17,18,34)        179.9937         estimate D2E/DX2                !
 ! D60   D(33,17,18,11)       -179.7195         estimate D2E/DX2                !
 ! D61   D(33,17,18,34)          0.2761         estimate D2E/DX2                !
 --------------------------------------------------------------------------------
 Trust Radius=3.00D-01 FncErr=1.00D-07 GrdErr=1.00D-06 EigMax=2.50D+02 EigMin=1.00D-04
 Number of steps in this run=    156 maximum allowed number of steps=    204.
 GradGradGradGradGradGradGradGradGradGradGradGradGradGradGradGradGradGrad

                          Input orientation:                          
 ---------------------------------------------------------------------
 Center     Atomic      Atomic             Coordinates (Angstroms)
 Number     Number       Type             X           Y           Z
 ---------------------------------------------------------------------
      1          6           0        0.993220    0.000220    0.024590
      2          8           0        2.417170    0.004960    0.012200
      3          6           0        3.050910    0.192090   -1.202920
      4          7           0        2.332880    0.366500   -2.347570
      5          6           0        4.395000    0.192240   -1.214850
      6          8           0        5.111980    0.364230   -2.378780
      7          6           0        6.484430    0.412440   -2.360600
      8          6           0        7.185730    0.630370   -3.481920
      9          6           0        8.626300    0.701380   -3.505280
     10          6           0        9.374530    0.778200   -4.621020
     11          6           0       10.864210    0.732170   -4.623600
     12          6           0       11.482940   -0.286470   -3.961620
     13          7           0       10.768710   -1.303030   -3.348140
     14          6           0       12.913140   -0.469930   -3.800420
     15          6           0       14.011890    0.148300   -4.233590
     16         16           0       14.292280    1.500800   -5.219150
     17          6           0       12.781620    2.124080   -5.673730
     18          6           0       11.518450    1.775980   -5.405910
     19          1           0        0.659100   -0.165240    1.053840
     20          1           0        0.593850   -0.814730   -0.589050
     21          1           0        0.592210    0.965410   -0.303570
     22          1           0        1.327230    0.389800   -2.361260
     23          1           0        2.851010    0.521000   -3.205310
     24          1           0        4.979860    0.055410   -0.316950
     25          1           0        6.939950    0.263410   -1.390500
     26          1           0        6.656270    0.742680   -4.424490
     27          1           0        9.130240    0.624770   -2.542080
     28          1           0        8.909750    0.877670   -5.600760
     29          1           0        9.761950   -1.339590   -3.441460
     30          1           0       11.207840   -1.976010   -2.737390
     31          1           0       13.148220   -1.328110   -3.166600
     32          1           0       14.943810   -0.301190   -3.892860
     33          1           0       12.884580    2.996020   -6.318240
     34          1           0       10.790810    2.432530   -5.890330
 ---------------------------------------------------------------------
                    Distance matrix (angstroms):
                    1          2          3          4          5
     1  C    0.000000
     2  O    1.424012   0.000000
     3  C    2.403681   1.383171   0.000000
     4  N    2.748817   2.388793   1.362428   0.000000
     5  C    3.625630   2.335067   1.344143   2.359186   0.000000
     6  O    4.782559   3.620478   2.379136   2.779276   1.377815
     7  C    6.001037   4.726396   3.630129   4.151825   2.393104
     8  C    7.144220   5.944676   4.741589   4.990644   3.622118
     9  C    8.438929   7.170144   6.053529   6.407774   4.838305
    10  C    9.614224   8.394611   7.212150   7.410999   6.061441
    11  C   10.935166   9.662917   8.546367   8.837286   7.332242
    12  C   11.225252   9.902745   8.884738   9.314243   7.616614
    13  N   10.422762   9.096755   8.148729   8.657465   6.885560
    14  C   12.527419  11.177074  10.220022  10.712250   8.926497
    15  C   13.698168  12.348474  11.372333  11.832327  10.079648
    16  S   14.374058  13.062266  12.008798  12.351512  10.756528
    17  C   13.264539  12.010091  10.881518  11.105341   9.692730
    18  C   11.975981  10.738982   9.585044   9.783393   8.415269
    19  H    1.094700   2.050559   3.307780   3.828038   4.385396
    20  H    1.095534   2.087556   2.725375   2.740789   3.981753
    21  H    1.095486   2.086301   2.729846   2.750738   3.986155
    22  H    2.440413   2.639959   2.086124   1.006013   3.280930
    23  H    3.762293   3.287383   2.039046   1.013926   2.540457
    24  H    4.001624   2.584234   2.127081   3.350626   1.080281
    25  H    6.118443   4.742352   3.894214   4.706560   2.551997
    26  H    7.239868   6.180487   4.866239   4.811113   3.964608
    27  H    8.555054   7.209287   6.240097   6.805045   4.936711
    28  H    9.751201   8.626734   7.357787   7.355254   6.331587
    29  H    9.523614   8.226869   7.238450   7.700547   6.009030
    30  H   10.764408   9.421272   8.578506   9.187177   7.309872
    31  H   12.636937  11.271082  10.398207  10.977891   9.096134
    32  H   14.493317  13.124783  12.203285  12.722786  10.894613
    33  H   13.806185  12.593156  11.433704  11.576656  10.294598
    34  H   11.700221  10.528571   9.321879   9.399798   8.233189
                    6          7          8          9         10
     6  O    0.000000
     7  C    1.373417   0.000000
     8  C    2.363935   1.340401   0.000000
     9  C    3.705822   2.445687   1.442508   0.000000
    10  C    4.834081   3.687270   2.471892   1.345595   0.000000
    11  C    6.185689   4.940230   3.852922   2.501965   1.490393
    12  C    6.596812   5.294983   4.420036   3.056875   2.452289
    13  N    5.976455   4.719441   4.073534   2.938073   2.809890
    14  C    7.973392   6.646802   5.840833   4.453771   3.840960
    15  C    9.093698   7.761476   6.884320   5.462684   4.695954
    16  S    9.676642   8.385604   7.367406   5.973253   5.006413
    17  C    8.530952   7.318548   6.192672   4.898258   3.811542
    18  C    7.224916   6.039413   4.877153   3.623768   2.491588
    19  H    5.647243   6.776916   7.987679   9.220243  10.442837
    20  H    5.000658   6.272421   7.342336   8.678896   9.792576
    21  H    5.009614   6.265413   7.327255   8.652587   9.787981
    22  H    3.784877   5.157250   5.969571   7.394747   8.367581
    23  H    2.412408   3.731898   4.344913   5.785887   6.680322
    24  H    2.089011   2.562754   3.900446   4.886640   6.193591
    25  H    2.080465   1.082036   2.137547   2.740053   4.077799
    26  H    2.590943   2.097196   1.086913   2.174321   2.725587
    27  H    4.030008   2.660513   2.159734   1.089761   2.098859
    28  H    5.006779   4.073973   2.742788   2.121900   1.088947
    29  H    5.065028   3.870401   3.243345   2.336521   2.454891
    30  H    6.539483   5.306342   4.850248   3.797686   3.807198
    31  H    8.250202   6.934353   6.283817   4.968027   4.559892
    32  H    9.969960   8.626598   7.824607   6.408299   5.719456
    33  H    9.102691   7.956112   6.791016   5.595629   4.485502
    34  H    6.989847   5.923231   4.695191   3.656562   2.520675
                   11         12         13         14         15
    11  C    0.000000
    12  C    1.363331   0.000000
    13  N    2.403738   1.385596   0.000000
    14  C    2.514117   1.450901   2.344609   0.000000
    15  C    3.225043   2.580423   3.661775   1.333078   0.000000
    16  S    3.563304   3.559228   4.876237   2.792597   1.696822
    17  C    2.591650   3.229341   4.604917   3.202417   2.737019
    18  C    1.459307   2.518121   3.778469   3.093036   3.200144
    19  H   11.712512  11.930006  11.084954  13.184012  14.364965
    20  H   11.142297  11.411642  10.553615  12.735646  13.937500
    21  H   11.145898  11.556666  10.861693  12.887726  14.007160
    22  H    9.807619  10.303249   9.642673  11.706563  12.824373
    23  H    8.140486   8.702541   8.126344  10.128305  11.214344
    24  H    7.323306   7.462610   6.674148   8.680292   9.845114
    25  H    5.106123   5.248979   4.576624   6.482631   7.622909
    26  H    4.212661   4.956828   4.717586   6.403773   7.382064
    27  H    2.711257   2.894935   2.655321   4.134262   5.188327
    28  H    2.189960   3.265472   3.644925   4.591773   5.332257
    29  H    2.627665   2.083611   1.011737   3.288641   4.572010
    30  H    3.318148   2.104511   1.009333   2.511246   3.822827
    31  H    3.403572   2.119016   2.386557   1.092457   2.015981
    32  H    4.271411   3.461584   4.328032   2.039764   1.089318
    33  H    3.475445   4.277031   5.637396   4.284045   3.704876
    34  H    2.121607   3.404692   4.518587   4.158880   4.282272
                   16         17         18         19         20
    16  S    0.000000
    17  C    1.696235   0.000000
    18  C    2.793696   1.337348   0.000000
    19  H   15.099327  14.051928  12.783669   0.000000
    20  H   14.643992  13.528944  12.217234   1.767819   0.000000
    21  H   14.565078  13.370223  12.086092   1.767882   1.802887
    22  H   13.322702  12.049201  10.726246   3.523830   2.264833
    23  H   11.658397  10.357605   9.030068   4.838983   3.704560
    24  H   10.622706   9.687205   8.462330   4.538361   4.479762
    25  H    8.381316   7.478854   6.274874   6.753341   6.486732
    26  H    7.714589   6.402248   5.066724   8.173278   7.340917
    27  H    5.880543   5.038625   3.902609   9.236610   8.874483
    28  H    5.431901   4.068199   2.765907  10.651037   9.855742
    29  H    5.634881   5.108664   4.080580  10.220015   9.615913
    30  H    5.268881   5.282955   4.614640  11.354657  10.891314
    31  H    3.677576   4.282256   4.160052  13.234141  12.826517
    32  H    2.330387   3.705199   4.282178  15.117581  14.734322
    33  H    2.329228   1.089162   2.046254  14.622021  14.085719
    34  H    3.684955   2.026174   1.093243  12.554738  11.942624
                   21         22         23         24         25
    21  H    0.000000
    22  H    2.259573   0.000000
    23  H    3.704021   1.746866   0.000000
    24  H    4.481044   4.199134   3.618204   0.000000
    25  H    6.478273   5.697453   4.480995   2.244488   0.000000
    26  H    7.335149   5.725392   4.001943   4.489385   3.084683
    27  H    8.833172   7.808641   6.315012   4.743525   2.500817
    28  H    9.861511   8.259963   6.524854   6.636173   4.688680
    29  H    9.962104   8.677680   7.160912   5.880219   3.839236
    30  H   11.281269  10.166857   8.734450   6.983762   5.004398
    31  H   13.080924  11.972284  10.461990   8.761092   6.650570
    32  H   14.847751  13.719858  12.140203  10.592195   8.404901
    33  H   13.834811  12.490893  10.792988  10.351196   8.190751
    34  H   11.720741  10.304680   8.596726   8.395261   6.307351
                   26         27         28         29         30
    26  H    0.000000
    27  H    3.110932   0.000000
    28  H    2.545585   3.077027   0.000000
    29  H    3.866193   2.250923   3.210150   0.000000
    30  H    5.563665   3.334460   4.650118   1.729550   0.000000
    31  H    6.929349   4.510868   5.362390   3.397426   2.090232
    32  H    8.369923   6.039835   6.380949   5.304122   4.254128
    33  H    6.888808   5.829003   4.560862   6.068294   6.352561
    34  H    4.700926   4.151658   2.457606   4.613503   5.436007
                   31         32         33         34
    31  H    0.000000
    32  H    2.192296   0.000000
    33  H    5.357279   4.581974   0.000000
    34  H    5.207543   5.358220   2.210091   0.000000
 Stoichiometry    C13H16N2O2S
 Framework group  C1[X(C13H16N2O2S)]
 Deg. of freedom    96
 Full point group                 C1      NOp   1
 Largest Abelian subgroup         C1      NOp   1
 Largest concise Abelian subgroup C1      NOp   1
                         Standard orientation:                         
 ---------------------------------------------------------------------
 Center     Atomic      Atomic             Coordinates (Angstroms)
 Number     Number       Type             X           Y           Z
 ---------------------------------------------------------------------
      1          6           0       -8.099200    0.340121   -0.405799
      2          8           0       -6.758612    0.727160   -0.690111
      3          6           0       -5.738966   -0.006533   -0.111165
      4          7           0       -6.012437   -1.064219    0.702912
      5          6           0       -4.473755    0.361747   -0.376364
      6          8           0       -3.394367   -0.305085    0.160880
      7          6           0       -2.109764    0.055963   -0.164255
      8          6           0       -1.056690   -0.620910    0.314863
      9          6           0        0.307390   -0.283696   -0.011328
     10          6           0        1.393726   -0.842814    0.552485
     11          6           0        2.789460   -0.394755    0.283332
     12          6           0        3.080824    0.931126    0.409098
     13          7           0        2.138111    1.851605    0.837920
     14          6           0        4.356407    1.565691    0.134633
     15          6           0        5.573542    1.153344   -0.219835
     16         16           0        6.256851   -0.367004   -0.537378
     17          6           0        5.033204   -1.526651   -0.349969
     18          6           0        3.735015   -1.459485   -0.035815
     19          1           0       -8.773141    1.023266   -0.932568
     20          1           0       -8.316477    0.419656    0.665023
     21          1           0       -8.303169   -0.673123   -0.768873
     22          1           0       -6.949907   -1.370994    0.900656
     23          1           0       -5.224859   -1.578371    1.081616
     24          1           0       -4.238956    1.197489   -1.019336
     25          1           0       -2.021645    0.910424   -0.822231
     26          1           0       -1.225858   -1.452156    0.994416
     27          1           0        0.447841    0.528036   -0.724732
     28          1           0        1.297081   -1.670538    1.253440
     29          1           0        1.222918    1.536472    1.132407
     30          1           0        2.300116    2.846938    0.795266
     31          1           0        4.307463    2.651324    0.246297
     32          1           0        6.303810    1.953828   -0.331853
     33          1           0        5.403828   -2.534406   -0.532566
     34          1           0        3.258308   -2.442985   -0.010183
 ---------------------------------------------------------------------
 Rotational constants (GHZ):           1.6129122           0.0840629           0.0814262
 Standard basis: 6-31G(2df,p) (6D, 7F)
 There are   642 symmetry adapted cartesian basis functions of A   symmetry.
 There are   588 symmetry adapted basis functions of A   symmetry.
   588 basis functions,   928 primitive gaussians,   642 cartesian basis functions
    70 alpha electrons       70 beta electrons
       nuclear repulsion energy      1253.6817208691 Hartrees.
 NAtoms=   34 NActive=   34 NUniq=   34 SFac= 1.00D+00 NAtFMM=   60 NAOKFM=F Big=F
 Integral buffers will be    131072 words long.
 Raffenetti 2 integral format.
 Two-electron integral symmetry is turned on.
 One-electron integrals computed using PRISM.
 PrsmSu:  requested number of processors reduced to:  12 ShMem   1 Linda.
 NBasis=   588 RedAO= T EigKep=  2.34D-04  NBF=   588
 NBsUse=   588 1.00D-06 EigRej= -1.00D+00 NBFU=   588
 ExpMin= 1.17D-01 ExpMax= 2.19D+04 ExpMxC= 3.30D+03 IAcc=3 IRadAn=         5 AccDes= 0.00D+00
 Harris functional with IExCor=  402 and IRadAn=       5 diagonalized for initial guess.
 HarFok:  IExCor=  402 AccDes= 0.00D+00 IRadAn=         5 IDoV= 1 UseB2=F ITyADJ=14
 ICtDFT=  3500011 ScaDFX=  1.000000  1.000000  1.000000  1.000000
 FoFCou: FMM=F IPFlag=           0 FMFlag=      100000 FMFlg1=           0
         NFxFlg=           0 DoJE=T BraDBF=F KetDBF=T FulRan=T
         wScrn=  0.000000 ICntrl=       500 IOpCl=  0 I1Cent=   200000004 NGrid=           0
         NMat0=    1 NMatS0=      1 NMatT0=    0 NMatD0=    1 NMtDS0=    0 NMtDT0=    0
 Petite list used in FoFCou.
 Requested convergence on RMS density matrix=1.00D-08 within 128 cycles.
 Requested convergence on MAX density matrix=1.00D-06.
 Requested convergence on             energy=1.00D-06.
 No special actions if energy rises.
 Integral accuracy reduced to 1.0D-05 until final iterations.
 Initial convergence to 1.0D-05 achieved.  Increase integral accuracy.
 SCF Done:  E(RB3LYP) =  -1163.05331329     A.U. after   16 cycles
            NFock= 16  Conv=0.89D-08     -V/T= 2.0059

 **********************************************************************

            Population analysis using the SCF density.

 **********************************************************************

 Orbital symmetries:
       Occupied  (A) (A) (A) (A) (A) (A) (A) (A) (A) (A) (A) (A)
                 (A) (A) (A) (A) (A) (A) (A) (A) (A) (A) (A) (A)
                 (A) (A) (A) (A) (A) (A) (A) (A) (A) (A) (A) (A)
                 (A) (A) (A) (A) (A) (A) (A) (A) (A) (A) (A) (A)
                 (A) (A) (A) (A) (A) (A) (A) (A) (A) (A) (A) (A)
                 (A) (A) (A) (A) (A) (A) (A) (A) (A) (A)
       Virtual   (A) (A) (A) (A) (A) (A) (A) (A) (A) (A) (A) (A)
                 (A) (A) (A) (A) (A) (A) (A) (A) (A) (A) (A) (A)
                 (A) (A) (A) (A) (A) (A) (A) (A) (A) (A) (A) (A)
                 (A) (A) (A) (A) (A) (A) (A) (A) (A) (A) (A) (A)
                 (A) (A) (A) (A) (A) (A) (A) (A) (A) (A) (A) (A)
                 (A) (A) (A) (A) (A) (A) (A) (A) (A) (A) (A) (A)
                 (A) (A) (A) (A) (A) (A) (A) (A) (A) (A) (A) (A)
                 (A) (A) (A) (A) (A) (A) (A) (A) (A) (A) (A) (A)
                 (A) (A) (A) (A) (A) (A) (A) (A) (A) (A) (A) (A)
                 (A) (A) (A) (A) (A) (A) (A) (A) (A) (A) (A) (A)
                 (A) (A) (A) (A) (A) (A) (A) (A) (A) (A) (A) (A)
                 (A) (A) (A) (A) (A) (A) (A) (A) (A) (A) (A) (A)
                 (A) (A) (A) (A) (A) (A) (A) (A) (A) (A) (A) (A)
                 (A) (A) (A) (A) (A) (A) (A) (A) (A) (A) (A) (A)
                 (A) (A) (A) (A) (A) (A) (A) (A) (A) (A) (A) (A)
                 (A) (A) (A) (A) (A) (A) (A) (A) (A) (A) (A) (A)
                 (A) (A) (A) (A) (A) (A) (A) (A) (A) (A) (A) (A)
                 (A) (A) (A) (A) (A) (A) (A) (A) (A) (A) (A) (A)
                 (A) (A) (A) (A) (A) (A) (A) (A) (A) (A) (A) (A)
                 (A) (A) (A) (A) (A) (A) (A) (A) (A) (A) (A) (A)
                 (A) (A) (A) (A) (A) (A) (A) (A) (A) (A) (A) (A)
                 (A) (A) (A) (A) (A) (A) (A) (A) (A) (A) (A) (A)
                 (A) (A) (A) (A) (A) (A) (A) (A) (A) (A) (A) (A)
                 (A) (A) (A) (A) (A) (A) (A) (A) (A) (A) (A) (A)
                 (A) (A) (A) (A) (A) (A) (A) (A) (A) (A) (A) (A)
                 (A) (A) (A) (A) (A) (A) (A) (A) (A) (A) (A) (A)
                 (A) (A) (A) (A) (A) (A) (A) (A) (A) (A) (A) (A)
                 (A) (A) (A) (A) (A) (A) (A) (A) (A) (A) (A) (A)
                 (A) (A) (A) (A) (A) (A) (A) (A) (A) (A) (A) (A)
                 (A) (A) (A) (A) (A) (A) (A) (A) (A) (A) (A) (A)
                 (A) (A) (A) (A) (A) (A) (A) (A) (A) (A) (A) (A)
                 (A) (A) (A) (A) (A) (A) (A) (A) (A) (A) (A) (A)
                 (A) (A) (A) (A) (A) (A) (A) (A) (A) (A) (A) (A)
                 (A) (A) (A) (A) (A) (A) (A) (A) (A) (A) (A) (A)
                 (A) (A) (A) (A) (A) (A) (A) (A) (A) (A) (A) (A)
                 (A) (A) (A) (A) (A) (A) (A) (A) (A) (A) (A) (A)
                 (A) (A) (A) (A) (A) (A) (A) (A) (A) (A) (A) (A)
                 (A) (A) (A) (A) (A) (A) (A) (A) (A) (A) (A) (A)
                 (A) (A) (A) (A) (A) (A) (A) (A) (A) (A) (A) (A)
                 (A) (A) (A) (A) (A) (A) (A) (A) (A) (A) (A) (A)
                 (A) (A) (A) (A) (A) (A) (A) (A) (A) (A) (A) (A)
                 (A) (A) (A) (A) (A) (A) (A) (A) (A) (A) (A) (A)
                 (A) (A) (A) (A) (A) (A) (A) (A) (A) (A) (A) (A)
                 (A) (A)
 The electronic state is 1-A.
 Alpha  occ. eigenvalues --  -88.87829 -19.17419 -19.17236 -14.34001 -14.33528
 Alpha  occ. eigenvalues --  -10.26231 -10.24831 -10.23233 -10.22394 -10.21277
 Alpha  occ. eigenvalues --  -10.19512 -10.18583 -10.18415 -10.17543 -10.17360
 Alpha  occ. eigenvalues --  -10.16934 -10.16880 -10.16167  -7.94243  -5.90727
 Alpha  occ. eigenvalues --   -5.90261  -5.89884  -1.06747  -1.05831  -0.91505
 Alpha  occ. eigenvalues --   -0.90739  -0.83605  -0.80337  -0.77718  -0.76229
 Alpha  occ. eigenvalues --   -0.75319  -0.72268  -0.68379  -0.66253  -0.64102
 Alpha  occ. eigenvalues --   -0.59605  -0.57553  -0.56395  -0.55426  -0.54332
 Alpha  occ. eigenvalues --   -0.53316  -0.52580  -0.49589  -0.48022  -0.47608
 Alpha  occ. eigenvalues --   -0.47549  -0.46345  -0.44455  -0.43862  -0.43270
 Alpha  occ. eigenvalues --   -0.42349  -0.41660  -0.40735  -0.38645  -0.37307
 Alpha  occ. eigenvalues --   -0.37197  -0.36623  -0.34912  -0.34722  -0.33386
 Alpha  occ. eigenvalues --   -0.32865  -0.32467  -0.31200  -0.30581  -0.28826
 Alpha  occ. eigenvalues --   -0.28124  -0.23663  -0.21042  -0.15995  -0.14046
 Alpha virt. eigenvalues --   -0.05066   0.00087   0.06569   0.06837   0.07195
 Alpha virt. eigenvalues --    0.07730   0.08286   0.08822   0.09032   0.09787
 Alpha virt. eigenvalues --    0.11243   0.11878   0.12341   0.12509   0.13844
 Alpha virt. eigenvalues --    0.14338   0.14790   0.15274   0.15808   0.15908
 Alpha virt. eigenvalues --    0.16715   0.17985   0.18707   0.19197   0.20132
 Alpha virt. eigenvalues --    0.22163   0.23008   0.25950   0.27120   0.28051
 Alpha virt. eigenvalues --    0.28637   0.30185   0.32303   0.33359   0.34468
 Alpha virt. eigenvalues --    0.35306   0.35380   0.37028   0.38379   0.38521
 Alpha virt. eigenvalues --    0.39289   0.41555   0.42273   0.43713   0.43750
 Alpha virt. eigenvalues --    0.44470   0.45801   0.46414   0.46448   0.47329
 Alpha virt. eigenvalues --    0.48027   0.49132   0.49621   0.49805   0.50215
 Alpha virt. eigenvalues --    0.51029   0.51712   0.52210   0.53166   0.53512
 Alpha virt. eigenvalues --    0.53759   0.54407   0.54923   0.55318   0.55873
 Alpha virt. eigenvalues --    0.56134   0.57635   0.58959   0.59203   0.61245
 Alpha virt. eigenvalues --    0.62109   0.62726   0.64062   0.65154   0.65441
 Alpha virt. eigenvalues --    0.65551   0.68294   0.68376   0.69031   0.69570
 Alpha virt. eigenvalues --    0.71424   0.72228   0.72497   0.73302   0.73772
 Alpha virt. eigenvalues --    0.74063   0.74660   0.74893   0.75344   0.75836
 Alpha virt. eigenvalues --    0.75915   0.76967   0.77299   0.77703   0.77790
 Alpha virt. eigenvalues --    0.78156   0.78856   0.79397   0.80278   0.80797
 Alpha virt. eigenvalues --    0.81491   0.81892   0.82989   0.83208   0.83486
 Alpha virt. eigenvalues --    0.84780   0.85312   0.85965   0.86945   0.87307
 Alpha virt. eigenvalues --    0.87772   0.88378   0.89668   0.89809   0.91406
 Alpha virt. eigenvalues --    0.92324   0.92912   0.93356   0.94197   0.94586
 Alpha virt. eigenvalues --    0.96421   0.97008   0.98501   0.99101   1.00667
 Alpha virt. eigenvalues --    1.01851   1.02576   1.03043   1.04026   1.05446
 Alpha virt. eigenvalues --    1.06009   1.06745   1.09817   1.11010   1.12831
 Alpha virt. eigenvalues --    1.13133   1.13910   1.15554   1.17114   1.18330
 Alpha virt. eigenvalues --    1.20117   1.21372   1.22024   1.22794   1.23326
 Alpha virt. eigenvalues --    1.25688   1.27887   1.28942   1.30050   1.30306
 Alpha virt. eigenvalues --    1.30618   1.31233   1.32634   1.34372   1.34705
 Alpha virt. eigenvalues --    1.36061   1.36652   1.37068   1.38713   1.40523
 Alpha virt. eigenvalues --    1.41073   1.42463   1.43169   1.44247   1.44871
 Alpha virt. eigenvalues --    1.46885   1.47352   1.48143   1.48885   1.50478
 Alpha virt. eigenvalues --    1.50749   1.50951   1.53009   1.53336   1.55397
 Alpha virt. eigenvalues --    1.56735   1.57806   1.58413   1.59681   1.60376
 Alpha virt. eigenvalues --    1.62866   1.65527   1.67098   1.69366   1.69613
 Alpha virt. eigenvalues --    1.70094   1.70508   1.71923   1.72300   1.72884
 Alpha virt. eigenvalues --    1.76713   1.77280   1.78138   1.80192   1.80776
 Alpha virt. eigenvalues --    1.80993   1.82220   1.84127   1.85052   1.86233
 Alpha virt. eigenvalues --    1.87038   1.87795   1.88377   1.90694   1.91369
 Alpha virt. eigenvalues --    1.92893   1.93020   1.94193   1.95724   1.96635
 Alpha virt. eigenvalues --    1.98911   1.99006   2.01268   2.02200   2.04074
 Alpha virt. eigenvalues --    2.05536   2.07810   2.08972   2.10924   2.13214
 Alpha virt. eigenvalues --    2.13877   2.14892   2.17118   2.18418   2.18601
 Alpha virt. eigenvalues --    2.19670   2.21555   2.24205   2.25852   2.28350
 Alpha virt. eigenvalues --    2.29615   2.30286   2.30932   2.32453   2.34503
 Alpha virt. eigenvalues --    2.35031   2.36573   2.37639   2.38683   2.39392
 Alpha virt. eigenvalues --    2.40486   2.41810   2.42686   2.44202   2.46467
 Alpha virt. eigenvalues --    2.51179   2.51641   2.52959   2.54930   2.55459
 Alpha virt. eigenvalues --    2.56867   2.58471   2.59647   2.63481   2.65236
 Alpha virt. eigenvalues --    2.70539   2.70685   2.73366   2.74769   2.75502
 Alpha virt. eigenvalues --    2.79777   2.80425   2.81762   2.82672   2.83748
 Alpha virt. eigenvalues --    2.83944   2.85434   2.85910   2.86740   2.87598
 Alpha virt. eigenvalues --    2.88229   2.90467   2.90785   2.91710   2.92420
 Alpha virt. eigenvalues --    2.92959   2.94848   2.95516   2.97128   2.98517
 Alpha virt. eigenvalues --    2.98816   2.99758   3.00489   3.01058   3.01980
 Alpha virt. eigenvalues --    3.02589   3.03860   3.05855   3.06532   3.08236
 Alpha virt. eigenvalues --    3.08847   3.09290   3.10064   3.11365   3.12328
 Alpha virt. eigenvalues --    3.12841   3.14050   3.15338   3.16186   3.16808
 Alpha virt. eigenvalues --    3.18801   3.19837   3.20463   3.20488   3.22070
 Alpha virt. eigenvalues --    3.23784   3.24116   3.25279   3.26768   3.28361
 Alpha virt. eigenvalues --    3.30203   3.30363   3.32142   3.32937   3.34259
 Alpha virt. eigenvalues --    3.35364   3.36394   3.38122   3.38729   3.39460
 Alpha virt. eigenvalues --    3.40174   3.40421   3.42459   3.43249   3.43829
 Alpha virt. eigenvalues --    3.44296   3.45203   3.46374   3.46830   3.48717
 Alpha virt. eigenvalues --    3.49653   3.50862   3.51765   3.53267   3.54681
 Alpha virt. eigenvalues --    3.55249   3.57751   3.58050   3.60164   3.61868
 Alpha virt. eigenvalues --    3.62610   3.63643   3.66048   3.66194   3.67428
 Alpha virt. eigenvalues --    3.68923   3.70126   3.70903   3.72613   3.74312
 Alpha virt. eigenvalues --    3.77517   3.78299   3.80272   3.82234   3.83436
 Alpha virt. eigenvalues --    3.84204   3.85717   3.87757   3.89542   3.93394
 Alpha virt. eigenvalues --    3.94596   3.95944   3.96587   3.98698   4.00062
 Alpha virt. eigenvalues --    4.02459   4.06271   4.08623   4.08850   4.09534
 Alpha virt. eigenvalues --    4.12280   4.12357   4.13426   4.14791   4.15071
 Alpha virt. eigenvalues --    4.15921   4.17303   4.17914   4.19413   4.20239
 Alpha virt. eigenvalues --    4.21476   4.23769   4.24493   4.27834   4.28432
 Alpha virt. eigenvalues --    4.29013   4.29824   4.31306   4.32407   4.33469
 Alpha virt. eigenvalues --    4.34931   4.35600   4.36698   4.37048   4.38675
 Alpha virt. eigenvalues --    4.39964   4.40439   4.42147   4.43540   4.44161
 Alpha virt. eigenvalues --    4.44926   4.45614   4.46310   4.47253   4.47802
 Alpha virt. eigenvalues --    4.48381   4.48734   4.49107   4.51391   4.52881
 Alpha virt. eigenvalues --    4.53508   4.54771   4.55135   4.56442   4.57029
 Alpha virt. eigenvalues --    4.58123   4.60572   4.61790   4.62297   4.63465
 Alpha virt. eigenvalues --    4.64085   4.64941   4.66300   4.66661   4.67978
 Alpha virt. eigenvalues --    4.68263   4.69461   4.70322   4.70930   4.72549
 Alpha virt. eigenvalues --    4.73238   4.73833   4.74422   4.75443   4.76674
 Alpha virt. eigenvalues --    4.77346   4.78158   4.80355   4.81965   4.84611
 Alpha virt. eigenvalues --    4.86242   4.88491   4.89023   4.89800   4.90031
 Alpha virt. eigenvalues --    4.92525   4.94619   4.97710   4.98344   4.99405
 Alpha virt. eigenvalues --    5.01844   5.05681   5.08902   5.11507   5.13346
 Alpha virt. eigenvalues --    5.14635   5.20258   5.20982   5.22697   5.25773
 Alpha virt. eigenvalues --    5.27277   5.29458   5.31357   5.33124   5.36816
 Alpha virt. eigenvalues --    5.37639   5.39761   5.43382   5.45732   5.51605
 Alpha virt. eigenvalues --    5.53686   5.54139   5.56097   5.59460   5.64089
 Alpha virt. eigenvalues --    5.69155   5.71192   5.76164   5.76913   5.81867
 Alpha virt. eigenvalues --    5.82922   5.87008   5.88340   5.88994   5.90893
 Alpha virt. eigenvalues --    5.92296   5.92992   5.97409   5.98491   6.08235
 Alpha virt. eigenvalues --    6.11937   6.21418   6.31775   6.43092   6.61381
 Alpha virt. eigenvalues --    6.63895   6.95073   7.12019   7.15934   9.91046
 Alpha virt. eigenvalues --   10.12621  10.17512  10.33544  10.75394  10.98309
 Alpha virt. eigenvalues --   11.11736  11.26665  11.26865  11.39739  11.49352
 Alpha virt. eigenvalues --   11.62050  11.91041  12.03463  12.21033  13.11242
 Alpha virt. eigenvalues --   13.44361  13.97847  14.25814
          Condensed to atoms (all electrons):
               1          2          3          4          5          6
     1  C    4.842489   0.366345  -0.083183  -0.007471   0.002364  -0.000020
     2  O    0.366345   7.628595   0.415647  -0.037104  -0.030664   0.000274
     3  C   -0.083183   0.415647   4.550860   0.322373   0.576407  -0.019975
     4  N   -0.007471  -0.037104   0.322373   6.635039  -0.027362  -0.001456
     5  C    0.002364  -0.030664   0.576407  -0.027362   4.909209   0.365701
     6  O   -0.000020   0.000274  -0.019975  -0.001456   0.365701   7.577771
     7  C    0.000002  -0.000005   0.004245   0.000017  -0.082442   0.401843
     8  C   -0.000000  -0.000000  -0.000363   0.000001   0.003328  -0.017193
     9  C    0.000000  -0.000000  -0.000002   0.000000   0.000008   0.001046
    10  C   -0.000000   0.000000  -0.000000   0.000000  -0.000002  -0.000020
    11  C    0.000000  -0.000000  -0.000000  -0.000000  -0.000000   0.000000
    12  C    0.000000   0.000000  -0.000000   0.000000  -0.000000   0.000000
    13  N   -0.000000  -0.000000  -0.000000  -0.000000  -0.000000  -0.000000
    14  C    0.000000  -0.000000   0.000000   0.000000   0.000000   0.000000
    15  C    0.000000   0.000000   0.000000   0.000000   0.000000   0.000000
    16  S    0.000000  -0.000000   0.000000  -0.000000   0.000000  -0.000000
    17  C    0.000000   0.000000   0.000000   0.000000  -0.000000   0.000000
    18  C    0.000000   0.000000  -0.000000   0.000000  -0.000000   0.000000
    19  H    0.387627  -0.018537   0.003115   0.000139  -0.000155   0.000000
    20  H    0.371085  -0.029625  -0.002946   0.002965   0.000334  -0.000001
    21  H    0.371114  -0.029899  -0.002797   0.002771   0.000320  -0.000002
    22  H    0.007952  -0.004859  -0.037202   0.356128   0.004376   0.000212
    23  H   -0.000006   0.001958  -0.027391   0.348223  -0.005610   0.015004
    24  H   -0.000240  -0.000440  -0.039121   0.005151   0.352935  -0.043181
    25  H    0.000000  -0.000002  -0.000189   0.000039  -0.003528  -0.039689
    26  H   -0.000000   0.000000  -0.000013  -0.000007   0.000070  -0.003034
    27  H   -0.000000   0.000000  -0.000000   0.000000   0.000001  -0.000055
    28  H    0.000000  -0.000000   0.000000  -0.000000   0.000000   0.000000
    29  H    0.000000  -0.000000   0.000000  -0.000000   0.000000   0.000001
    30  H   -0.000000   0.000000  -0.000000   0.000000   0.000000   0.000000
    31  H   -0.000000   0.000000  -0.000000  -0.000000  -0.000000  -0.000000
    32  H    0.000000   0.000000   0.000000   0.000000   0.000000   0.000000
    33  H    0.000000   0.000000   0.000000  -0.000000   0.000000  -0.000000
    34  H   -0.000000   0.000000  -0.000000   0.000000  -0.000000   0.000000
               7          8          9         10         11         12
     1  C    0.000002  -0.000000   0.000000  -0.000000   0.000000   0.000000
     2  O   -0.000005  -0.000000  -0.000000   0.000000  -0.000000   0.000000
     3  C    0.004245  -0.000363  -0.000002  -0.000000  -0.000000  -0.000000
     4  N    0.000017   0.000001   0.000000   0.000000  -0.000000   0.000000
     5  C   -0.082442   0.003328   0.000008  -0.000002  -0.000000  -0.000000
     6  O    0.401843  -0.017193   0.001046  -0.000020   0.000000   0.000000
     7  C    4.624987   0.656932   0.006862  -0.001783  -0.000095  -0.000022
     8  C    0.656932   4.901040   0.414390  -0.005630   0.003619   0.000470
     9  C    0.006862   0.414390   4.767108   0.634989  -0.017119  -0.010946
    10  C   -0.001783  -0.005630   0.634989   5.070663   0.351178  -0.014858
    11  C   -0.000095   0.003619  -0.017119   0.351178   4.842171   0.513118
    12  C   -0.000022   0.000470  -0.010946  -0.014858   0.513118   4.641014
    13  N    0.000076  -0.000585  -0.012507  -0.034866  -0.039671   0.380146
    14  C   -0.000000  -0.000006   0.000440   0.009221  -0.018875   0.308054
    15  C   -0.000000   0.000000   0.000006   0.000073  -0.025244   0.016119
    16  S    0.000000  -0.000000  -0.000001  -0.000233  -0.012762  -0.011577
    17  C   -0.000000   0.000002  -0.000054   0.007054   0.015184  -0.028850
    18  C   -0.000001  -0.000136   0.002528  -0.061696   0.363039   0.023383
    19  H   -0.000000   0.000000  -0.000000   0.000000  -0.000000  -0.000000
    20  H   -0.000000   0.000000  -0.000000  -0.000000   0.000000  -0.000000
    21  H   -0.000000   0.000000   0.000000  -0.000000  -0.000000   0.000000
    22  H   -0.000001  -0.000000   0.000000  -0.000000  -0.000000  -0.000000
    23  H   -0.000220  -0.000031   0.000002  -0.000000  -0.000000  -0.000000
    24  H   -0.006809   0.000329   0.000050   0.000000   0.000000  -0.000000
    25  H    0.346260  -0.044763  -0.006490   0.000217   0.000007  -0.000005
    26  H   -0.027934   0.341692  -0.043109  -0.006787   0.000025   0.000002
    27  H   -0.006844  -0.052495   0.354650  -0.037318  -0.011505   0.000126
    28  H    0.000355  -0.011124  -0.044164   0.342380  -0.038854   0.001155
    29  H   -0.000070   0.001577   0.016240   0.015581  -0.015906  -0.020334
    30  H   -0.000002  -0.000026   0.000277   0.000488   0.003584  -0.034978
    31  H    0.000000  -0.000000  -0.000012  -0.000217   0.006425  -0.054340
    32  H    0.000000  -0.000000   0.000000   0.000002  -0.000114   0.006286
    33  H    0.000000  -0.000000  -0.000000  -0.000178   0.006049  -0.000028
    34  H   -0.000000  -0.000061   0.000730  -0.015702  -0.050228   0.006508
              13         14         15         16         17         18
     1  C   -0.000000   0.000000   0.000000   0.000000   0.000000   0.000000
     2  O   -0.000000  -0.000000   0.000000  -0.000000   0.000000   0.000000
     3  C   -0.000000   0.000000   0.000000   0.000000   0.000000  -0.000000
     4  N   -0.000000   0.000000   0.000000  -0.000000   0.000000   0.000000
     5  C   -0.000000   0.000000   0.000000   0.000000  -0.000000  -0.000000
     6  O   -0.000000   0.000000   0.000000  -0.000000   0.000000   0.000000
     7  C    0.000076  -0.000000  -0.000000   0.000000  -0.000000  -0.000001
     8  C   -0.000585  -0.000006   0.000000  -0.000000   0.000002  -0.000136
     9  C   -0.012507   0.000440   0.000006  -0.000001  -0.000054   0.002528
    10  C   -0.034866   0.009221   0.000073  -0.000233   0.007054  -0.061696
    11  C   -0.039671  -0.018875  -0.025244  -0.012762   0.015184   0.363039
    12  C    0.380146   0.308054   0.016119  -0.011577  -0.028850   0.023383
    13  N    6.653182  -0.039118   0.004227  -0.000106  -0.000028   0.005285
    14  C   -0.039118   4.925672   0.634845  -0.028121   0.004030  -0.035578
    15  C    0.004227   0.634845   4.870074   0.328959  -0.007299   0.002604
    16  S   -0.000106  -0.028121   0.328959  15.640330   0.290166  -0.020222
    17  C   -0.000028   0.004030  -0.007299   0.290166   4.969179   0.616624
    18  C    0.005285  -0.035578   0.002604  -0.020222   0.616624   4.861972
    19  H    0.000000   0.000000   0.000000   0.000000   0.000000   0.000000
    20  H    0.000000  -0.000000   0.000000   0.000000   0.000000   0.000000
    21  H   -0.000000   0.000000   0.000000   0.000000   0.000000  -0.000000
    22  H    0.000000  -0.000000   0.000000  -0.000000   0.000000   0.000000
    23  H    0.000000   0.000000  -0.000000   0.000000  -0.000000   0.000000
    24  H    0.000000   0.000000   0.000000   0.000000  -0.000000   0.000000
    25  H   -0.000016  -0.000000   0.000000  -0.000000   0.000000   0.000000
    26  H   -0.000016  -0.000000   0.000000  -0.000000  -0.000000  -0.000005
    27  H    0.003560  -0.000384  -0.000008   0.000002   0.000012   0.000610
    28  H    0.000344  -0.000213  -0.000000   0.000002   0.000162  -0.001601
    29  H    0.333524   0.006266  -0.000121   0.000003  -0.000011  -0.000414
    30  H    0.354958  -0.004788   0.000026   0.000027  -0.000008  -0.000111
    31  H   -0.013279   0.356315  -0.046126   0.007960  -0.000111  -0.000033
    32  H   -0.000101  -0.017522   0.354646  -0.057021   0.001991   0.000133
    33  H    0.000001   0.000130   0.002145  -0.058440   0.354934  -0.016379
    34  H   -0.000056  -0.000293  -0.000116   0.008172  -0.050160   0.361536
              19         20         21         22         23         24
     1  C    0.387627   0.371085   0.371114   0.007952  -0.000006  -0.000240
     2  O   -0.018537  -0.029625  -0.029899  -0.004859   0.001958  -0.000440
     3  C    0.003115  -0.002946  -0.002797  -0.037202  -0.027391  -0.039121
     4  N    0.000139   0.002965   0.002771   0.356128   0.348223   0.005151
     5  C   -0.000155   0.000334   0.000320   0.004376  -0.005610   0.352935
     6  O    0.000000  -0.000001  -0.000002   0.000212   0.015004  -0.043181
     7  C   -0.000000  -0.000000  -0.000000  -0.000001  -0.000220  -0.006809
     8  C    0.000000   0.000000   0.000000  -0.000000  -0.000031   0.000329
     9  C   -0.000000  -0.000000   0.000000   0.000000   0.000002   0.000050
    10  C    0.000000  -0.000000  -0.000000  -0.000000  -0.000000   0.000000
    11  C   -0.000000   0.000000  -0.000000  -0.000000  -0.000000   0.000000
    12  C   -0.000000  -0.000000   0.000000  -0.000000  -0.000000  -0.000000
    13  N    0.000000   0.000000  -0.000000   0.000000   0.000000   0.000000
    14  C    0.000000  -0.000000   0.000000  -0.000000   0.000000   0.000000
    15  C    0.000000   0.000000   0.000000   0.000000  -0.000000   0.000000
    16  S    0.000000   0.000000   0.000000  -0.000000   0.000000   0.000000
    17  C    0.000000   0.000000   0.000000   0.000000  -0.000000  -0.000000
    18  C    0.000000   0.000000  -0.000000   0.000000   0.000000   0.000000
    19  H    0.550229  -0.033412  -0.033546  -0.000465  -0.000002  -0.000013
    20  H   -0.033412   0.612517  -0.049517   0.002749  -0.000042   0.000028
    21  H   -0.033546  -0.049517   0.613240   0.002944  -0.000039   0.000027
    22  H   -0.000465   0.002749   0.002944   0.436850  -0.025539  -0.000156
    23  H   -0.000002  -0.000042  -0.000039  -0.025539   0.418324   0.000512
    24  H   -0.000013   0.000028   0.000027  -0.000156   0.000512   0.623944
    25  H    0.000000  -0.000000  -0.000000   0.000000   0.000082   0.012542
    26  H    0.000000  -0.000000  -0.000000   0.000000   0.000130   0.000039
    27  H    0.000000   0.000000  -0.000000   0.000000   0.000000   0.000003
    28  H    0.000000  -0.000000   0.000000   0.000000   0.000000  -0.000000
    29  H   -0.000000  -0.000000   0.000000  -0.000000  -0.000000  -0.000000
    30  H    0.000000  -0.000000   0.000000  -0.000000   0.000000  -0.000000
    31  H    0.000000   0.000000  -0.000000   0.000000   0.000000   0.000000
    32  H    0.000000   0.000000   0.000000   0.000000   0.000000   0.000000
    33  H    0.000000   0.000000   0.000000  -0.000000  -0.000000  -0.000000
    34  H    0.000000   0.000000  -0.000000  -0.000000   0.000000   0.000000
              25         26         27         28         29         30
     1  C    0.000000  -0.000000  -0.000000   0.000000   0.000000  -0.000000
     2  O   -0.000002   0.000000   0.000000  -0.000000  -0.000000   0.000000
     3  C   -0.000189  -0.000013  -0.000000   0.000000   0.000000  -0.000000
     4  N    0.000039  -0.000007   0.000000  -0.000000  -0.000000   0.000000
     5  C   -0.003528   0.000070   0.000001   0.000000   0.000000   0.000000
     6  O   -0.039689  -0.003034  -0.000055   0.000000   0.000001   0.000000
     7  C    0.346260  -0.027934  -0.006844   0.000355  -0.000070  -0.000002
     8  C   -0.044763   0.341692  -0.052495  -0.011124   0.001577  -0.000026
     9  C   -0.006490  -0.043109   0.354650  -0.044164   0.016240   0.000277
    10  C    0.000217  -0.006787  -0.037318   0.342380   0.015581   0.000488
    11  C    0.000007   0.000025  -0.011505  -0.038854  -0.015906   0.003584
    12  C   -0.000005   0.000002   0.000126   0.001155  -0.020334  -0.034978
    13  N   -0.000016  -0.000016   0.003560   0.000344   0.333524   0.354958
    14  C   -0.000000  -0.000000  -0.000384  -0.000213   0.006266  -0.004788
    15  C    0.000000   0.000000  -0.000008  -0.000000  -0.000121   0.000026
    16  S   -0.000000  -0.000000   0.000002   0.000002   0.000003   0.000027
    17  C    0.000000  -0.000000   0.000012   0.000162  -0.000011  -0.000008
    18  C    0.000000  -0.000005   0.000610  -0.001601  -0.000414  -0.000111
    19  H    0.000000   0.000000   0.000000   0.000000  -0.000000   0.000000
    20  H   -0.000000  -0.000000   0.000000  -0.000000  -0.000000  -0.000000
    21  H   -0.000000  -0.000000  -0.000000   0.000000   0.000000   0.000000
    22  H    0.000000   0.000000   0.000000   0.000000  -0.000000  -0.000000
    23  H    0.000082   0.000130   0.000000   0.000000  -0.000000   0.000000
    24  H    0.012542   0.000039   0.000003  -0.000000  -0.000000  -0.000000
    25  H    0.619002   0.006955   0.005804   0.000012   0.000047   0.000001
    26  H    0.006955   0.636452   0.005699   0.005493   0.000064   0.000000
    27  H    0.005804   0.005699   0.642301   0.007182  -0.001305   0.000249
    28  H    0.000012   0.005493   0.007182   0.650668   0.000467   0.000003
    29  H    0.000047   0.000064  -0.001305   0.000467   0.431898  -0.027228
    30  H    0.000001   0.000000   0.000249   0.000003  -0.027228   0.445731
    31  H   -0.000000   0.000000   0.000015   0.000004   0.000059   0.007740
    32  H   -0.000000  -0.000000  -0.000000  -0.000000   0.000004  -0.000035
    33  H    0.000000   0.000000   0.000000  -0.000002   0.000000  -0.000000
    34  H   -0.000000   0.000002   0.000040   0.004897  -0.000004   0.000003
              31         32         33         34
     1  C   -0.000000   0.000000   0.000000  -0.000000
     2  O    0.000000   0.000000   0.000000   0.000000
     3  C   -0.000000   0.000000   0.000000  -0.000000
     4  N   -0.000000   0.000000  -0.000000   0.000000
     5  C   -0.000000   0.000000   0.000000  -0.000000
     6  O   -0.000000   0.000000  -0.000000   0.000000
     7  C    0.000000   0.000000   0.000000  -0.000000
     8  C   -0.000000  -0.000000  -0.000000  -0.000061
     9  C   -0.000012   0.000000  -0.000000   0.000730
    10  C   -0.000217   0.000002  -0.000178  -0.015702
    11  C    0.006425  -0.000114   0.006049  -0.050228
    12  C   -0.054340   0.006286  -0.000028   0.006508
    13  N   -0.013279  -0.000101   0.000001  -0.000056
    14  C    0.356315  -0.017522   0.000130  -0.000293
    15  C   -0.046126   0.354646   0.002145  -0.000116
    16  S    0.007960  -0.057021  -0.058440   0.008172
    17  C   -0.000111   0.001991   0.354934  -0.050160
    18  C   -0.000033   0.000133  -0.016379   0.361536
    19  H    0.000000   0.000000   0.000000   0.000000
    20  H    0.000000   0.000000   0.000000   0.000000
    21  H   -0.000000   0.000000   0.000000  -0.000000
    22  H    0.000000   0.000000  -0.000000  -0.000000
    23  H    0.000000   0.000000  -0.000000   0.000000
    24  H    0.000000   0.000000  -0.000000   0.000000
    25  H   -0.000000  -0.000000   0.000000  -0.000000
    26  H    0.000000  -0.000000   0.000000   0.000002
    27  H    0.000015  -0.000000   0.000000   0.000040
    28  H    0.000004  -0.000000  -0.000002   0.004897
    29  H    0.000059   0.000004   0.000000  -0.000004
    30  H    0.007740  -0.000035  -0.000000   0.000003
    31  H    0.680457  -0.019390   0.000004   0.000003
    32  H   -0.019390   0.607463  -0.000106   0.000003
    33  H    0.000004  -0.000106   0.619205  -0.018073
    34  H    0.000003   0.000003  -0.018073   0.667640
 Mulliken charges:
               1
     1  C   -0.258058
     2  O   -0.261684
     3  C    0.340534
     4  N   -0.599447
     5  C   -0.065290
     6  O   -0.237224
     7  C    0.084648
     8  C   -0.190965
     9  C   -0.064924
    10  C   -0.252556
    11  C    0.125976
    12  C    0.279559
    13  N   -0.594952
    14  C   -0.100074
    15  C   -0.134808
    16  S   -0.087138
    17  C   -0.172817
    18  C   -0.101539
    19  H    0.145018
    20  H    0.125866
    21  H    0.125383
    22  H    0.257011
    23  H    0.274647
    24  H    0.094403
    25  H    0.103714
    26  H    0.084286
    27  H    0.089662
    28  H    0.082837
    29  H    0.259662
    30  H    0.254088
    31  H    0.074526
    32  H    0.123761
    33  H    0.110739
    34  H    0.085158
 Sum of Mulliken charges =  -0.00000
 Mulliken charges with hydrogens summed into heavy atoms:
               1
     1  C    0.138208
     2  O   -0.261684
     3  C    0.340534
     4  N   -0.067790
     5  C    0.029114
     6  O   -0.237224
     7  C    0.188362
     8  C   -0.106680
     9  C    0.024738
    10  C   -0.169719
    11  C    0.125976
    12  C    0.279559
    13  N   -0.081202
    14  C   -0.025548
    15  C   -0.011048
    16  S   -0.087138
    17  C   -0.062078
    18  C   -0.016381
 Electronic spatial extent (au):  <R**2>=          12266.2968
 Charge=             -0.0000 electrons
 Dipole moment (field-independent basis, Debye):
    X=             -5.3129    Y=              1.1106    Z=              1.2425  Tot=              5.5681
 Quadrupole moment (field-independent basis, Debye-Ang):
   XX=            -86.1398   YY=            -99.5809   ZZ=           -115.8504
   XY=             14.3015   XZ=             -4.3750   YZ=             -2.5406
 Traceless Quadrupole moment (field-independent basis, Debye-Ang):
   XX=             14.3839   YY=              0.9428   ZZ=            -15.3267
   XY=             14.3015   XZ=             -4.3750   YZ=             -2.5406
 Octapole moment (field-independent basis, Debye-Ang**2):
  XXX=           -516.8468  YYY=             14.9734  ZZZ=              2.7998  XYY=              8.9747
  XXY=            -19.8097  XXZ=             31.6808  XZZ=            -36.4378  YZZ=             -0.7185
  YYZ=              8.4612  XYZ=             16.0516
 Hexadecapole moment (field-independent basis, Debye-Ang**3):
 XXXX=         -12170.8221 YYYY=           -703.9957 ZZZZ=           -285.9098 XXXY=            541.7478
 XXXZ=           -162.0903 YYYX=             67.7672 YYYZ=              6.3582 ZZZX=              5.9638
 ZZZY=             -9.6348 XXYY=          -2409.1143 XXZZ=          -2653.3107 YYZZ=           -176.4429
 XXYZ=            -70.2351 YYXZ=            -24.2762 ZZXY=             14.4538
 N-N= 1.253681720869D+03 E-N=-5.235018790531D+03  KE= 1.156271026689D+03
 PrsmSu:  requested number of processors reduced to:  13 ShMem   1 Linda.
 Calling FoFJK, ICntrl=      2127 FMM=F ISym2X=0 I1Cent= 0 IOpClX= 0 NMat=1 NMatS=1 NMatT=0.
 ***** Axes restored to original set *****
 -------------------------------------------------------------------
 Center     Atomic                   Forces (Hartrees/Bohr)
 Number     Number              X              Y              Z
 -------------------------------------------------------------------
      1        6           0.005287892    0.000100406   -0.000330427
      2        8          -0.001646622    0.001201499   -0.009166968
      3        6           0.011099863   -0.001046099    0.008579835
      4        7          -0.013993435    0.001257659   -0.013567541
      5        6           0.010548554   -0.003131304    0.019580059
      6        8           0.008980487    0.002077842   -0.013446776
      7        6          -0.024637193    0.000765575    0.000876130
      8        6           0.002025329    0.001473582   -0.001218430
      9        6          -0.008672507   -0.004070352   -0.000923397
     10        6           0.018215360    0.002261094   -0.001160058
     11        6          -0.015590718   -0.002824755    0.001319435
     12        6          -0.010904232   -0.002213737    0.005330066
     13        7           0.000013573   -0.001384771   -0.000902967
     14        6           0.011760897   -0.016245028    0.011533883
     15        6          -0.004298559   -0.018196034    0.013115143
     16       16           0.041638714    0.009856853   -0.006646896
     17        6          -0.034874530    0.015501475   -0.011570945
     18        6          -0.006047478    0.002078842   -0.004062013
     19        1           0.005683438    0.000143529   -0.000541418
     20        1          -0.001896296    0.000259078   -0.001778482
     21        1          -0.002117626    0.000350110   -0.001737876
     22        1           0.006379635    0.000670420   -0.001775253
     23        1          -0.005767682   -0.001137763    0.007888552
     24        1          -0.002310301   -0.000472181    0.002731031
     25        1           0.001436947    0.000330039    0.003805243
     26        1          -0.001227267    0.000299555    0.000721091
     27        1          -0.000347385    0.001341091   -0.000846896
     28        1          -0.004275824    0.002249288    0.000642833
     29        1           0.007189770    0.001633905    0.000793527
     30        1           0.000223945    0.005036296   -0.005692451
     31        1          -0.000680025    0.000858561   -0.001477477
     32        1           0.001461969    0.004631646   -0.003152926
     33        1           0.005938887   -0.002145652    0.001339730
     34        1           0.001402421   -0.001510672    0.001742639
 -------------------------------------------------------------------
 Cartesian Forces:  Max     0.041638714 RMS     0.008825879

 GradGradGradGradGradGradGradGradGradGradGradGradGradGradGradGradGradGrad
 Berny optimization.
 FormGI is forming the generalized inverse of G from B-inverse, IUseBI=4.
 Internal  Forces:  Max     0.034899280 RMS     0.006321423
 Search for a local minimum.
 Step number   1 out of a maximum of  156
 All quantities printed in internal units (Hartrees-Bohrs-Radians)
 Mixed Optimization -- RFO/linear search
 Second derivative matrix not updated -- first step.
 ITU=  0
     Eigenvalues ---    0.00893   0.01374   0.01499   0.01526   0.01654
     Eigenvalues ---    0.01828   0.01882   0.01901   0.01911   0.01914
     Eigenvalues ---    0.01985   0.01996   0.02043   0.02138   0.02189
     Eigenvalues ---    0.02189   0.02198   0.02211   0.02227   0.02363
     Eigenvalues ---    0.02385   0.02510   0.02570   0.02628   0.02632
     Eigenvalues ---    0.02755   0.02808   0.02828   0.02877   0.09980
     Eigenvalues ---    0.10467   0.15982   0.15998   0.16000   0.16000
     Eigenvalues ---    0.16000   0.16000   0.16000   0.16000   0.16000
     Eigenvalues ---    0.16000   0.16000   0.16000   0.16000   0.16000
     Eigenvalues ---    0.16000   0.16000   0.22000   0.22000   0.22000
     Eigenvalues ---    0.22000   0.22000   0.22006   0.22399   0.23604
     Eigenvalues ---    0.24647   0.24974   0.25000   0.25000   0.25000
     Eigenvalues ---    0.25000   0.25000   0.33406   0.34181   0.34186
     Eigenvalues ---    0.34275   0.34441   0.34530   0.34840   0.34892
     Eigenvalues ---    0.34910   0.34935   0.35172   0.35525   0.35749
     Eigenvalues ---    0.35754   0.35960   0.36746   0.37716   0.39243
     Eigenvalues ---    0.41862   0.45321   0.45683   0.46084   0.46647
     Eigenvalues ---    0.48093   0.48527   0.49504   0.50326   0.51464
     Eigenvalues ---    0.52460   0.55687   0.55969   0.56287   0.57115
     Eigenvalues ---    0.58348
 RFO step:  Lambda=-1.86254850D-02 EMin= 8.93026943D-03
 Linear search not attempted -- first point.
 Iteration  1 RMS(Cart)=  0.17603360 RMS(Int)=  0.00451371
 Iteration  2 RMS(Cart)=  0.01336724 RMS(Int)=  0.00024272
 Iteration  3 RMS(Cart)=  0.00007581 RMS(Int)=  0.00024161
 Iteration  4 RMS(Cart)=  0.00000002 RMS(Int)=  0.00024161
 Variable       Old X    -DE/DX   Delta X   Delta X   Delta X     New X
                                 (Linear)    (Quad)   (Total)
    R1        2.69099  -0.00700   0.00000  -0.01601  -0.01601   2.67499
    R2        2.06868  -0.00227   0.00000  -0.00627  -0.00627   2.06242
    R3        2.07026   0.00149   0.00000   0.00415   0.00415   2.07441
    R4        2.07017   0.00160   0.00000   0.00445   0.00445   2.07462
    R5        2.61381  -0.01462   0.00000  -0.02901  -0.02901   2.58480
    R6        2.57462   0.01342   0.00000   0.02470   0.02470   2.59931
    R7        2.54006  -0.00314   0.00000  -0.00540  -0.00540   2.53466
    R8        1.90109  -0.00634   0.00000  -0.01306  -0.01306   1.88802
    R9        1.91604  -0.00979   0.00000  -0.02076  -0.02076   1.89529
   R10        2.60369   0.00271   0.00000   0.00528   0.00528   2.60897
   R11        2.04144   0.00108   0.00000   0.00285   0.00285   2.04429
   R12        2.59538  -0.02020   0.00000  -0.03870  -0.03870   2.55668
   R13        2.53299   0.00226   0.00000   0.00383   0.00383   2.53682
   R14        2.04475   0.00397   0.00000   0.01056   0.01056   2.05531
   R15        2.72595   0.00201   0.00000   0.00488   0.00488   2.73083
   R16        2.05397   0.00000   0.00000   0.00001   0.00001   2.05398
   R17        2.54281   0.00524   0.00000   0.00905   0.00905   2.55186
   R18        2.05935  -0.00100   0.00000  -0.00273  -0.00273   2.05662
   R19        2.81643  -0.00262   0.00000  -0.00742  -0.00742   2.80902
   R20        2.05781   0.00145   0.00000   0.00395   0.00395   2.06176
   R21        2.57632   0.01347   0.00000   0.02473   0.02471   2.60103
   R22        2.75769   0.00544   0.00000   0.01336   0.01333   2.77102
   R23        2.61840  -0.01028   0.00000  -0.02057  -0.02057   2.59783
   R24        2.74181   0.01855   0.00000   0.04674   0.04675   2.78856
   R25        1.91191  -0.00729   0.00000  -0.01533  -0.01533   1.89658
   R26        1.90736  -0.00671   0.00000  -0.01398  -0.01398   1.89338
   R27        2.51915   0.00897   0.00000   0.01520   0.01524   2.53439
   R28        2.06445  -0.00168   0.00000  -0.00461  -0.00461   2.05983
   R29        3.20653   0.02524   0.00000   0.06672   0.06676   3.27328
   R30        2.05851  -0.00165   0.00000  -0.00448  -0.00448   2.05403
   R31        3.20542   0.03490   0.00000   0.09115   0.09114   3.29656
   R32        2.52722   0.00527   0.00000   0.00846   0.00843   2.53565
   R33        2.05822  -0.00195   0.00000  -0.00530  -0.00530   2.05292
   R34        2.06593  -0.00261   0.00000  -0.00720  -0.00720   2.05873
    A1        1.89008  -0.00850   0.00000  -0.04884  -0.04874   1.84134
    A2        1.94135   0.00281   0.00000   0.01636   0.01631   1.95766
    A3        1.93960   0.00315   0.00000   0.01832   0.01828   1.95788
    A4        1.87857   0.00239   0.00000   0.01209   0.01217   1.89074
    A5        1.87873   0.00226   0.00000   0.01144   0.01155   1.89028
    A6        1.93283  -0.00232   0.00000  -0.01078  -0.01093   1.92190
    A7        2.05585  -0.00009   0.00000  -0.00033  -0.00033   2.05552
    A8        2.11055  -0.00708   0.00000  -0.02636  -0.02636   2.08419
    A9        2.05553  -0.00291   0.00000  -0.01085  -0.01085   2.04468
   A10        2.11710   0.01000   0.00000   0.03721   0.03721   2.15431
   A11        2.14270   0.00191   0.00000   0.01052   0.01049   2.15319
   A12        2.04984  -0.00012   0.00000  -0.00086  -0.00089   2.04894
   A13        2.08954  -0.00181   0.00000  -0.01031  -0.01034   2.07919
   A14        2.12688  -0.01495   0.00000  -0.06267  -0.06267   2.06421
   A15        2.13410   0.00396   0.00000   0.01166   0.01166   2.14577
   A16        2.02220   0.01099   0.00000   0.05101   0.05101   2.07321
   A17        2.10971  -0.01267   0.00000  -0.04717  -0.04717   2.06254
   A18        2.11468   0.00190   0.00000   0.00794   0.00793   2.12262
   A19        2.01277  -0.00118   0.00000  -0.00524  -0.00526   2.00751
   A20        2.15573  -0.00072   0.00000  -0.00270  -0.00271   2.15302
   A21        2.14605   0.00068   0.00000   0.00290   0.00289   2.14894
   A22        2.07990  -0.00173   0.00000  -0.00917  -0.00919   2.07071
   A23        2.05707   0.00106   0.00000   0.00645   0.00643   2.06350
   A24        2.17919   0.00118   0.00000   0.00562   0.00505   2.18424
   A25        2.03089  -0.00036   0.00000  -0.00022  -0.00079   2.03010
   A26        2.07117  -0.00067   0.00000  -0.00176  -0.00233   2.06884
   A27        2.15972   0.01333   0.00000   0.05592   0.05505   2.21476
   A28        2.11053  -0.01090   0.00000  -0.05156  -0.05240   2.05813
   A29        2.01294  -0.00243   0.00000  -0.00416  -0.00508   2.00786
   A30        2.06673   0.01631   0.00000   0.06114   0.06102   2.12775
   A31        2.01191  -0.01475   0.00000  -0.05454  -0.05456   1.95735
   A32        2.20343  -0.00159   0.00000  -0.00770  -0.00783   2.19560
   A33        2.12847   0.00226   0.00000   0.00833   0.00815   2.13662
   A34        2.20904   0.00608   0.00000   0.02270   0.02255   2.23159
   A35        1.94567  -0.00834   0.00000  -0.03113  -0.03131   1.91436
   A36        2.09279   0.00072   0.00000   0.00416   0.00416   2.09695
   A37        2.13273  -0.00347   0.00000  -0.01927  -0.01928   2.11345
   A38        2.05403   0.00276   0.00000   0.01559   0.01559   2.06962
   A39        2.37132  -0.00545   0.00000  -0.02113  -0.02107   2.35025
   A40        1.95617   0.00238   0.00000   0.00862   0.00858   1.96475
   A41        1.95570   0.00307   0.00000   0.01251   0.01248   1.96818
   A42        2.33864   0.00265   0.00000   0.01318   0.01326   2.35190
   A43        1.99558   0.00439   0.00000   0.02539   0.02534   2.02092
   A44        1.94896  -0.00704   0.00000  -0.03857  -0.03862   1.91034
   A45        1.87693  -0.00505   0.00000  -0.01772  -0.01764   1.85930
   A46        2.33489   0.00110   0.00000   0.00325   0.00322   2.33811
   A47        1.94826  -0.00688   0.00000  -0.03707  -0.03705   1.91120
   A48        2.00003   0.00578   0.00000   0.03381   0.03383   2.03385
   A49        2.37028   0.00225   0.00000   0.00727   0.00718   2.37746
   A50        1.94842  -0.00159   0.00000  -0.00626  -0.00624   1.94218
   A51        1.96449  -0.00066   0.00000  -0.00101  -0.00098   1.96351
    D1        3.13459  -0.00002   0.00000  -0.00012  -0.00010   3.13449
    D2        1.07368   0.00068   0.00000   0.00572   0.00591   1.07958
    D3       -1.08850  -0.00066   0.00000  -0.00553  -0.00573  -1.09423
    D4        0.00064  -0.00001   0.00000  -0.00050  -0.00050   0.00014
    D5       -3.13797  -0.00004   0.00000  -0.00068  -0.00068  -3.13865
    D6        0.02645   0.00040   0.00000   0.00989   0.00989   0.03634
    D7        3.11709  -0.00022   0.00000  -0.00539  -0.00539   3.11170
    D8       -3.11823   0.00040   0.00000   0.00999   0.00999  -3.10825
    D9       -0.02759  -0.00022   0.00000  -0.00529  -0.00529  -0.03289
   D10        3.13558   0.00008   0.00000   0.00188   0.00188   3.13746
   D11       -0.00300   0.00005   0.00000   0.00122   0.00123  -0.00178
   D12       -0.00302   0.00009   0.00000   0.00181   0.00181  -0.00121
   D13        3.14158   0.00006   0.00000   0.00116   0.00116  -3.14044
   D14        3.09747  -0.00004   0.00000  -0.00097  -0.00098   3.09649
   D15       -0.04695  -0.00002   0.00000  -0.00041  -0.00041  -0.04736
   D16       -3.09675  -0.00070   0.00000  -0.01738  -0.01738  -3.11413
   D17        0.04505  -0.00031   0.00000  -0.00856  -0.00856   0.03649
   D18        3.13089   0.00084   0.00000   0.01736   0.01738  -3.13492
   D19       -0.03014   0.00129   0.00000   0.02811   0.02809  -0.00205
   D20       -0.01093   0.00041   0.00000   0.00780   0.00782  -0.00311
   D21        3.11122   0.00086   0.00000   0.01855   0.01853   3.12975
   D22        3.01416   0.00237   0.00000   0.06282   0.06286   3.07702
   D23       -0.05961  -0.00022   0.00000  -0.00111  -0.00110  -0.06071
   D24       -0.10823   0.00196   0.00000   0.05236   0.05235  -0.05588
   D25        3.10119  -0.00063   0.00000  -0.01157  -0.01161   3.08958
   D26       -3.04586  -0.00348   0.00000  -0.08677  -0.08620  -3.13206
   D27        0.09272  -0.00035   0.00000  -0.00371  -0.00425   0.08847
[...]
 ,0.00268067,0.00025780,0.00118828,0.00000603,-0.00003532,0.00038789,0.
 00060879,0.00013360,-0.00042480,0.00018667,0.00034077,0.00038888,-0.00
 051828,-0.00000387,-0.00000173,0.00000249,-0.00000214,-0.00000669,-0.0
 0000495,-0.00000235,-0.00000125,-0.00000317,0.00001168,0.00000552,0.00
 000100,0.00001678,0.00000002,0.00000504,0.00000729,0.00001936,0.000024
 87,0.00003715,0.00004196,-0.00002844,-0.00029339,-0.00001513,-0.000087
 06,0.00162203,-0.00232500,-0.00180306,0.00004008,0.00029490,-0.0001168
 7,0.11125440,0.08251110,-0.00009721,-0.00003974,-0.00001630,0.00022677
 ,0.00004849,-0.00017297,-0.00022511,0.00010962,-0.00001754,0.00013159,
 -0.00005870,0.00007420,-0.00021143,-0.00023665,0.00052773,0.00156191,0
 .00005541,-0.00035410,-0.00095679,0.00001399,0.00059007,0.00041226,0.0
 0055117,-0.00158372,-0.00168950,-0.00033505,0.00335733,0.00018435,-0.0
 0011702,-0.00196920,0.00135489,-0.00125702,0.00227822,0.03155804,0.008
 41026,-0.00055019,-0.09657890,-0.00007195,-0.03666631,0.00089488,0.004
 99055,-0.00222925,0.00191281,-0.00008777,-0.00008181,0.00010308,0.0001
 5281,0.00020487,-0.00003307,-0.00044171,0.00056574,0.00007372,-0.00032
 469,-0.00126754,0.00002263,0.00000672,-0.00001203,0.00000907,0.0000140
 7,0.00001600,0.00000547,0.00000395,0.00000978,-0.00003541,-0.00002458,
 -0.00000556,-0.00004812,0.00002571,-0.00002042,0.00001377,0.00004658,-
 0.00005480,0.00005890,-0.00008870,-0.00010428,-0.00022715,-0.00001722,
 -0.00005217,0.00084444,-0.00138524,-0.00087803,0.00005666,-0.00026119,
 -0.00026363,0.06653088,-0.00338324,0.04354474,0.00000520,0.00000877,0.
 00000257,-0.00001406,-0.00000847,0.00001532,0.00000383,-0.00000044,-0.
 00000135,-0.00000201,-0.00000515,0.00000261,0.00001932,0.00001690,-0.0
 0006049,-0.00013114,-0.00002156,0.00004508,0.00011563,-0.00003925,-0.0
 0001823,0.00016318,0.00027143,-0.00021889,-0.00029863,0.00145313,-0.00
 036084,-0.00211231,0.00001461,0.00046528,0.00003843,-0.00251945,0.0043
 1436,0.01165813,-0.00922067,0.00255005,-0.21135164,0.16708900,-0.07005
 152,0.00057545,-0.00373363,0.00086021,-0.00051134,-0.00088323,-0.00008
 501,-0.00024604,0.00061288,-0.00018890,0.00023556,-0.00010920,0.000454
 64,0.00079877,0.00018415,-0.00006370,-0.00000204,-0.00000021,0.0000004
 9,-0.00000076,-0.00000241,-0.00000244,0.00000021,-0.00000162,-0.000000
 04,0.00000143,0.00000210,0.00000015,0.00000497,-0.00000033,0.00000030,
 -0.00000321,-0.00000172,0.00000999,0.00000394,0.00002893,0.00000909,-0
 .00007946,0.00000666,-0.00000984,-0.00042589,-0.00015039,-0.00059975,0
 .00005454,-0.00014604,-0.00001592,-0.01151593,0.02795427,-0.00569018,0
 .21389676,-0.00001028,0.00000061,-0.00000024,0.00002886,0.00000120,-0.
 00002442,-0.00003197,0.00001716,-0.00000330,0.00001701,-0.00001205,0.0
 0001088,-0.00003696,-0.00003269,0.00007261,0.00022155,-0.00001487,-0.0
 0005553,-0.00013601,0.00003461,0.00008200,0.00007337,-0.00007963,-0.00
 017037,0.00020307,0.00004785,0.00014159,0.00011586,0.00019757,-0.00074
 100,-0.00436474,-0.00121843,0.00153546,0.01644764,-0.01848110,-0.00007
 980,0.17695612,-0.26668223,0.11301067,0.00142551,0.00142484,-0.0013356
 8,-0.00040851,-0.00023323,-0.00008166,0.00001124,0.00031729,0.00008255
 ,0.00011486,-0.00011168,-0.00002892,0.00137178,0.00182272,0.00122345,0
 .00000306,0.00000113,-0.00000178,0.00000114,0.00000011,0.00000097,0.00
 000069,-0.00000009,0.00000133,-0.00000298,-0.00000258,-0.00000062,-0.0
 0000547,0.00000612,-0.00000159,0.00000284,0.00001056,-0.00000433,0.000
 00835,-0.00000456,-0.00001193,-0.00000613,-0.00003016,0.00000048,0.000
 11925,0.00012889,0.00005336,0.00011349,0.00014299,0.00007864,-0.009584
 90,0.00957919,-0.00690772,-0.18154564,0.27303441,-0.00006716,-0.000027
 03,-0.00000748,0.00015155,0.00003158,-0.00012170,-0.00014885,0.0000634
 5,0.00001471,0.00008901,-0.00003698,0.00004013,-0.00014128,-0.00013451
 ,0.00032755,0.00085398,0.00001447,-0.00021432,-0.00055764,0.00006432,0
 .00013138,-0.00012303,-0.00029983,-0.00011724,0.00101466,-0.00022329,-
 0.00003778,0.00020538,0.00034279,-0.00054722,0.00339419,0.00201425,0.0
 0029547,-0.01590895,0.02288892,-0.01713075,-0.05101952,0.07921081,-0.0
 3660755,-0.00295839,-0.00000377,-0.00015114,-0.00017929,-0.00070644,-0
 .00029258,0.00010442,-0.00005868,0.00018354,-0.00040919,-0.00044071,-0
 .00013954,-0.00023441,0.00203740,0.00008067,0.00001570,0.00000430,-0.0
 0000912,0.00000600,0.00000869,0.00001085,0.00000363,0.00000291,0.00000
 670,-0.00002353,-0.00001577,-0.00000180,-0.00003104,0.00001811,-0.0000
 0968,0.00000231,0.00002300,-0.00002966,0.00000835,-0.00003422,-0.00000
 989,0.00007166,-0.00000159,0.00003865,-0.00005585,0.00038373,0.0004186
 3,0.00005204,-0.00003139,0.00006649,-0.00340253,0.00318849,-0.00451256
 ,0.06741434,-0.10739482,0.05786859,0.00003272,0.00001279,0.00000518,-0
 .00006744,-0.00001214,0.00004516,0.00007268,-0.00003723,-0.00000136,-0
 .00004661,0.00002048,-0.00002590,0.00004429,0.00005037,-0.00011791,-0.
 00032811,-0.00000956,0.00007115,0.00023535,0.00000476,-0.00006672,-0.0
 0011811,-0.00002333,0.00018151,0.00016688,-0.00003523,-0.00012553,-0.0
 0008092,-0.00005194,-0.00171619,-0.00428569,-0.00075220,0.00278145,-0.
 01278692,0.02891417,-0.00494592,0.00115522,0.00121340,-0.00223809,-0.0
 8478500,0.08844481,-0.00972019,0.00695617,-0.02029917,0.00338474,-0.00
 095190,-0.00389230,0.00138141,-0.00040776,0.00023848,-0.00068938,0.000
 06420,0.00007037,0.00089300,-0.00000588,-0.00000222,0.00000346,-0.0000
 0239,-0.00000434,-0.00000407,-0.00000259,-0.00000035,-0.00000348,0.000
 01216,0.00000730,0.00000186,0.00001476,-0.00000651,0.00000740,0.000001
 65,-0.00000429,0.00001318,-0.00000344,0.00000126,0.00000145,0.00001225
 ,-0.00000712,0.00000154,0.00002445,0.00003052,0.00006759,-0.00056114,-
 0.00002533,-0.00006132,0.00004230,-0.00031765,-0.00019321,-0.00059289,
 -0.00087745,0.00166253,0.09513980,-0.00004073,-0.00001708,-0.00000530,
 0.00008240,0.00001783,-0.00005767,-0.00008564,0.00003773,0.00000828,0.
 00005295,-0.00001975,0.00002597,-0.00005315,-0.00006033,0.00013916,0.0
 0039080,0.00001070,-0.00008104,-0.00028456,0.00000884,0.00009572,0.000
 12878,0.00002272,-0.00023120,-0.00008735,0.00004353,0.00013523,-0.0001
 3314,0.00015775,0.00014419,0.00047898,0.00017126,-0.00112684,-0.001575
 28,-0.00431857,0.00336032,-0.00206123,0.00163342,-0.00025324,0.0884629
 3,-0.27557466,0.03917667,0.00889785,-0.02182742,0.00473251,-0.00250623
 ,-0.00200296,0.00193718,0.00004769,0.00029072,-0.00029792,-0.00011376,
 -0.00004168,-0.00001578,0.00000743,0.00000245,-0.00000463,0.00000301,0
 .00000551,0.00000537,0.00000279,0.00000070,0.00000411,-0.00001508,-0.0
 0000923,-0.00000121,-0.00001711,0.00000627,-0.00000792,-0.00000137,0.0
 0000671,-0.00001517,0.00000197,-0.00000979,-0.00000097,-0.00001245,-0.
 00000919,0.00000985,0.00004957,-0.00001529,-0.00006235,0.00010446,0.00
 004367,0.00001881,-0.00001658,0.00044264,0.00006287,0.00073921,0.00065
 324,-0.00063741,-0.09213069,0.29942581,0.00001832,0.00000757,0.0000031
 4,-0.00003489,-0.00000709,0.00002024,0.00004807,-0.00002304,0.00000150
 ,-0.00002580,0.00001066,-0.00001653,-0.00000014,0.00002219,-0.00002811
 ,-0.00012469,-0.00000435,0.00000681,0.00016139,0.00001827,-0.00011265,
 -0.00023727,0.00000161,0.00014821,0.00037118,0.00010915,-0.00031409,-0
 .00084519,-0.00014171,0.00032203,0.00217329,-0.00079441,0.00231134,-0.
 00614047,0.00179600,0.00239955,0.00155582,-0.00116635,-0.00118992,-0.0
 0548658,0.04020145,-0.04204806,-0.00270720,0.00495207,0.00592775,0.000
 42973,0.00217735,0.00525737,0.00038529,-0.00120461,0.00184052,0.000251
 67,0.00045478,-0.00063759,-0.00000259,-0.00000104,0.00000149,-0.000001
 17,-0.00000267,-0.00000199,-0.00000153,0.00000009,-0.00000177,0.000007
 54,0.00000383,0.00000108,0.00000696,-0.00000160,0.00000527,-0.00000119
 ,-0.00000311,0.00000528,0.00000278,0.00000354,0.00000200,0.00000403,-0
 .00000384,-0.00000437,-0.00003155,-0.00000542,0.00001853,-0.00000989,-
 0.00017808,-0.00007605,-0.00034880,-0.00005212,-0.00011816,0.00117792,
 0.00016465,0.00037896,0.00995318,-0.04550591,0.03144149,0.00001105,0.0
 0000444,0.00000069,-0.00001991,-0.00000451,0.00001371,0.00001747,-0.00
 000693,-0.00000657,-0.00001188,0.00000273,-0.00000404,0.00001293,0.000
 00985,-0.00003079,-0.00006532,-0.00000480,0.00002045,0.00004068,-0.000
 00139,0.00000792,0.00002655,0.00001566,-0.00000367,-0.00004407,-0.0000
 6546,0.00008927,0.00019118,-0.00000313,-0.00010613,-0.00002100,0.00002
 821,0.00026529,0.00094233,-0.00252956,0.00189484,-0.00115995,-0.000144
 36,-0.00027832,-0.01733306,0.00861184,0.00172442,-0.31975487,0.0583831
 2,0.02007232,0.00093014,0.00221970,0.00056391,-0.00026287,-0.00053810,
 -0.00036734,0.00034473,0.00039630,-0.00037940,-0.00000169,-0.00000054,
 0.00000139,-0.00000072,-0.00000117,-0.00000120,-0.00000076,0.,-0.00000
 113,0.00000381,0.00000258,0.00000012,0.00000409,-0.00000093,0.00000156
 ,0.00000152,0.00000043,0.00000297,0.00000027,0.00000151,-0.00000316,-0
 .00000300,0.00000094,-0.00000284,0.00000991,-0.00000507,-0.00001984,-0
 .00002194,0.00001963,-0.00000361,-0.00010127,-0.00028648,0.00020066,-0
 .00006614,0.00000114,0.00000417,0.00069871,-0.00041791,-0.00065320,0.3
 3575139,-0.00000366,-0.00000246,0.00000069,0.00000429,0.00000345,-0.00
 000485,0.00000543,-0.00000757,0.00000967,-0.00000154,0.00000508,-0.000
 00596,-0.00000843,-0.00000033,0.00001173,-0.00000578,0.00000188,-0.000
 01639,0.00003855,0.00000932,-0.00004998,-0.00011192,0.00001866,0.00004
 458,0.00024873,0.00010383,-0.00013618,-0.00042274,-0.00010938,-0.00023
 405,-0.00010596,0.00069443,-0.00176200,0.00069482,-0.00312418,0.003599
 44,-0.00115988,0.00064011,-0.00109976,-0.02524575,0.00625235,0.0025463
 0,0.07294507,-0.06074407,-0.00290387,0.01787151,-0.01188711,0.00219957
 ,0.00300044,-0.00116972,-0.00153332,-0.00133657,-0.00135565,0.00266396
 ,0.00000049,0.00000009,-0.00000079,0.00000031,0.00000040,0.00000054,-0
 .00000002,0.00000016,0.00000043,-0.00000114,-0.00000054,0.00000080,-0.
 00000069,-0.00000135,0.00000175,-0.00000153,-0.00000144,-0.00000078,0.
 00000251,-0.00000203,-0.00000040,-0.00000735,-0.00000465,0.00000004,-0
 .00000141,-0.00001295,-0.00002182,-0.00010702,-0.00000782,-0.00001812,
 -0.00014097,-0.00006561,0.00044409,0.00013355,0.00005501,-0.00005414,-
 0.00052470,0.00076666,-0.00116397,-0.06584431,0.06950136,-0.00007464,-
 0.00002408,-0.00001070,0.00015970,0.00002518,-0.00010423,-0.00018014,0
 .00009142,-0.00000223,0.00011263,-0.00005667,0.00006477,-0.00011081,-0
 .00013322,0.00026981,0.00079242,-0.00001401,-0.00015105,-0.00055084,0.
 00005419,0.00015207,0.00018844,0.00030319,-0.00032160,0.00017160,0.000
 14093,0.00012061,-0.00052051,-0.00117728,-0.00091106,0.00202586,0.0017
 0583,-0.00323688,0.00514846,0.00177628,0.01156609,-0.00233409,-0.00075
 517,0.00073222,0.00369090,0.00120433,0.00443931,0.02074712,-0.00470968
 ,-0.03518770,-0.00589182,0.00632149,0.00190952,0.00260914,0.00193186,0
 .00127447,-0.00235925,-0.00151388,0.00110840,0.00001392,0.00000531,-0.
 00000840,0.00000559,0.00000845,0.00000857,0.00000606,0.00000024,0.0000
 0823,-0.00002768,-0.00001650,-0.00000420,-0.00003284,0.00001883,-0.000
 01812,-0.00000447,0.00001348,-0.00002624,-0.00000086,-0.00000836,0.000
 00848,0.00001514,-0.00000651,0.00001952,0.00004803,-0.00018725,-0.0000
 2728,0.00006169,0.00001687,0.00006955,0.00040146,-0.00062443,-0.000027
 24,-0.00012156,-0.00000561,0.00003213,-0.00047861,-0.00178521,-0.00599
 530,-0.02304391,-0.00272444,0.02436087,0.00000054,-0.00000186,-0.00000
 016,-0.00000212,0.00000327,0.00000145,-0.00000371,-0.00000344,0.000000
 43,-0.00000338,0.00000476,-0.00000185,0.00001531,-0.00000230,-0.000026
 10,-0.00002458,-0.00000988,0.00002357,-0.00007068,-0.00001307,0.000103
 26,0.00024851,0.00007799,-0.00004071,-0.00058717,-0.00009552,0.0003919
 4,0.00122640,-0.00025304,-0.00011875,0.00023097,-0.00645079,-0.0012933
 4,-0.00298219,0.00075633,-0.00092441,0.00034534,-0.00040221,0.00188532
 ,0.00100154,0.00165295,-0.00013491,-0.00047686,-0.00354060,-0.00220750
 ,-0.00272803,0.00751545,-0.01827319,-0.06012656,-0.04004792,0.05745853
 ,-0.00349874,-0.01225503,0.02155012,-0.00000021,-0.00000012,0.00000018
 ,-0.00000005,0.00000061,0.00000021,-0.00000019,0.00000027,-0.00000019,
 -0.00000041,0.00000004,0.00000028,0.00000113,-0.00000280,0.00000065,0.
 00000260,0.00000231,0.00000092,-0.00000222,0.00000268,-0.00000450,-0.0
 0000158,0.00000019,-0.00000669,0.00000915,-0.00004174,-0.00001841,0.00
 000476,0.00005210,0.00003272,0.00008379,-0.00008007,-0.00020076,-0.000
 17441,-0.00007182,0.00007384,0.00029076,-0.00001668,0.00020775,-0.0001
 3918,0.00036202,-0.00025777,0.06799636,0.00000921,0.00000547,0.0000011
 8,-0.00001475,-0.00000356,0.00001172,0.00002243,-0.00000967,-0.0000018
 5,-0.00000996,-0.00000029,-0.00000678,-0.00001274,-0.00000237,-0.00000
 265,-0.00004078,-0.00003452,0.00000538,0.00009521,0.00007528,-0.000153
 14,-0.00032019,0.00014804,0.00025666,0.00019505,0.00003882,-0.00062340
 ,-0.00132373,-0.00151183,0.00149268,-0.00580777,0.00899178,-0.00188360
 ,0.00395769,-0.00047396,0.00063201,-0.00037804,-0.00010452,-0.00128477
 ,-0.00273064,-0.00075579,0.00067368,0.00145875,0.00196476,-0.00089931,
 -0.00030628,0.00269680,-0.00244932,-0.04164905,-0.09914428,0.11647998,
 -0.00573279,-0.00689080,0.01883751,-0.00000110,-0.00000035,0.00000065,
 -0.00000042,-0.00000184,-0.00000127,-0.00000068,-0.00000020,-0.0000006
 6,0.00000379,0.00000219,0.00000038,0.00000281,0.00000179,0.00000219,-0
 .00000377,-0.00000187,0.00000305,0.00000245,0.00001241,0.00000821,0.00
 000032,-0.00000221,0.00000025,0.00000754,-0.00004454,0.00001406,-0.000
 01101,-0.00000505,-0.00010744,-0.00004823,0.00001094,0.00005774,0.0000
 7006,-0.00006549,-0.00001722,-0.00004942,0.00019916,0.00039072,0.00014
 531,-0.00029660,-0.00006357,0.05028134,0.09893906,-0.00004172,-0.00001
 112,-0.00000662,0.00008611,0.00000984,-0.00005019,-0.00010196,0.000059
 65,-0.00000879,0.00006658,-0.00003673,0.00004410,-0.00005623,-0.000061
 90,0.00014385,0.00041990,-0.00000289,-0.00006520,-0.00028240,0.0000277
 1,0.00002332,0.00000312,0.00002163,-0.00011762,0.00001421,0.00004980,-
 0.00007425,-0.00049594,-0.00007594,0.00046987,-0.00111840,0.00309218,0
 .00078902,0.00206673,-0.00044222,-0.00026007,-0.00034830,-0.00030878,0
 .00012046,-0.00259485,0.00007574,0.00049825,0.00122668,0.00070377,-0.0
 0137065,-0.00315757,0.00427819,-0.01273263,0.06696109,0.12636065,-0.25
 248596,-0.00409677,-0.00279709,0.00172715,0.00000688,0.00000285,-0.000
 00413,0.00000296,0.00000427,0.00000403,0.00000406,-0.00000067,0.000004
 63,-0.00001552,-0.00000939,-0.00000425,-0.00001856,0.00001143,-0.00001
 391,-0.00000389,0.00000423,-0.00001392,-0.00000287,-0.00000628,0.00001
 245,0.00001744,0.00000201,0.00001467,0.00001490,-0.00001602,0.00002283
 ,0.00009009,0.00000433,-0.00001954,0.00008993,-0.00012665,-0.00010144,
 -0.00004940,-0.00007542,0.00001139,0.00005674,0.00016778,0.00044009,0.
 00006014,-0.00006845,-0.00050761,-0.05994827,-0.12914376,0.26328741,-0
 .00002171,-0.00000740,-0.00000381,0.00004137,0.00000598,-0.00002300,-0
 .00004587,0.00002557,-0.00000211,0.00003262,-0.00001433,0.00002092,-0.
 00002346,-0.00002364,0.00006652,0.00017926,0.00000673,-0.00003612,-0.0
 0009921,0.00001388,-0.00001972,-0.00006987,-0.00004110,-0.00005451,0.0
 0053042,0.00024111,-0.00015982,-0.00059830,-0.00055895,0.00278070,0.00
 650079,0.00062246,0.00378984,0.00024347,-0.00215500,0.00177888,0.00034
 860,-0.00030647,-0.00042068,-0.00057964,0.00032104,0.00031793,0.001660
 73,-0.00088197,0.00035349,-0.00293532,-0.00396065,-0.00165593,-0.01218
 371,-0.00190305,-0.02323226,-0.14304469,-0.00527382,-0.12546815,0.0000
 0313,0.00000139,-0.00000194,0.00000128,0.00000270,0.00000209,0.0000022
 0,-0.00000044,0.00000235,-0.00000830,-0.00000487,-0.00000230,-0.000009
 92,0.00000356,-0.00000697,-0.00000263,-0.00000025,-0.00000717,0.000002
 19,-0.00000464,0.00000333,-0.00000461,-0.00000259,0.00000861,-0.000056
 65,-0.00002374,0.00009671,-0.00030717,-0.00060771,0.00048372,-0.000033
 99,0.00005076,0.00003003,-0.00004745,-0.00015397,0.00013289,0.00006243
 ,0.00011809,-0.00010278,0.00002085,-0.00027637,-0.00020834,-0.00063487
 ,0.00218935,0.00114506,0.15107803,0.00000740,0.00000502,0.00000086,-0.
 00001088,-0.00000514,0.00000721,0.00000654,0.00000288,-0.00000745,-0.0
 0000568,-0.00000396,0.00000006,0.00000468,0.00000102,-0.00001081,-0.00
 002058,-0.00000900,0.00000122,-0.00000869,-0.00000013,0.00004759,0.000
 09366,-0.00003725,-0.00005165,-0.00043637,-0.00004851,0.00000862,0.002
 10274,-0.00071253,-0.00042923,0.00773857,-0.00299496,0.02093759,-0.003
 52196,0.00253929,0.00050227,0.00040239,-0.00140052,0.00096194,0.000451
 10,0.00043376,0.00007810,-0.00112375,-0.00010782,-0.00001765,-0.004916
 19,0.00246078,0.00055649,-0.01513648,0.00269400,-0.01206878,-0.0003145
 4,-0.03732044,0.00403026,-0.00000084,-0.00000049,0.00000074,-0.0000002
 8,-0.00000150,-0.00000077,-0.00000048,0.,-0.00000072,0.00000284,0.0000
 0181,-0.00000069,0.00000276,0.00000333,0.00000030,0.00000189,0.0000012
 7,0.00000175,0.00000212,0.00000568,-0.00000391,-0.00001744,0.00001822,
 0.00000286,0.00008096,0.00006289,-0.00008925,-0.00054614,0.00054586,-0
 .00035297,0.00011833,-0.00005821,0.00004413,-0.00019620,-0.00050671,-0
 .00017940,0.00005444,-0.00004133,-0.00005463,0.00001123,0.00074068,0.0
 0018801,0.00257656,-0.00373676,-0.00169272,0.01259831,0.03746878,0.000
 00603,0.00000462,-0.00000083,-0.00001038,-0.00000656,0.00001387,-0.000
 00144,0.00001103,-0.00001609,0.00000210,-0.00000684,0.00001013,0.00001
 560,0.00000911,-0.00001889,-0.00000617,-0.00000834,0.00002879,0.000058
 24,-0.00000632,-0.00003252,-0.00004705,-0.00004925,-0.00006907,0.00065
 204,-0.00010610,0.00054689,-0.00273221,0.00030780,0.00026797,-0.014663
 62,0.00227000,-0.01598002,0.00229125,-0.00029205,-0.00302532,-0.000498
 64,0.00132456,-0.00039626,0.00039129,-0.00045973,-0.00020327,-0.000771
 45,0.00075227,-0.00019109,-0.00001820,0.00158843,0.00232466,-0.0017709
 7,0.00235854,0.00123950,-0.12637628,0.00620085,-0.22406708,-0.00000128
 ,-0.00000030,0.00000142,-0.00000061,-0.00000082,-0.00000136,0.00000039
 ,-0.00000073,-0.00000080,0.00000193,-0.00000022,-0.00000162,0.00000176
 ,0.00000077,-0.00000631,-0.00000134,-0.00000108,0.00000254,-0.00001005
 ,0.00000354,0.00001406,0.00005944,0.00001002,0.00000682,-0.00016286,0.
 00004832,0.00023972,0.00150419,-0.00025016,0.00033057,-0.00010285,0.00
 012978,-0.00010943,0.00021565,0.00046612,0.00003416,-0.00012463,0.0000
 6576,0.00001194,-0.00001869,0.00027568,0.00039522,0.00172633,-0.002229
 31,0.00022325,0.14039252,-0.01240941,0.23842840\\0.00000274,0.00000689
 ,0.00000254,0.00000451,-0.00000615,-0.00000484,-0.00001116,0.00001137,
 0.00000497,0.00000362,-0.00001663,0.00000053,0.00000595,0.00000267,-0.
 00000776,-0.00000446,-0.00000328,0.00000585,0.00000217,-0.00000290,-0.
 00000089,0.00000113,-0.00000062,0.00000070,0.00000045,0.00000006,-0.00
 000100,0.00000428,-0.00000134,0.00000367,-0.00000007,0.00000058,-0.000
 00883,-0.00000641,-0.00000409,0.00001243,0.00000328,0.00000520,-0.0000
 1032,0.00000372,0.00000895,-0.00000540,0.00000434,-0.00001617,0.000006
 20,-0.00001177,0.00000481,-0.00000940,0.00000858,0.00000297,0.00000875
 ,-0.00000127,-0.00000042,-0.00000056,-0.00000070,-0.00000056,0.0000001
 8,-0.00000047,-0.00000110,0.00000042,-0.00000089,-0.00000189,0.0000000
 7,-0.00000269,0.00000452,0.00000171,0.00000344,0.00000481,-0.00000142,
 -0.00000042,-0.00000073,0.00000068,-0.00000089,0.00000024,0.00000027,-
 0.00000033,0.00000066,-0.00000002,-0.00000011,0.00000075,0.00000116,-0
 .00000142,-0.00000002,-0.00000035,-0.00000126,0.00000089,0.00000209,-0
 .00000023,0.00000101,0.00000316,-0.00000173,-0.00000197,-0.00000159,-0
 .00000037,0.00000295,-0.00000144,-0.00000108,-0.00000050,-0.00000125,-
 0.00000049,-0.00000099,-0.00000033\\\@


 HE THAT RISETH LATE MUST TROT ALL DAY.

                  -- BENJAMIN FRANKLIN
 Job cpu time:       0 days 12 hours  3 minutes  0.3 seconds.
 Elapsed time:       0 days  3 hours  0 minutes 47.2 seconds.
 File lengths (MBytes):  RWF=    899 Int=      0 D2E=      0 Chk=     29 Scr=      1
 Normal termination of Gaussian 16 at Fri May 19 01:20:04 2023.
### All Done ###
