### Starting Gaussian ###
 Entering Gaussian System, Link 0=g16
 Initial command:
 /cluster/software/gaussian/gaussian-16-A.03/avx2/g16/l1.exe "/local/scratch/linjian/Gau-27354.inp" -scrdir="/local/scratch/linjian/"
 Entering Link 1 = /cluster/software/gaussian/gaussian-16-A.03/avx2/g16/l1.exe PID=     27355.
  
 Copyright (c) 1988,1990,1992,1993,1995,1998,2003,2009,2016,
            Gaussian, Inc.  All Rights Reserved.
  
 This is part of the Gaussian(R) 16 program.  It is based on
 the Gaussian(R) 09 system (copyright 2009, Gaussian, Inc.),
 the Gaussian(R) 03 system (copyright 2003, Gaussian, Inc.),
 the Gaussian(R) 98 system (copyright 1998, Gaussian, Inc.),
 the Gaussian(R) 94 system (copyright 1995, Gaussian, Inc.),
 the Gaussian 92(TM) system (copyright 1992, Gaussian, Inc.),
 the Gaussian 90(TM) system (copyright 1990, Gaussian, Inc.),
 the Gaussian 88(TM) system (copyright 1988, Gaussian, Inc.),
 the Gaussian 86(TM) system (copyright 1986, Carnegie Mellon
 University), and the Gaussian 82(TM) system (copyright 1983,
 Carnegie Mellon University). Gaussian is a federally registered
 trademark of Gaussian, Inc.
  
 This software contains proprietary and confidential information,
 including trade secrets, belonging to Gaussian, Inc.
  
 This software is provided under written license and may be
 used, copied, transmitted, or stored only in accord with that
 written license.
  
 The following legend is applicable only to US Government
 contracts under FAR:
  
                    RESTRICTED RIGHTS LEGEND
  
 Use, reproduction and disclosure by the US Government is
 subject to restrictions as set forth in subparagraphs (a)
 and (c) of the Commercial Computer Software - Restricted
 Rights clause in FAR 52.227-19.
  
 Gaussian, Inc.
 340 Quinnipiac St., Bldg. 40, Wallingford CT 06492
  
  
 ---------------------------------------------------------------
 Warning -- This program may not be used in any manner that
 competes with the business of Gaussian, Inc. or will provide
 assistance to any competitor of Gaussian, Inc.  The licensee
 of this program is prohibited from giving any competitor of
 Gaussian, Inc. access to this program.  By using this program,
 the user acknowledges that Gaussian, Inc. is engaged in the
 business of creating and licensing software in the field of
 computational chemistry and represents and warrants to the
 licensee that it is not a competitor of Gaussian, Inc. and that
 it will not use this program in any manner prohibited above.
 ---------------------------------------------------------------
  

 Cite this work as:
 Gaussian 16, Revision A.03,
 M. J. Frisch, G. W. Trucks, H. B. Schlegel, G. E. Scuseria, 
 M. A. Robb, J. R. Cheeseman, G. Scalmani, V. Barone, 
 G. A. Petersson, H. Nakatsuji, X. Li, M. Caricato, A. V. Marenich, 
 J. Bloino, B. G. Janesko, R. Gomperts, B. Mennucci, H. P. Hratchian, 
 J. V. Ortiz, A. F. Izmaylov, J. L. Sonnenberg, D. Williams-Young, 
 F. Ding, F. Lipparini, F. Egidi, J. Goings, B. Peng, A. Petrone, 
 T. Henderson, D. Ranasinghe, V. G. Zakrzewski, J. Gao, N. Rega, 
 G. Zheng, W. Liang, M. Hada, M. Ehara, K. Toyota, R. Fukuda, 
 J. Hasegawa, M. Ishida, T. Nakajima, Y. Honda, O. Kitao, H. Nakai, 
 T. Vreven, K. Throssell, J. A. Montgomery, Jr., J. E. Peralta, 
 F. Ogliaro, M. J. Bearpark, J. J. Heyd, E. N. Brothers, K. N. Kudin, 
 V. N. Staroverov, T. A. Keith, R. Kobayashi, J. Normand, 
 K. Raghavachari, A. P. Rendell, J. C. Burant, S. S. Iyengar, 
 J. Tomasi, M. Cossi, J. M. Millam, M. Klene, C. Adamo, R. Cammi, 
 J. W. Ochterski, R. L. Martin, K. Morokuma, O. Farkas, 
 J. B. Foresman, and D. J. Fox, Gaussian, Inc., Wallingford CT, 2016.
 
 ******************************************
 Gaussian 16:  ES64L-G16RevA.03 25-Dec-2016
                16-May-2023 
 ******************************************
 %chk=CSC1dCCdCCdCCdCCdC2CdC1NqSrS2.chk
 %NProcShared=20
 Will use up to   20 processors via shared memory.
 -----------------------------
 # opt freq b3lyp/6-31g(2df,p)
 -----------------------------
 1/18=20,19=15,26=3,38=1/1,3;
 2/9=110,12=2,17=6,18=5,40=1/2;
 3/5=1,6=6,7=104,11=2,25=1,30=1,71=1,74=-5/1,2,3;
 4//1;
 5/5=2,38=5/2;
 6/7=2,8=2,9=2,10=2,28=1/1;
 7//1,2,3,16;
 1/18=20,19=15,26=3/3(2);
 2/9=110/2;
 99//99;
 2/9=110/2;
 3/5=1,6=6,7=104,11=2,25=1,30=1,71=1,74=-5/1,2,3;
 4/5=5,16=3,69=1/1;
 5/5=2,38=5/2;
 7//1,2,3,16;
 1/18=20,19=15,26=3/3(-5);
 2/9=110/2;
 6/7=2,8=2,9=2,10=2,19=2,28=1/1;
 99/9=1/99;
 -------------------
 Title Card Required
 -------------------
 Symbolic Z-matrix:
 Charge =  0 Multiplicity = 1
 C                     2.86792   0.91112   0.64538 
 S                     5.32917   1.98687   1.83035 
 C                     7.7622    3.15296   2.48959 
 C                     6.47695   2.33892   1.43945 
 C                     5.78465   3.88066   1.06391 
 C                     7.00849   4.17776   0.74728 
 C                     7.07765   5.03688   1.93382 
 C                     8.34283   5.20843   1.94104 
 C                     8.74393   6.35816   2.58858 
 C                     9.92847   6.81405   2.44574 
 C                     10.50821   7.8323    3.18759 
 C                     11.71194   7.45342   2.93109 
 C                     11.47787   5.4675    2.97025 
 C                     9.8167    4.54634   3.13294 
 N                     11.3572   5.94525   3.95181 
 S                     13.50505   7.12857   4.66386 
 S                     12.3814   8.12974   4.1385 
 H                     1.70888  -0.22021  -0.06673 
 H                     1.41259   0.93929  -0.32252 
 H                     1.28474   0.32879   0.94814 
 H                     6.03562   1.23015   0.34555 
 H                     4.68217   3.92105   1.60294 
 H                     7.63155   2.90173   0.5628 
 H                     6.26908   5.47889   2.40204 
 H                     9.07845   4.19773   1.59994 
 H                     8.12991   6.94661   3.1113 
 H                     10.53187   5.90578   1.71617 
 H                     10.02099   8.503     3.78772 
 H                     12.85986   5.98895   2.43508 
 H                     15.23117   7.98603   5.32998 
 
 Add virtual bond connecting atoms H19        and H18        Dist= 2.31D+00.
 Add virtual bond connecting atoms H20        and H18        Dist= 2.32D+00.
 Add virtual bond connecting atoms H27        and C10        Dist= 2.48D+00.
 Add virtual bond connecting atoms H23        and C4         Dist= 2.94D+00.
 Add virtual bond connecting atoms H23        and C6         Dist= 2.71D+00.
 Add virtual bond connecting atoms H29        and C13        Dist= 2.97D+00.
 Add virtual bond connecting atoms H21        and C4         Dist= 3.06D+00.
 Add virtual bond connecting atoms H27        and C13        Dist= 3.08D+00.
 Add virtual bond connecting atoms H18        and C1         Dist= 3.34D+00.
 Add virtual bond connecting atoms H19        and C1         Dist= 3.30D+00.
 Add virtual bond connecting atoms H20        and C1         Dist= 3.24D+00.
 Add virtual bond connecting atoms H25        and C14        Dist= 3.28D+00.
 Add virtual bond connecting atoms C4         and C3         Dist= 3.49D+00.
 Add virtual bond connecting atoms H23        and C3         Dist= 3.68D+00.
 Add virtual bond connecting atoms H25        and C3         Dist= 3.59D+00.
 Add virtual bond connecting atoms H30        and S16        Dist= 3.85D+00.
 Add virtual bond connecting atoms S2         and C1         Dist= 5.55D+00.

 GradGradGradGradGradGradGradGradGradGradGradGradGradGradGradGradGradGrad
 Berny optimization.
 Initialization pass.
                           ----------------------------
                           !    Initial Parameters    !
                           ! (Angstroms and Degrees)  !
 --------------------------                            --------------------------
 ! Name  Definition              Value          Derivative Info.                !
 --------------------------------------------------------------------------------
 ! R1    R(1,2)                  2.9358         estimate D2E/DX2                !
 ! R2    R(1,18)                 1.7693         estimate D2E/DX2                !
 ! R3    R(1,19)                 1.748          estimate D2E/DX2                !
 ! R4    R(1,20)                 1.7138         estimate D2E/DX2                !
 ! R5    R(2,4)                  1.2626         estimate D2E/DX2                !
 ! R6    R(2,5)                  2.0932         estimate D2E/DX2                !
 ! R7    R(3,4)                  1.8486         estimate D2E/DX2                !
 ! R8    R(3,23)                 1.9475         estimate D2E/DX2                !
 ! R9    R(3,25)                 1.9015         estimate D2E/DX2                !
 ! R10   R(4,5)                  1.7313         estimate D2E/DX2                !
 ! R11   R(4,21)                 1.6189         estimate D2E/DX2                !
 ! R12   R(4,23)                 1.5551         estimate D2E/DX2                !
 ! R13   R(5,6)                  1.2986         estimate D2E/DX2                !
 ! R14   R(5,22)                 1.2279         estimate D2E/DX2                !
 ! R15   R(6,7)                  1.4665         estimate D2E/DX2                !
 ! R16   R(6,23)                 1.432          estimate D2E/DX2                !
 ! R17   R(7,8)                  1.2768         estimate D2E/DX2                !
 ! R18   R(7,24)                 1.0336         estimate D2E/DX2                !
 ! R19   R(8,9)                  1.3792         estimate D2E/DX2                !
 ! R20   R(8,25)                 1.2958         estimate D2E/DX2                !
 ! R21   R(9,10)                 1.2773         estimate D2E/DX2                !
 ! R22   R(9,26)                 0.9983         estimate D2E/DX2                !
 ! R23   R(10,11)                1.3868         estimate D2E/DX2                !
 ! R24   R(10,27)                1.312          estimate D2E/DX2                !
 ! R25   R(11,12)                1.2878         estimate D2E/DX2                !
 ! R26   R(11,17)                2.1217         estimate D2E/DX2                !
 ! R27   R(11,28)                1.0234         estimate D2E/DX2                !
 ! R28   R(12,17)                1.5373         estimate D2E/DX2                !
 ! R29   R(13,15)                1.0983         estimate D2E/DX2                !
 ! R30   R(13,27)                1.6309         estimate D2E/DX2                !
 ! R31   R(13,29)                1.5711         estimate D2E/DX2                !
 ! R32   R(14,25)                1.7368         estimate D2E/DX2                !
 ! R33   R(16,17)                1.594          estimate D2E/DX2                !
 ! R34   R(16,30)                2.0392         estimate D2E/DX2                !
 ! R35   R(18,19)                1.2238         estimate D2E/DX2                !
 ! R36   R(18,20)                1.2293         estimate D2E/DX2                !
 ! A1    A(2,1,18)             161.0745         estimate D2E/DX2                !
 ! A2    A(2,1,19)             156.2845         estimate D2E/DX2                !
 ! A3    A(2,1,20)             145.8566         estimate D2E/DX2                !
 ! A4    A(19,1,20)             48.2569         estimate D2E/DX2                !
 ! A5    A(1,2,4)              137.6735         estimate D2E/DX2                !
 ! A6    A(1,2,5)              111.4786         estimate D2E/DX2                !
 ! A7    A(4,3,25)             117.2224         estimate D2E/DX2                !
 ! A8    A(23,3,25)             69.7825         estimate D2E/DX2                !
 ! A9    A(2,4,3)              125.3761         estimate D2E/DX2                !
 ! A10   A(2,4,21)              76.7268         estimate D2E/DX2                !
 ! A11   A(2,4,23)             161.8751         estimate D2E/DX2                !
 ! A12   A(3,4,5)               90.5212         estimate D2E/DX2                !
 ! A13   A(3,4,21)             151.0441         estimate D2E/DX2                !
 ! A14   A(5,4,21)             110.7528         estimate D2E/DX2                !
 ! A15   A(5,4,23)              81.5076         estimate D2E/DX2                !
 ! A16   A(21,4,23)             93.9773         estimate D2E/DX2                !
 ! A17   A(2,5,6)              120.0898         estimate D2E/DX2                !
 ! A18   A(2,5,22)              70.9516         estimate D2E/DX2                !
 ! A19   A(4,5,6)               83.0944         estimate D2E/DX2                !
 ! A20   A(4,5,22)             107.0445         estimate D2E/DX2                !
 ! A21   A(6,5,22)             161.0359         estimate D2E/DX2                !
 ! A22   A(5,6,7)               88.9226         estimate D2E/DX2                !
 ! A23   A(5,6,23)             103.7453         estimate D2E/DX2                !
 ! A24   A(7,6,23)             127.2821         estimate D2E/DX2                !
 ! A25   A(6,7,8)               97.4705         estimate D2E/DX2                !
 ! A26   A(6,7,24)             125.459          estimate D2E/DX2                !
 ! A27   A(8,7,24)             135.6546         estimate D2E/DX2                !
 ! A28   A(7,8,9)              113.7567         estimate D2E/DX2                !
 ! A29   A(7,8,25)             117.1463         estimate D2E/DX2                !
 ! A30   A(9,8,25)             127.4984         estimate D2E/DX2                !
 ! A31   A(8,9,10)             120.9818         estimate D2E/DX2                !
 ! A32   A(8,9,26)             123.9439         estimate D2E/DX2                !
 ! A33   A(10,9,26)            114.7462         estimate D2E/DX2                !
 ! A34   A(9,10,11)            126.1526         estimate D2E/DX2                !
 ! A35   A(9,10,27)            103.9821         estimate D2E/DX2                !
 ! A36   A(11,10,27)           127.8431         estimate D2E/DX2                !
 ! A37   A(10,11,12)            93.9098         estimate D2E/DX2                !
 ! A38   A(10,11,17)           135.3779         estimate D2E/DX2                !
 ! A39   A(10,11,28)           126.5732         estimate D2E/DX2                !
 ! A40   A(12,11,28)           138.9929         estimate D2E/DX2                !
 ! A41   A(17,11,28)            93.7627         estimate D2E/DX2                !
 ! A42   A(15,13,27)           120.4376         estimate D2E/DX2                !
 ! A43   A(15,13,29)           104.8747         estimate D2E/DX2                !
 ! A44   A(27,13,29)            99.1554         estimate D2E/DX2                !
 ! A45   A(17,16,30)           116.1193         estimate D2E/DX2                !
 ! A46   A(11,17,16)           133.0013         estimate D2E/DX2                !
 ! A47   A(12,17,16)           106.8283         estimate D2E/DX2                !
 ! A48   A(19,18,20)            70.4819         estimate D2E/DX2                !
 ! A49   A(3,23,6)              77.6885         estimate D2E/DX2                !
 ! A50   A(4,23,6)              85.8037         estimate D2E/DX2                !
 ! A51   A(3,25,8)              84.9759         estimate D2E/DX2                !
 ! A52   A(3,25,14)             89.516          estimate D2E/DX2                !
 ! A53   A(8,25,14)             81.5122         estimate D2E/DX2                !
 ! A54   A(10,27,13)            91.4449         estimate D2E/DX2                !
 ! D1    D(18,1,2,4)            76.7241         estimate D2E/DX2                !
 ! D2    D(18,1,2,5)           138.871          estimate D2E/DX2                !
 ! D3    D(19,1,2,4)           -69.247          estimate D2E/DX2                !
 ! D4    D(19,1,2,5)            -7.1001         estimate D2E/DX2                !
 ! D5    D(20,1,2,4)           176.7152         estimate D2E/DX2                !
 ! D6    D(20,1,2,5)          -121.1379         estimate D2E/DX2                !
 ! D7    D(1,2,4,3)            173.4826         estimate D2E/DX2                !
 ! D8    D(1,2,4,21)           -27.2757         estimate D2E/DX2                !
 ! D9    D(1,2,4,23)            33.2796         estimate D2E/DX2                !
 ! D10   D(1,2,5,6)           -137.3233         estimate D2E/DX2                !
 ! D11   D(1,2,5,22)            59.6839         estimate D2E/DX2                !
 ! D12   D(25,3,4,2)          -156.0272         estimate D2E/DX2                !
 ! D13   D(25,3,4,5)           -69.0354         estimate D2E/DX2                !
 ! D14   D(25,3,4,21)           69.4135         estimate D2E/DX2                !
 ! D15   D(25,3,23,6)          -77.2818         estimate D2E/DX2                !
 ! D16   D(4,3,25,8)            98.9871         estimate D2E/DX2                !
 ! D17   D(4,3,25,14)         -179.491          estimate D2E/DX2                !
 ! D18   D(23,3,25,8)          108.2485         estimate D2E/DX2                !
 ! D19   D(23,3,25,14)        -170.2295         estimate D2E/DX2                !
 ! D20   D(3,4,5,6)             51.6172         estimate D2E/DX2                !
 ! D21   D(3,4,5,22)          -111.9733         estimate D2E/DX2                !
 ! D22   D(21,4,5,6)          -108.2985         estimate D2E/DX2                !
 ! D23   D(21,4,5,22)           88.111          estimate D2E/DX2                !
 ! D24   D(23,4,5,6)           -17.2432         estimate D2E/DX2                !
 ! D25   D(23,4,5,22)          179.1663         estimate D2E/DX2                !
 ! D26   D(2,4,23,6)            67.7617         estimate D2E/DX2                !
 ! D27   D(5,4,23,6)            15.5207         estimate D2E/DX2                !
 ! D28   D(21,4,23,6)          125.9314         estimate D2E/DX2                !
 ! D29   D(2,5,6,7)           -107.0363         estimate D2E/DX2                !
 ! D30   D(2,5,6,23)            21.2148         estimate D2E/DX2                !
 ! D31   D(4,5,6,7)           -109.1169         estimate D2E/DX2                !
 ! D32   D(4,5,6,23)            19.1341         estimate D2E/DX2                !
 ! D33   D(22,5,6,7)            14.6696         estimate D2E/DX2                !
 ! D34   D(22,5,6,23)          142.9206         estimate D2E/DX2                !
 ! D35   D(5,6,7,8)            166.939          estimate D2E/DX2                !
 ! D36   D(5,6,7,24)           -24.8562         estimate D2E/DX2                !
 ! D37   D(23,6,7,8)            60.4183         estimate D2E/DX2                !
 ! D38   D(23,6,7,24)         -131.3769         estimate D2E/DX2                !
 ! D39   D(5,6,23,3)           -84.083          estimate D2E/DX2                !
 ! D40   D(5,6,23,4)           -21.2991         estimate D2E/DX2                !
 ! D41   D(7,6,23,3)            15.2339         estimate D2E/DX2                !
 ! D42   D(7,6,23,4)            78.0178         estimate D2E/DX2                !
 ! D43   D(6,7,8,9)            156.0835         estimate D2E/DX2                !
 ! D44   D(6,7,8,25)           -37.2325         estimate D2E/DX2                !
 ! D45   D(24,7,8,9)           -10.1358         estimate D2E/DX2                !
 ! D46   D(24,7,8,25)          156.5482         estimate D2E/DX2                !
 ! D47   D(7,8,9,10)          -165.2822         estimate D2E/DX2                !
 ! D48   D(7,8,9,26)             7.7893         estimate D2E/DX2                !
 ! D49   D(25,8,9,10)           29.6887         estimate D2E/DX2                !
 ! D50   D(25,8,9,26)         -157.2398         estimate D2E/DX2                !
 ! D51   D(7,8,25,3)           -35.9963         estimate D2E/DX2                !
 ! D52   D(7,8,25,14)         -126.2568         estimate D2E/DX2                !
 ! D53   D(9,8,25,3)           128.5947         estimate D2E/DX2                !
 ! D54   D(9,8,25,14)           38.3342         estimate D2E/DX2                !
 ! D55   D(8,9,10,11)         -169.7249         estimate D2E/DX2                !
 ! D56   D(8,9,10,27)           -4.9453         estimate D2E/DX2                !
 ! D57   D(26,9,10,11)          16.6015         estimate D2E/DX2                !
 ! D58   D(26,9,10,27)        -178.6189         estimate D2E/DX2                !
 ! D59   D(9,10,11,12)         157.4419         estimate D2E/DX2                !
 ! D60   D(9,10,11,17)         134.6816         estimate D2E/DX2                !
 ! D61   D(9,10,11,28)         -15.5596         estimate D2E/DX2                !
 ! D62   D(27,10,11,12)         -3.7381         estimate D2E/DX2                !
 ! D63   D(27,10,11,17)        -26.4984         estimate D2E/DX2                !
 ! D64   D(27,10,11,28)       -176.7396         estimate D2E/DX2                !
 ! D65   D(9,10,27,13)        -111.1459         estimate D2E/DX2                !
 ! D66   D(11,10,27,13)         53.283          estimate D2E/DX2                !
 ! D67   D(10,11,17,16)        -22.2091         estimate D2E/DX2                !
 ! D68   D(28,11,17,16)        134.2454         estimate D2E/DX2                !
 ! D69   D(15,13,27,10)          1.9404         estimate D2E/DX2                !
 ! D70   D(15,13,27,29)        113.3458         estimate D2E/DX2                !
 ! D71   D(29,13,27,10)       -111.4054         estimate D2E/DX2                !
 ! D72   D(30,16,17,11)        173.489          estimate D2E/DX2                !
 ! D73   D(30,16,17,12)        142.5934         estimate D2E/DX2                !
 ! D74   D(1,18,19,20)         -72.0608         estimate D2E/DX2                !
 --------------------------------------------------------------------------------
 Trust Radius=3.00D-01 FncErr=1.00D-07 GrdErr=1.00D-06 EigMax=2.50D+02 EigMin=1.00D-04
 Number of steps in this run=    174 maximum allowed number of steps=    180.
 GradGradGradGradGradGradGradGradGradGradGradGradGradGradGradGradGradGrad

                          Input orientation:                          
 ---------------------------------------------------------------------
 Center     Atomic      Atomic             Coordinates (Angstroms)
 Number     Number       Type             X           Y           Z
 ---------------------------------------------------------------------
      1          6           0        2.867920    0.911120    0.645380
      2         16           0        5.329170    1.986870    1.830350
      3          6           0        7.762200    3.152960    2.489590
      4          6           0        6.476950    2.338920    1.439450
      5          6           0        5.784650    3.880660    1.063910
      6          6           0        7.008490    4.177760    0.747280
      7          6           0        7.077650    5.036880    1.933820
      8          6           0        8.342830    5.208430    1.941040
      9          6           0        8.743930    6.358160    2.588580
     10          6           0        9.928470    6.814050    2.445740
     11          6           0       10.508210    7.832300    3.187590
     12          6           0       11.711940    7.453420    2.931090
     13          6           0       11.477870    5.467500    2.970250
     14          6           0        9.816700    4.546340    3.132940
     15          7           0       11.357200    5.945250    3.951810
     16         16           0       13.505050    7.128570    4.663860
     17         16           0       12.381400    8.129740    4.138500
     18          1           0        1.708880   -0.220210   -0.066730
     19          1           0        1.412590    0.939290   -0.322520
     20          1           0        1.284740    0.328790    0.948140
     21          1           0        6.035620    1.230150    0.345550
     22          1           0        4.682170    3.921050    1.602940
     23          1           0        7.631550    2.901730    0.562800
     24          1           0        6.269080    5.478890    2.402040
     25          1           0        9.078450    4.197730    1.599940
     26          1           0        8.129910    6.946610    3.111300
     27          1           0       10.531870    5.905780    1.716170
     28          1           0       10.020990    8.503000    3.787720
     29          1           0       12.859860    5.988950    2.435080
     30          1           0       15.231170    7.986030    5.329980
 ---------------------------------------------------------------------
                    Distance matrix (angstroms):
                    1          2          3          4          5
     1  C    0.000000
     2  S    2.935838   0.000000
     3  C    5.690425   2.777409   0.000000
     4  C    3.961598   1.262593   1.848600   0.000000
     5  C    4.183378   2.093163   2.544173   1.731263   0.000000
     6  C    5.275001   2.965325   2.157299   2.035428   1.298579
     7  C    6.033556   3.517165   2.080059   2.807887   1.940473
     8  C    7.079565   4.412805   2.205220   3.459362   3.012742
     9  C    8.244620   5.598542   3.353640   4.755417   4.149694
    10  C    9.377486   6.695815   4.254201   5.740418   5.261699
    11  C   10.617890   7.926765   5.470283   7.034506   6.514407
    12  C   11.235784   8.475527   5.855709   7.469151   7.168245
    13  C   10.014832   7.156862   4.403900   6.094306   6.210068
    14  C    8.227291   5.327809   2.564445   4.346785   4.580550
    15  N   10.408786   7.517081   4.781108   6.567679   6.607254
    16  S   12.959684  10.065330   7.315275   9.095700   9.116641
    17  S   12.442534   9.633087   6.987435   8.699483   8.427627
    18  H    1.769289   4.645063   7.386185   5.617136   5.891297
    19  H    1.748030   4.590411   7.288748   5.541773   5.448739
    20  H    1.713835   4.459253   7.232530   5.589370   5.733967
    21  H    3.197812   1.810063   3.357854   1.618876   2.757577
    22  H    3.642541   2.052164   3.295860   2.398145   1.227863
    23  H    5.163479   2.782913   1.947487   1.555111   2.149524
    24  H    5.959720   3.661211   2.765325   3.290775   2.140001
    25  H    7.091098   4.358680   1.901456   3.201364   3.352160
    26  H    8.378332   5.838150   3.861802   5.172830   4.369451
    27  H    9.210285   6.514521   3.980863   5.407536   5.202178
    28  H   10.893914   8.264649   5.950647   7.488022   6.836062
    29  H   11.350165   8.549482   5.833691   7.419942   7.508901
    30  H   14.994992  12.094914   9.338731  11.120362  11.148550
                    6          7          8          9         10
     6  C    0.000000
     7  C    1.466543   0.000000
     8  C    2.065867   1.276778   0.000000
     9  C    3.340102   2.225080   1.379155   0.000000
    10  C    4.284982   3.398172   2.312356   1.277253   0.000000
    11  C    5.617723   4.599462   3.623182   2.375834   1.386821
    12  C    6.133630   5.320795   4.167863   3.182136   1.955792
    13  C    5.155617   4.541096   3.309814   2.900582   2.118714
    14  C    3.703143   3.030002   2.007805   2.174823   2.372181
    15  N    5.683688   4.817880   3.697638   2.976251   2.250407
    16  S    8.139544   7.289702   6.144038   5.250579   4.220297
    17  S    7.482425   6.523508   5.447286   4.332659   3.257812
    18  H    6.934740   7.775789   8.804008   9.990873  11.106529
    19  H    6.553339   7.346715   8.448520   9.570120  10.709635
    20  H    6.900451   7.529640   8.637903   9.730563  10.909421
    21  H    3.129899   4.254365   4.867804   6.217927   7.123554
    22  H    2.491951   2.663247   3.895137   4.838273   6.050076
    23  H    1.431953   2.597184   2.779628   4.157894   4.911980
    24  H    2.231120   1.033629   2.141520   2.633020   3.895600
    25  H    2.238786   2.195188   1.295763   2.399327   2.878027
    26  H    3.809554   2.478060   2.106208   0.998264   1.922332
    27  H    4.042154   3.568472   2.308411   2.040215   1.311990
    28  H    6.084992   4.910619   4.132873   2.769324   2.159172
    29  H    6.353551   5.881467   4.610515   4.135306   3.045316
    30  H   10.154631   9.311889   8.163896   7.228383   6.149065
                   11         12         13         14         15
    11  C    0.000000
    12  C    1.287753   0.000000
    13  C    2.565104   2.000050   0.000000
    14  C    3.358378   3.476175   1.906434   0.000000
    15  N    2.205850   1.855340   1.098302   2.236211   0.000000
    16  S    3.414039   2.514610   3.120405   4.755581   2.553531
    17  S    2.121684   1.537343   3.044453   4.519911   2.419883
    18  H   12.363726  12.958886  11.704976   9.934517  12.134729
    19  H   11.940049  12.613345  11.517677   9.776506  11.925804
    20  H   12.099182  12.783542  11.592893   9.765010  11.917261
    21  H    8.465792   8.811056   7.379856   5.750063   7.972233
    22  H    7.193868   7.978677   7.102294   5.394005   7.360068
    23  H    6.282931   6.555628   5.212789   3.753031   5.884630
    24  H    4.911807   5.814068   5.239703   3.740250   5.339311
    25  H    4.216034   4.393944   3.040934   1.736845   3.711849
    26  H    2.539011   3.622191   3.662854   2.933773   3.482037
    27  H    2.424276   2.294294   1.630865   2.089685   2.383446
    28  H    1.023415   2.166736   3.464826   4.015673   2.890410
    29  H    3.081310   1.925725   1.571055   3.439325   2.135502
    30  H    5.188431   4.292240   5.098880   6.780482   4.590401
                   16         17         18         19         20
    16  S    0.000000
    17  S    1.594031   0.000000
    18  H   14.681031  14.188316   0.000000
    19  H   14.470617  13.853450   1.223788   0.000000
    20  H   14.469954  13.934457   1.229332   1.415497   0.000000
    21  H   10.451390  10.112356   4.581943   4.680099   4.873030
    22  H    9.874241   9.133470   5.364540   4.825810   4.987547
    23  H    8.317624   7.916994   6.724644   6.581066   6.859337
    24  H    7.758643   6.884966   7.705192   7.184476   7.313071
    25  H    6.129618   5.728391   8.752516   8.548608   8.725563
    26  H    5.597828   4.531016  10.133746   9.643723   9.763767
    27  H    4.361639   3.772856  10.888142  10.582228  10.825992
    28  H    3.846473   2.415348  12.650785  12.174084  12.296462
    29  H    2.585046   2.777327  13.006040  12.811847  12.970420
    30  H    2.039226   3.092162  16.712845  16.509405  16.502629
                   21         22         23         24         25
    21  H    0.000000
    22  H    3.264016   0.000000
    23  H    2.321286   3.289338   0.000000
    24  H    4.726039   2.362987   3.446866   0.000000
    25  H    4.431573   4.404979   2.201998   3.190187   0.000000
    26  H    6.686803   4.828672   4.806690   2.473851   3.277236
    27  H    6.629961   6.178265   4.332024   4.338667   2.245746
    28  H    8.979201   7.366853   6.890846   5.014198   4.920377
    29  H    8.578028   8.476042   6.353864   6.610570   4.266731
    30  H   12.451691  11.903625  10.311660   9.755903   8.131444
                   26         27         28         29         30
    26  H    0.000000
    27  H    2.966332   0.000000
    28  H    2.540881   3.361230   0.000000
    29  H    4.873070   2.437886   4.026073   0.000000
    30  H    7.512046   6.282554   5.458186   4.241684   0.000000
 Stoichiometry    C13H13NS3
 Framework group  C1[X(C13H13NS3)]
 Deg. of freedom    84
 Full point group                 C1      NOp   1
 Largest Abelian subgroup         C1      NOp   1
 Largest concise Abelian subgroup C1      NOp   1
                         Standard orientation:                         
 ---------------------------------------------------------------------
 Center     Atomic      Atomic             Coordinates (Angstroms)
 Number     Number       Type             X           Y           Z
 ---------------------------------------------------------------------
      1          6           0        7.735776   -0.081226   -0.258397
      2         16           0        4.867191   -0.681109   -0.433055
      3          6           0        2.125445   -1.026995   -0.155221
      4          6           0        3.886156   -0.787581    0.354584
      5          6           0        3.705679    0.929631    0.228564
      6          6           0        2.672802    0.719327    0.987013
      7          6           0        1.806035    1.028393   -0.154889
      8          6           0        0.714037    0.592531    0.342832
      9          6           0       -0.414357    1.162401   -0.208569
     10          6           0       -1.553103    1.047316    0.358342
     11          6           0       -2.778539    1.396596   -0.189000
     12          6           0       -3.446730    0.613813    0.585003
     13          6           0       -2.197296   -0.944917    0.682338
     14          6           0       -0.436594   -1.006232   -0.046125
     15          7           0       -2.647893   -0.802107   -0.309041
     16         16           0       -5.189696   -1.020402   -0.199007
     17         16           0       -4.693518    0.490659   -0.305939
     18          1           0        9.470280   -0.270107    0.035207
     19          1           0        9.149972    0.910735    0.009318
     20          1           0        9.210452    0.059745   -1.120191
     21          1           0        5.154434   -1.164139    1.287556
     22          1           0        4.395033    1.295362   -0.719422
     23          1           0        2.927400   -0.568408    1.559209
     24          1           0        2.066794    1.616872   -0.963645
     25          1           0        0.781875   -0.476195    1.072368
     26          1           0       -0.402190    1.766938   -1.002872
     27          1           0       -1.323126    0.246702    1.371972
     28          1           0       -2.933478    1.987395   -1.010175
     29          1           0       -3.412555   -0.971548    1.677652
     30          1           0       -7.209151   -1.303307   -0.184520
 ---------------------------------------------------------------------
 Rotational constants (GHZ):           1.8662209           0.1137363           0.1097433
 Standard basis: 6-31G(2df,p) (6D, 7F)
 There are   604 symmetry adapted cartesian basis functions of A   symmetry.
 There are   553 symmetry adapted basis functions of A   symmetry.
   553 basis functions,   911 primitive gaussians,   604 cartesian basis functions
    73 alpha electrons       73 beta electrons
       nuclear repulsion energy      1466.0108849885 Hartrees.
 NAtoms=   30 NActive=   30 NUniq=   30 SFac= 1.00D+00 NAtFMM=   60 NAOKFM=F Big=F
 Integral buffers will be    131072 words long.
 Raffenetti 2 integral format.
 Two-electron integral symmetry is turned on.
 One-electron integrals computed using PRISM.
 PrsmSu:  requested number of processors reduced to:  12 ShMem   1 Linda.
 NBasis=   553 RedAO= T EigKep=  1.59D-04  NBF=   553
 NBsUse=   553 1.00D-06 EigRej= -1.00D+00 NBFU=   553
 ExpMin= 1.17D-01 ExpMax= 2.19D+04 ExpMxC= 3.30D+03 IAcc=3 IRadAn=         5 AccDes= 0.00D+00
 Harris functional with IExCor=  402 and IRadAn=       5 diagonalized for initial guess.
 HarFok:  IExCor=  402 AccDes= 0.00D+00 IRadAn=         5 IDoV= 1 UseB2=F ITyADJ=14
 ICtDFT=  3500011 ScaDFX=  1.000000  1.000000  1.000000  1.000000
 FoFCou: FMM=F IPFlag=           0 FMFlag=      100000 FMFlg1=           0
         NFxFlg=           0 DoJE=T BraDBF=F KetDBF=T FulRan=T
         wScrn=  0.000000 ICntrl=       500 IOpCl=  0 I1Cent=   200000004 NGrid=           0
         NMat0=    1 NMatS0=      1 NMatT0=    0 NMatD0=    1 NMtDS0=    0 NMtDT0=    0
 Petite list used in FoFCou.
 Requested convergence on RMS density matrix=1.00D-08 within 128 cycles.
 Requested convergence on MAX density matrix=1.00D-06.
 Requested convergence on             energy=1.00D-06.
 No special actions if energy rises.
 Integral accuracy reduced to 1.0D-05 until final iterations.
 EnCoef did     6 forward-backward iterations
 EnCoef did   100 forward-backward iterations
 EnCoef did   100 forward-backward iterations
 EnCoef did     2 forward-backward iterations
 EnCoef did    10 forward-backward iterations
 Problem detected with inexpensive integrals.
 Switching to full accuracy and repeating last cycle.
 EnCoef did     5 forward-backward iterations
 EnCoef did     3 forward-backward iterations
 EnCoef did     2 forward-backward iterations
 EnCoef did     3 forward-backward iterations
 EnCoef did   100 forward-backward iterations
 EnCoef did     6 forward-backward iterations
 EnCoef did   100 forward-backward iterations
 EnCoef did   100 forward-backward iterations
 EnCoef did   100 forward-backward iterations
 EnCoef did    14 forward-backward iterations
 EnCoef did     4 forward-backward iterations
 Rare condition: small coef for last iteration:  0.222D-15
 EnCoef did   100 forward-backward iterations
 Restarting incremental Fock formation.
 SCF Done:  E(RB3LYP) =  -1749.99568160     A.U. after   42 cycles
            NFock= 42  Conv=0.52D-08     -V/T= 2.0007

 **********************************************************************

            Population analysis using the SCF density.

 **********************************************************************

 Orbital symmetries:
       Occupied  (A) (A) (A) (A) (A) (A) (A) (A) (A) (A) (A) (A)
                 (A) (A) (A) (A) (A) (A) (A) (A) (A) (A) (A) (A)
                 (A) (A) (A) (A) (A) (A) (A) (A) (A) (A) (A) (A)
                 (A) (A) (A) (A) (A) (A) (A) (A) (A) (A) (A) (A)
                 (A) (A) (A) (A) (A) (A) (A) (A) (A) (A) (A) (A)
                 (A) (A) (A) (A) (A) (A) (A) (A) (A) (A) (A) (A)
                 (A)
       Virtual   (A) (A) (A) (A) (A) (A) (A) (A) (A) (A) (A) (A)
                 (A) (A) (A) (A) (A) (A) (A) (A) (A) (A) (A) (A)
                 (A) (A) (A) (A) (A) (A) (A) (A) (A) (A) (A) (A)
                 (A) (A) (A) (A) (A) (A) (A) (A) (A) (A) (A) (A)
                 (A) (A) (A) (A) (A) (A) (A) (A) (A) (A) (A) (A)
                 (A) (A) (A) (A) (A) (A) (A) (A) (A) (A) (A) (A)
                 (A) (A) (A) (A) (A) (A) (A) (A) (A) (A) (A) (A)
                 (A) (A) (A) (A) (A) (A) (A) (A) (A) (A) (A) (A)
                 (A) (A) (A) (A) (A) (A) (A) (A) (A) (A) (A) (A)
                 (A) (A) (A) (A) (A) (A) (A) (A) (A) (A) (A) (A)
                 (A) (A) (A) (A) (A) (A) (A) (A) (A) (A) (A) (A)
                 (A) (A) (A) (A) (A) (A) (A) (A) (A) (A) (A) (A)
                 (A) (A) (A) (A) (A) (A) (A) (A) (A) (A) (A) (A)
                 (A) (A) (A) (A) (A) (A) (A) (A) (A) (A) (A) (A)
                 (A) (A) (A) (A) (A) (A) (A) (A) (A) (A) (A) (A)
                 (A) (A) (A) (A) (A) (A) (A) (A) (A) (A) (A) (A)
                 (A) (A) (A) (A) (A) (A) (A) (A) (A) (A) (A) (A)
                 (A) (A) (A) (A) (A) (A) (A) (A) (A) (A) (A) (A)
                 (A) (A) (A) (A) (A) (A) (A) (A) (A) (A) (A) (A)
                 (A) (A) (A) (A) (A) (A) (A) (A) (A) (A) (A) (A)
                 (A) (A) (A) (A) (A) (A) (A) (A) (A) (A) (A) (A)
                 (A) (A) (A) (A) (A) (A) (A) (A) (A) (A) (A) (A)
                 (A) (A) (A) (A) (A) (A) (A) (A) (A) (A) (A) (A)
                 (A) (A) (A) (A) (A) (A) (A) (A) (A) (A) (A) (A)
                 (A) (A) (A) (A) (A) (A) (A) (A) (A) (A) (A) (A)
                 (A) (A) (A) (A) (A) (A) (A) (A) (A) (A) (A) (A)
                 (A) (A) (A) (A) (A) (A) (A) (A) (A) (A) (A) (A)
                 (A) (A) (A) (A) (A) (A) (A) (A) (A) (A) (A) (A)
                 (A) (A) (A) (A) (A) (A) (A) (A) (A) (A) (A) (A)
                 (A) (A) (A) (A) (A) (A) (A) (A) (A) (A) (A) (A)
                 (A) (A) (A) (A) (A) (A) (A) (A) (A) (A) (A) (A)
                 (A) (A) (A) (A) (A) (A) (A) (A) (A) (A) (A) (A)
                 (A) (A) (A) (A) (A) (A) (A) (A) (A) (A) (A) (A)
                 (A) (A) (A) (A) (A) (A) (A) (A) (A) (A) (A) (A)
                 (A) (A) (A) (A) (A) (A) (A) (A) (A) (A) (A) (A)
                 (A) (A) (A) (A) (A) (A) (A) (A) (A) (A) (A) (A)
                 (A) (A) (A) (A) (A) (A) (A) (A) (A) (A) (A) (A)
                 (A) (A) (A) (A) (A) (A) (A) (A) (A) (A) (A) (A)
                 (A) (A) (A) (A) (A) (A) (A) (A) (A) (A) (A) (A)
                 (A) (A) (A) (A) (A) (A) (A) (A) (A) (A) (A) (A)
 The electronic state is 1-A.
 Alpha  occ. eigenvalues --  -88.92052 -88.90888 -88.88435 -14.32262 -10.31503
 Alpha  occ. eigenvalues --  -10.31071 -10.28708 -10.27744 -10.27210 -10.26848
 Alpha  occ. eigenvalues --  -10.26836 -10.25315 -10.25169 -10.24649 -10.21834
 Alpha  occ. eigenvalues --  -10.21350 -10.20747  -8.00665  -7.98774  -7.96087
 Alpha  occ. eigenvalues --   -5.96804  -5.96417  -5.96317  -5.95138  -5.94558
 Alpha  occ. eigenvalues --   -5.94414  -5.92437  -5.92036  -5.91522  -1.03867
 Alpha  occ. eigenvalues --   -1.02117  -0.95888  -0.95084  -0.89453  -0.86251
 Alpha  occ. eigenvalues --   -0.79684  -0.70284  -0.69463  -0.65470  -0.62969
 Alpha  occ. eigenvalues --   -0.61387  -0.60859  -0.58919  -0.58030  -0.54813
 Alpha  occ. eigenvalues --   -0.53300  -0.52479  -0.51815  -0.50411  -0.49156
 Alpha  occ. eigenvalues --   -0.48530  -0.47339  -0.45462  -0.44873  -0.42981
 Alpha  occ. eigenvalues --   -0.41608  -0.39464  -0.37995  -0.37134  -0.36651
 Alpha  occ. eigenvalues --   -0.35104  -0.33859  -0.33429  -0.30592  -0.29755
 Alpha  occ. eigenvalues --   -0.26811  -0.22768  -0.21672  -0.21556  -0.21057
 Alpha  occ. eigenvalues --   -0.20224  -0.18582  -0.17419
 Alpha virt. eigenvalues --   -0.15785  -0.12521  -0.11111  -0.10464  -0.09363
 Alpha virt. eigenvalues --   -0.08006  -0.07066  -0.06185  -0.05256  -0.03824
 Alpha virt. eigenvalues --   -0.03376  -0.01371  -0.00457   0.01704   0.01964
 Alpha virt. eigenvalues --    0.03064   0.03903   0.04855   0.05555   0.07131
 Alpha virt. eigenvalues --    0.07852   0.09210   0.10353   0.10973   0.11857
 Alpha virt. eigenvalues --    0.12626   0.14074   0.15308   0.16295   0.18255
 Alpha virt. eigenvalues --    0.19002   0.21664   0.24439   0.24754   0.25689
 Alpha virt. eigenvalues --    0.26470   0.28116   0.29229   0.30410   0.31539
 Alpha virt. eigenvalues --    0.32120   0.33300   0.34920   0.36141   0.37111
 Alpha virt. eigenvalues --    0.37848   0.37897   0.38539   0.39844   0.40362
 Alpha virt. eigenvalues --    0.40869   0.41401   0.42528   0.42638   0.43694
 Alpha virt. eigenvalues --    0.44655   0.45673   0.46029   0.46699   0.47504
 Alpha virt. eigenvalues --    0.48304   0.48581   0.49917   0.50256   0.51640
 Alpha virt. eigenvalues --    0.52106   0.52402   0.53005   0.53429   0.54403
 Alpha virt. eigenvalues --    0.54884   0.57128   0.57743   0.58917   0.59517
 Alpha virt. eigenvalues --    0.59974   0.60215   0.60688   0.61938   0.62454
 Alpha virt. eigenvalues --    0.62880   0.64228   0.64288   0.64811   0.65496
 Alpha virt. eigenvalues --    0.65675   0.66320   0.67391   0.68339   0.68643
 Alpha virt. eigenvalues --    0.69276   0.69630   0.71459   0.72469   0.72839
 Alpha virt. eigenvalues --    0.73749   0.74267   0.74428   0.75407   0.75690
 Alpha virt. eigenvalues --    0.76980   0.77021   0.78546   0.78706   0.79305
 Alpha virt. eigenvalues --    0.79904   0.81604   0.81946   0.82244   0.83165
 Alpha virt. eigenvalues --    0.84249   0.85213   0.86952   0.87410   0.87823
 Alpha virt. eigenvalues --    0.88058   0.88291   0.88695   0.89898   0.90470
 Alpha virt. eigenvalues --    0.91296   0.92125   0.93309   0.94593   0.95065
 Alpha virt. eigenvalues --    0.96611   0.98132   0.98854   1.00657   1.01638
 Alpha virt. eigenvalues --    1.02193   1.03840   1.04428   1.04911   1.05721
 Alpha virt. eigenvalues --    1.07545   1.09302   1.10206   1.11458   1.11786
 Alpha virt. eigenvalues --    1.13133   1.15574   1.16825   1.17612   1.19634
 Alpha virt. eigenvalues --    1.20480   1.21115   1.22031   1.23205   1.23704
 Alpha virt. eigenvalues --    1.26211   1.26565   1.27121   1.27651   1.28584
 Alpha virt. eigenvalues --    1.31240   1.32804   1.33194   1.34450   1.34829
 Alpha virt. eigenvalues --    1.37372   1.38398   1.40901   1.42478   1.43510
 Alpha virt. eigenvalues --    1.44315   1.45225   1.46618   1.48039   1.49881
 Alpha virt. eigenvalues --    1.50909   1.52273   1.52946   1.54311   1.54544
 Alpha virt. eigenvalues --    1.55163   1.56252   1.57472   1.58197   1.58381
 Alpha virt. eigenvalues --    1.59827   1.60526   1.61303   1.61536   1.62897
 Alpha virt. eigenvalues --    1.64542   1.65519   1.66088   1.66413   1.67632
 Alpha virt. eigenvalues --    1.68325   1.69376   1.70600   1.71295   1.73423
 Alpha virt. eigenvalues --    1.74950   1.75609   1.76066   1.76685   1.77207
 Alpha virt. eigenvalues --    1.78182   1.78912   1.80528   1.82277   1.82817
 Alpha virt. eigenvalues --    1.85607   1.86052   1.86822   1.88068   1.90412
 Alpha virt. eigenvalues --    1.92725   1.94544   1.96633   1.97544   1.98319
 Alpha virt. eigenvalues --    1.99411   1.99722   2.02322   2.02985   2.03750
 Alpha virt. eigenvalues --    2.05174   2.05436   2.06804   2.07434   2.08553
 Alpha virt. eigenvalues --    2.12032   2.12666   2.13125   2.13609   2.14242
 Alpha virt. eigenvalues --    2.16809   2.17682   2.18253   2.19030   2.20157
 Alpha virt. eigenvalues --    2.20846   2.22528   2.23736   2.25716   2.26298
 Alpha virt. eigenvalues --    2.27831   2.28522   2.29830   2.30857   2.31378
 Alpha virt. eigenvalues --    2.33230   2.34911   2.36256   2.39255   2.40030
 Alpha virt. eigenvalues --    2.40487   2.41420   2.43269   2.43687   2.44337
 Alpha virt. eigenvalues --    2.45618   2.45906   2.47285   2.47850   2.49862
 Alpha virt. eigenvalues --    2.50269   2.50907   2.52597   2.55142   2.55637
 Alpha virt. eigenvalues --    2.57424   2.58779   2.61041   2.61945   2.62604
 Alpha virt. eigenvalues --    2.65737   2.67041   2.69918   2.71004   2.71692
 Alpha virt. eigenvalues --    2.73677   2.74859   2.75973   2.77336   2.78719
 Alpha virt. eigenvalues --    2.80099   2.80795   2.81788   2.83291   2.84753
 Alpha virt. eigenvalues --    2.85750   2.86577   2.86907   2.87239   2.87611
 Alpha virt. eigenvalues --    2.87851   2.88413   2.89207   2.90004   2.91207
 Alpha virt. eigenvalues --    2.92688   2.94149   2.94833   2.95843   2.97255
 Alpha virt. eigenvalues --    2.97601   2.99244   3.01726   3.02690   3.04734
 Alpha virt. eigenvalues --    3.05451   3.07405   3.07953   3.10304   3.11282
 Alpha virt. eigenvalues --    3.12921   3.14031   3.14421   3.16314   3.16796
 Alpha virt. eigenvalues --    3.18763   3.19188   3.20476   3.21178   3.22146
 Alpha virt. eigenvalues --    3.24858   3.25369   3.25531   3.26290   3.27998
 Alpha virt. eigenvalues --    3.28431   3.28810   3.30645   3.32184   3.33268
 Alpha virt. eigenvalues --    3.35251   3.38416   3.39576   3.40776   3.41351
 Alpha virt. eigenvalues --    3.42952   3.44305   3.45626   3.49052   3.49806
 Alpha virt. eigenvalues --    3.52008   3.52308   3.53652   3.54947   3.56521
 Alpha virt. eigenvalues --    3.57866   3.61715   3.63396   3.65057   3.66018
 Alpha virt. eigenvalues --    3.67952   3.68582   3.70180   3.71259   3.73432
 Alpha virt. eigenvalues --    3.76936   3.78746   3.80909   3.82422   3.84043
 Alpha virt. eigenvalues --    3.85828   3.87253   3.88570   3.89730   3.91146
 Alpha virt. eigenvalues --    3.93140   3.94838   3.96391   3.99306   4.02429
 Alpha virt. eigenvalues --    4.05504   4.06200   4.07273   4.09042   4.11409
 Alpha virt. eigenvalues --    4.14185   4.17072   4.18904   4.20626   4.21293
 Alpha virt. eigenvalues --    4.21728   4.22011   4.23136   4.25252   4.26555
 Alpha virt. eigenvalues --    4.28913   4.29753   4.34501   4.34811   4.36506
 Alpha virt. eigenvalues --    4.38267   4.38690   4.39927   4.40958   4.43761
 Alpha virt. eigenvalues --    4.45856   4.47180   4.48859   4.49670   4.50533
 Alpha virt. eigenvalues --    4.52313   4.53192   4.55945   4.56673   4.58239
 Alpha virt. eigenvalues --    4.58807   4.61571   4.63337   4.64031   4.64330
 Alpha virt. eigenvalues --    4.65906   4.67269   4.68868   4.71336   4.72127
 Alpha virt. eigenvalues --    4.73854   4.75925   4.76206   4.79283   4.82432
 Alpha virt. eigenvalues --    4.84379   4.85310   4.88172   4.91914   4.92492
 Alpha virt. eigenvalues --    4.93017   4.96879   4.98007   4.99932   5.00409
 Alpha virt. eigenvalues --    5.02700   5.03074   5.04102   5.05980   5.09122
 Alpha virt. eigenvalues --    5.10864   5.11604   5.14476   5.17597   5.18810
 Alpha virt. eigenvalues --    5.22165   5.24681   5.28016   5.28727   5.32339
 Alpha virt. eigenvalues --    5.33555   5.37426   5.43572   5.45648   5.51907
 Alpha virt. eigenvalues --    5.52637   5.55747   5.59553   5.61054   5.67138
 Alpha virt. eigenvalues --    5.72222   5.73894   5.83169   5.84871   6.04026
 Alpha virt. eigenvalues --    6.07208   6.21642   6.36536   6.60312   6.90149
 Alpha virt. eigenvalues --    9.82517  10.38175  10.63532  10.69136  10.94385
 Alpha virt. eigenvalues --   11.24004  11.29318  11.53660  11.62084  11.80610
 Alpha virt. eigenvalues --   12.05283  12.20020  12.21462  12.40517  20.84510
          Condensed to atoms (all electrons):
               1          2          3          4          5          6
     1  C    5.981253   0.036386   0.000003  -0.003748  -0.001242   0.000004
     2  S    0.036386  15.843947   0.008075   0.350654  -0.099522  -0.048486
     3  C    0.000003   0.008075   6.083470   0.159500  -0.085035   0.031904
     4  C   -0.003748   0.350654   0.159500   5.553708  -0.030513  -0.090529
     5  C   -0.001242  -0.099522  -0.085035  -0.030513   5.472682   0.522689
     6  C    0.000004  -0.048486   0.031904  -0.090529   0.522689   5.539294
     7  C    0.000003   0.025446   0.076309  -0.004561  -0.076368   0.246250
     8  C   -0.000000  -0.000236  -0.084051   0.012378  -0.018777   0.000093
     9  C   -0.000000  -0.000022   0.007479  -0.000208   0.000479  -0.001736
    10  C    0.000000   0.000006   0.000646  -0.000003  -0.000027   0.000550
    11  C    0.000000  -0.000000   0.000003  -0.000000   0.000001   0.000011
    12  C    0.000000   0.000000  -0.000011  -0.000000  -0.000000   0.000000
    13  C   -0.000000   0.000001   0.000319  -0.000009   0.000003  -0.000048
    14  C   -0.000000   0.000266   0.010549   0.000326  -0.000081  -0.001109
    15  N   -0.000000   0.000000   0.000211  -0.000000   0.000000  -0.000007
    16  S   -0.000000  -0.000000   0.000000  -0.000000   0.000000   0.000000
    17  S   -0.000000   0.000000   0.000002  -0.000000   0.000000   0.000000
    18  H    0.014143   0.001090   0.000000  -0.000029   0.000010  -0.000000
    19  H    0.101830  -0.000096  -0.000000  -0.000021  -0.000024   0.000000
    20  H    0.130049   0.000798   0.000000   0.000047   0.000002   0.000000
    21  H    0.003185  -0.096374  -0.012395   0.085954   0.011167  -0.011153
    22  H    0.001013  -0.033258  -0.003255  -0.030837   0.366772  -0.028309
    23  H   -0.000019  -0.024985  -0.002122   0.076009  -0.032671   0.207801
    24  H   -0.000001  -0.001526   0.003806   0.001020   0.008428  -0.063705
    25  H   -0.000000  -0.000772   0.054101  -0.005500   0.005183  -0.019512
    26  H    0.000000  -0.000006  -0.000222   0.000029  -0.000083   0.000444
    27  H    0.000000   0.000002  -0.000468   0.000019  -0.000000  -0.000115
    28  H    0.000000  -0.000000   0.000000  -0.000000   0.000000   0.000000
    29  H    0.000000   0.000000   0.000003   0.000000   0.000000  -0.000000
    30  H    0.000000  -0.000000  -0.000000  -0.000000   0.000000   0.000000
               7          8          9         10         11         12
     1  C    0.000003  -0.000000  -0.000000   0.000000   0.000000   0.000000
     2  S    0.025446  -0.000236  -0.000022   0.000006  -0.000000   0.000000
     3  C    0.076309  -0.084051   0.007479   0.000646   0.000003  -0.000011
     4  C   -0.004561   0.012378  -0.000208  -0.000003  -0.000000  -0.000000
     5  C   -0.076368  -0.018777   0.000479  -0.000027   0.000001  -0.000000
     6  C    0.246250   0.000093  -0.001736   0.000550   0.000011   0.000000
     7  C    5.066433   0.454927  -0.038628  -0.006969  -0.000812   0.000010
     8  C    0.454927   4.934332   0.438596   0.037131   0.004337  -0.000375
     9  C   -0.038628   0.438596   4.880622   0.506038  -0.035411  -0.003024
    10  C   -0.006969   0.037131   0.506038   5.042461   0.432119   0.014279
    11  C   -0.000812   0.004337  -0.035411   0.432119   5.008376   0.558785
    12  C    0.000010  -0.000375  -0.003024   0.014279   0.558785   5.227885
    13  C    0.000367  -0.005304  -0.010315  -0.043242  -0.040369  -0.034933
    14  C   -0.007829  -0.000491   0.026957  -0.049736  -0.005759   0.007755
    15  N   -0.000323   0.000105  -0.004134  -0.091299  -0.089066   0.059687
    16  S    0.000001  -0.000006   0.000177   0.002549   0.007754  -0.096181
    17  S   -0.000010  -0.000107   0.000588  -0.004861  -0.107790   0.321871
    18  H   -0.000000   0.000000   0.000000  -0.000000  -0.000000  -0.000000
    19  H    0.000000  -0.000000  -0.000000   0.000000   0.000000   0.000000
    20  H    0.000000  -0.000000  -0.000000   0.000000   0.000000   0.000000
    21  H    0.001581   0.000010  -0.000000   0.000000  -0.000000  -0.000000
    22  H   -0.005705   0.000078  -0.000004   0.000000   0.000000  -0.000000
    23  H   -0.020010  -0.011745   0.000457   0.000000  -0.000000  -0.000000
    24  H    0.403891  -0.045514  -0.003361   0.000795   0.000002  -0.000001
    25  H   -0.020141   0.254912  -0.018229  -0.004512   0.000197  -0.000038
    26  H    0.000299  -0.054782   0.368211  -0.043793  -0.013334   0.000180
    27  H    0.001031  -0.009760  -0.054118   0.356403  -0.017630  -0.022026
    28  H   -0.000002   0.000416   0.000086  -0.064499   0.416190  -0.055866
    29  H   -0.000010   0.000013   0.001403  -0.005837   0.002889   0.033537
    30  H    0.000000  -0.000000   0.000000   0.000002  -0.000037   0.000678
              13         14         15         16         17         18
     1  C   -0.000000  -0.000000  -0.000000  -0.000000  -0.000000   0.014143
     2  S    0.000001   0.000266   0.000000  -0.000000   0.000000   0.001090
     3  C    0.000319   0.010549   0.000211   0.000000   0.000002   0.000000
     4  C   -0.000009   0.000326  -0.000000  -0.000000  -0.000000  -0.000029
     5  C    0.000003  -0.000081   0.000000   0.000000   0.000000   0.000010
     6  C   -0.000048  -0.001109  -0.000007   0.000000   0.000000  -0.000000
     7  C    0.000367  -0.007829  -0.000323   0.000001  -0.000010  -0.000000
     8  C   -0.005304  -0.000491   0.000105  -0.000006  -0.000107   0.000000
     9  C   -0.010315   0.026957  -0.004134   0.000177   0.000588   0.000000
    10  C   -0.043242  -0.049736  -0.091299   0.002549  -0.004861  -0.000000
    11  C   -0.040369  -0.005759  -0.089066   0.007754  -0.107790  -0.000000
    12  C   -0.034933   0.007755   0.059687  -0.096181   0.321871  -0.000000
    13  C    5.355580   0.146068   0.713413  -0.019719  -0.015990  -0.000000
    14  C    0.146068   6.002817   0.011767   0.000461   0.001096   0.000000
    15  N    0.713413   0.011767   6.562715   0.020592  -0.042685   0.000000
    16  S   -0.019719   0.000461   0.020592  15.858886   0.196421   0.000000
    17  S   -0.015990   0.001096  -0.042685   0.196421  15.535693   0.000000
    18  H   -0.000000   0.000000   0.000000   0.000000   0.000000   0.807206
    19  H    0.000000  -0.000000  -0.000000   0.000000  -0.000000   0.074226
    20  H    0.000000  -0.000000  -0.000000   0.000000  -0.000000   0.035739
    21  H    0.000000   0.000007  -0.000000   0.000000   0.000000  -0.000061
    22  H    0.000000  -0.000006  -0.000000   0.000000  -0.000000  -0.000009
    23  H    0.000027   0.000724   0.000001  -0.000000   0.000000  -0.000000
    24  H   -0.000004  -0.000509  -0.000003   0.000000  -0.000000   0.000000
    25  H    0.003179  -0.011865   0.000273   0.000004  -0.000001  -0.000000
    26  H    0.000382  -0.000455  -0.001661  -0.000012  -0.000152  -0.000000
    27  H    0.014225  -0.040971  -0.023881  -0.000927   0.001192   0.000000
    28  H    0.002344   0.000025  -0.006531   0.000551  -0.015452  -0.000000
    29  H    0.195671  -0.007786  -0.073610   0.025235   0.000744   0.000000
    30  H   -0.000045   0.000000   0.000156   0.120808  -0.009291   0.000000
              19         20         21         22         23         24
     1  C    0.101830   0.130049   0.003185   0.001013  -0.000019  -0.000001
     2  S   -0.000096   0.000798  -0.096374  -0.033258  -0.024985  -0.001526
     3  C   -0.000000   0.000000  -0.012395  -0.003255  -0.002122   0.003806
     4  C   -0.000021   0.000047   0.085954  -0.030837   0.076009   0.001020
     5  C   -0.000024   0.000002   0.011167   0.366772  -0.032671   0.008428
     6  C    0.000000   0.000000  -0.011153  -0.028309   0.207801  -0.063705
     7  C    0.000000   0.000000   0.001581  -0.005705  -0.020010   0.403891
     8  C   -0.000000  -0.000000   0.000010   0.000078  -0.011745  -0.045514
     9  C   -0.000000  -0.000000  -0.000000  -0.000004   0.000457  -0.003361
    10  C    0.000000   0.000000   0.000000   0.000000   0.000000   0.000795
    11  C    0.000000   0.000000  -0.000000   0.000000  -0.000000   0.000002
    12  C    0.000000   0.000000  -0.000000  -0.000000  -0.000000  -0.000001
    13  C    0.000000   0.000000   0.000000   0.000000   0.000027  -0.000004
    14  C   -0.000000  -0.000000   0.000007  -0.000006   0.000724  -0.000509
    15  N   -0.000000  -0.000000  -0.000000  -0.000000   0.000001  -0.000003
    16  S    0.000000   0.000000   0.000000   0.000000  -0.000000   0.000000
    17  S   -0.000000  -0.000000   0.000000  -0.000000   0.000000  -0.000000
    18  H    0.074226   0.035739  -0.000061  -0.000009  -0.000000   0.000000
    19  H    0.958227  -0.129657   0.000018   0.000015   0.000000  -0.000000
    20  H   -0.129657   0.971440  -0.000022   0.000003   0.000000  -0.000000
    21  H    0.000018  -0.000022   0.961646   0.002691  -0.003539   0.000033
    22  H    0.000015   0.000003   0.002691   0.454320   0.003268  -0.000152
    23  H    0.000000   0.000000  -0.003539   0.003268   0.542087  -0.000015
    24  H   -0.000000  -0.000000   0.000033  -0.000152  -0.000015   0.536510
    25  H    0.000000  -0.000000  -0.000153  -0.000002   0.006711   0.002811
    26  H    0.000000   0.000000   0.000000  -0.000011  -0.000040   0.002198
    27  H   -0.000000  -0.000000   0.000000  -0.000000  -0.000050   0.000021
    28  H    0.000000   0.000000  -0.000000   0.000000  -0.000000   0.000008
    29  H   -0.000000  -0.000000  -0.000000  -0.000000   0.000000   0.000000
    30  H    0.000000   0.000000   0.000000   0.000000  -0.000000   0.000000
              25         26         27         28         29         30
     1  C   -0.000000   0.000000   0.000000   0.000000   0.000000   0.000000
     2  S   -0.000772  -0.000006   0.000002  -0.000000   0.000000  -0.000000
     3  C    0.054101  -0.000222  -0.000468   0.000000   0.000003  -0.000000
     4  C   -0.005500   0.000029   0.000019  -0.000000   0.000000  -0.000000
     5  C    0.005183  -0.000083  -0.000000   0.000000   0.000000   0.000000
     6  C   -0.019512   0.000444  -0.000115   0.000000  -0.000000   0.000000
     7  C   -0.020141   0.000299   0.001031  -0.000002  -0.000010   0.000000
     8  C    0.254912  -0.054782  -0.009760   0.000416   0.000013  -0.000000
     9  C   -0.018229   0.368211  -0.054118   0.000086   0.001403   0.000000
    10  C   -0.004512  -0.043793   0.356403  -0.064499  -0.005837   0.000002
    11  C    0.000197  -0.013334  -0.017630   0.416190   0.002889  -0.000037
    12  C   -0.000038   0.000180  -0.022026  -0.055866   0.033537   0.000678
    13  C    0.003179   0.000382   0.014225   0.002344   0.195671  -0.000045
    14  C   -0.011865  -0.000455  -0.040971   0.000025  -0.007786   0.000000
    15  N    0.000273  -0.001661  -0.023881  -0.006531  -0.073610   0.000156
    16  S    0.000004  -0.000012  -0.000927   0.000551   0.025235   0.120808
    17  S   -0.000001  -0.000152   0.001192  -0.015452   0.000744  -0.009291
    18  H   -0.000000  -0.000000   0.000000  -0.000000   0.000000   0.000000
    19  H    0.000000   0.000000  -0.000000   0.000000  -0.000000   0.000000
    20  H   -0.000000   0.000000  -0.000000   0.000000  -0.000000   0.000000
    21  H   -0.000153   0.000000   0.000000  -0.000000  -0.000000   0.000000
    22  H   -0.000002  -0.000011  -0.000000   0.000000  -0.000000   0.000000
    23  H    0.006711  -0.000040  -0.000050  -0.000000   0.000000  -0.000000
    24  H    0.002811   0.002198   0.000021   0.000008   0.000000   0.000000
    25  H    0.500560   0.001743   0.002065   0.000006  -0.000095   0.000000
    26  H    0.001743   0.640545   0.008901   0.004281  -0.000009   0.000000
    27  H    0.002065   0.008901   0.601943   0.001561  -0.007954  -0.000000
    28  H    0.000006   0.004281   0.001561   0.569033  -0.000080   0.000001
    29  H   -0.000095  -0.000009  -0.007954  -0.000080   0.720243  -0.000000
    30  H    0.000000   0.000000  -0.000000   0.000001  -0.000000   0.971508
 Mulliken charges:
               1
     1  C   -0.262860
     2  S    0.038614
     3  C   -0.248820
     4  C   -0.073685
     5  C   -0.043071
     6  C   -0.284331
     7  C   -0.095182
     8  C    0.093822
     9  C   -0.061902
    10  C   -0.078199
    11  C   -0.120456
    12  C   -0.012214
    13  C   -0.261602
    14  C   -0.082220
    15  N   -0.035720
    16  S   -0.116594
    17  S    0.138733
    18  H    0.067685
    19  H   -0.004518
    20  H   -0.008399
    21  H    0.057404
    22  H    0.273390
    23  H    0.258109
    24  H    0.155268
    25  H    0.249074
    26  H    0.087346
    27  H    0.190537
    28  H    0.147928
    29  H    0.115642
    30  H   -0.083780
 Sum of Mulliken charges =  -0.00000
 Mulliken charges with hydrogens summed into heavy atoms:
               1
     1  C   -0.208092
     2  S    0.038614
     3  C   -0.248820
     4  C   -0.016281
     5  C    0.230319
     6  C   -0.026222
     7  C    0.060086
     8  C    0.342897
     9  C    0.025443
    10  C    0.112338
    11  C    0.027473
    12  C   -0.012214
    13  C   -0.145961
    14  C   -0.082220
    15  N   -0.035720
    16  S   -0.200374
    17  S    0.138733
 Electronic spatial extent (au):  <R**2>=           9390.6872
 Charge=             -0.0000 electrons
 Dipole moment (field-independent basis, Debye):
    X=              1.4028    Y=              4.5689    Z=              0.0143  Tot=              4.7795
 Quadrupole moment (field-independent basis, Debye-Ang):
   XX=           -168.4495   YY=           -124.3254   ZZ=           -127.1485
   XY=             -3.1225   XZ=             -0.6905   YZ=             -8.1876
 Traceless Quadrupole moment (field-independent basis, Debye-Ang):
   XX=            -28.4751   YY=             15.6491   ZZ=             12.8260
   XY=             -3.1225   XZ=             -0.6905   YZ=             -8.1876
 Octapole moment (field-independent basis, Debye-Ang**2):
  XXX=           -103.1721  YYY=             15.8016  ZZZ=             -7.0868  XYY=            -17.1448
  XXY=             58.8172  XXZ=              9.4236  XZZ=            -34.2596  YZZ=              5.0765
  YYZ=            -12.6187  XYZ=             -6.9369
 Hexadecapole moment (field-independent basis, Debye-Ang**3):
 XXXX=         -14914.7569 YYYY=           -719.2318 ZZZZ=           -336.4730 XXXY=           -154.3295
 XXXZ=             72.7044 YYYX=            -17.1342 YYYZ=            -17.6019 ZZZX=             25.8953
 ZZZY=            -13.4468 XXYY=          -2328.0209 XXZZ=          -2320.7323 YYZZ=           -175.5420
 XXYZ=           -105.8113 YYXZ=             -4.7802 ZZXY=             -8.4418
 N-N= 1.466010884988D+03 E-N=-7.060643490550D+03  KE= 1.748768193330D+03
 PrsmSu:  requested number of processors reduced to:  13 ShMem   1 Linda.
 Calling FoFJK, ICntrl=      2127 FMM=F ISym2X=0 I1Cent= 0 IOpClX= 0 NMat=1 NMatS=1 NMatT=0.
 ***** Axes restored to original set *****
 -------------------------------------------------------------------
 Center     Atomic                   Forces (Hartrees/Bohr)
 Number     Number              X              Y              Z
 -------------------------------------------------------------------
      1        6          -0.100513304   -0.025261833   -0.019748126
      2       16          -0.736544497   -0.260253500    0.274016631
      3        6          -0.023812761   -0.032489815   -0.016752514
      4        6           0.692604065    0.163491884   -0.216888559
      5        6          -0.146910087    0.003394313    0.001504660
      6        6           0.011009644   -0.015740357   -0.066986744
      7        6          -0.059593081   -0.076004153   -0.019821633
      8        6           0.131798165    0.020219416    0.003929634
      9        6          -0.007441133   -0.045403451   -0.021700943
     10        6           0.027298892    0.026317681   -0.093323774
     11        6          -0.121504518   -0.010260414   -0.115548734
     12        6           0.066330312    0.010978801   -0.075578521
     13        6           0.086874650   -0.191246417   -0.253751759
     14        6           0.032058053   -0.007295378    0.025643282
     15        7          -0.039748481    0.052039285    0.313099686
     16       16           0.360464982   -0.260664840    0.191406514
     17       16          -0.162880222    0.352852159   -0.010268986
     18        1           0.004260802    0.037195546    0.011734221
     19        1           0.050457319   -0.003677116   -0.008417424
     20        1           0.052743305   -0.003748006    0.020457763
     21        1           0.043836599    0.015141096   -0.004054274
     22        1           0.068255308    0.024846680   -0.029966353
     23        1          -0.006169078    0.042459085    0.011814019
     24        1          -0.020638442    0.020563412    0.022559724
     25        1          -0.028226006    0.053685976    0.008737407
     26        1          -0.059918251    0.033453083    0.046516315
     27        1          -0.022035351    0.078010606    0.021735559
     28        1          -0.020032539    0.028796873    0.028675645
     29        1          -0.043991748   -0.018728602   -0.005325604
     30        1          -0.028032600   -0.012672013   -0.023697114
 -------------------------------------------------------------------
 Cartesian Forces:  Max     0.736544497 RMS     0.148989728

 GradGradGradGradGradGradGradGradGradGradGradGradGradGradGradGradGradGrad
 Berny optimization.
 FormGI is forming the generalized inverse of G from B-inverse, IUseBI=4.
 Internal  Forces:  Max     0.664414274 RMS     0.090489391
 Search for a local minimum.
 Step number   1 out of a maximum of  174
 All quantities printed in internal units (Hartrees-Bohrs-Radians)
 Mixed Optimization -- RFO/linear search
 Second derivative matrix not updated -- first step.
 ITU=  0
     Eigenvalues ---    0.00230   0.00230   0.00230   0.00790   0.00808
     Eigenvalues ---    0.01330   0.01526   0.02029   0.02152   0.02263
     Eigenvalues ---    0.02364   0.02465   0.02506   0.02591   0.02615
     Eigenvalues ---    0.02657   0.03002   0.03085   0.03279   0.03712
     Eigenvalues ---    0.03876   0.03908   0.04488   0.04864   0.05324
     Eigenvalues ---    0.05389   0.05891   0.05990   0.06384   0.06668
     Eigenvalues ---    0.06892   0.06949   0.07102   0.07402   0.08208
     Eigenvalues ---    0.08523   0.08739   0.09153   0.09544   0.09676
     Eigenvalues ---    0.10207   0.10562   0.10868   0.10909   0.11518
     Eigenvalues ---    0.13053   0.13111   0.13287   0.13621   0.15162
     Eigenvalues ---    0.15563   0.15597   0.15657   0.15754   0.15931
     Eigenvalues ---    0.15945   0.16000   0.16000   0.16000   0.17921
     Eigenvalues ---    0.18012   0.18027   0.18594   0.21106   0.21610
     Eigenvalues ---    0.22014   0.22738   0.22749   0.24894   0.25000
     Eigenvalues ---    0.33316   0.42233   0.43798   0.47876   0.47995
     Eigenvalues ---    0.49257   0.54335   0.58611   0.67290   0.67874
     Eigenvalues ---    0.73928   1.78443   2.05942   2.24514
 RFO step:  Lambda=-7.88673669D-01 EMin= 2.30000000D-03
 Linear search not attempted -- first point.
 Maximum step size (   0.300) exceeded in Quadratic search.
    -- Step size scaled by   0.441
 Iteration  1 RMS(Cart)=  0.12992025 RMS(Int)=  0.00781718
 Iteration  2 RMS(Cart)=  0.02439893 RMS(Int)=  0.00026165
 Iteration  3 RMS(Cart)=  0.00055623 RMS(Int)=  0.00005477
 Iteration  4 RMS(Cart)=  0.00000039 RMS(Int)=  0.00005477
 Variable       Old X    -DE/DX   Delta X   Delta X   Delta X     New X
                                 (Linear)    (Quad)   (Total)
    R1        5.54793  -0.00910   0.00000  -0.00492  -0.00492   5.54301
    R2        3.34347  -0.02712   0.00000  -0.01363  -0.01365   3.32982
    R3        3.30330  -0.04199   0.00000  -0.02143  -0.02143   3.28187
    R4        3.23868  -0.04079   0.00000  -0.02125  -0.02121   3.21747
    R5        2.38595   0.66441   0.00000   0.09624   0.09630   2.48225
    R6        3.95551   0.16304   0.00000   0.03819   0.03816   3.99366
    R7        3.49335  -0.01328   0.00000  -0.00317  -0.00317   3.49018
    R8        3.68022   0.01041   0.00000   0.00182   0.00180   3.68201
    R9        3.59323   0.03060   0.00000   0.01732   0.01734   3.61057
   R10        3.27161  -0.00715   0.00000   0.00959   0.00962   3.28123
   R11        3.05923  -0.01958   0.00000  -0.00985  -0.00985   3.04938
   R12        2.93873  -0.04505   0.00000  -0.00512  -0.00509   2.93365
   R13        2.45396   0.12898   0.00000   0.02771   0.02768   2.48164
   R14        2.32032  -0.07362   0.00000  -0.03193  -0.03193   2.28840
   R15        2.77136   0.04370   0.00000   0.01809   0.01809   2.78945
   R16        2.70600  -0.01946   0.00000  -0.01089  -0.01095   2.69504
   R17        2.41276   0.15100   0.00000   0.04341   0.04340   2.45616
   R18        1.95328   0.03516   0.00000   0.01279   0.01279   1.96607
   R19        2.60623   0.04758   0.00000   0.01636   0.01636   2.62259
   R20        2.44864  -0.03488   0.00000  -0.01630  -0.01628   2.43235
   R21        2.41366   0.11759   0.00000   0.03391   0.03391   2.44757
   R22        1.88644   0.08093   0.00000   0.02811   0.02811   1.91455
   R23        2.62071   0.11681   0.00000   0.04061   0.04061   2.66132
   R24        2.47930   0.00451   0.00000   0.00205   0.00205   2.48135
   R25        2.43350   0.09008   0.00000   0.02761   0.02759   2.46109
   R26        4.00940   0.15295   0.00000   0.07117   0.07125   4.08065
   R27        1.93397   0.04522   0.00000   0.01624   0.01624   1.95022
   R28        2.90516   0.09466   0.00000   0.03105   0.03096   2.93612
   R29        2.07549   0.30682   0.00000   0.05254   0.05254   2.12803
   R30        3.08189   0.08580   0.00000   0.04326   0.04326   3.12515
   R31        2.96886  -0.04310   0.00000  -0.02145  -0.02145   2.94742
   R32        3.28216   0.03480   0.00000   0.01788   0.01788   3.30004
   R33        3.01228   0.46128   0.00000   0.07136   0.07136   3.08364
   R34        3.85358  -0.03680   0.00000  -0.01926  -0.01926   3.83432
   R35        2.31262  -0.00693   0.00000  -0.00355  -0.00356   2.30906
   R36        2.32310   0.00314   0.00000   0.00143   0.00142   2.32453
    A1        2.81128   0.01101   0.00000   0.00475   0.00479   2.81607
    A2        2.72768  -0.01695   0.00000  -0.00781  -0.00784   2.71984
    A3        2.54568  -0.01914   0.00000  -0.00924  -0.00922   2.53645
    A4        0.84224   0.03243   0.00000   0.01559   0.01563   0.85787
    A5        2.40286   0.03382   0.00000   0.00458   0.00452   2.40738
    A6        1.94567   0.05872   0.00000   0.00652   0.00648   1.95214
    A7        2.04592   0.01933   0.00000   0.01127   0.01127   2.05719
    A8        1.21793   0.03385   0.00000   0.01223   0.01223   1.23016
    A9        2.18823   0.02235   0.00000   0.00418   0.00417   2.19239
   A10        1.33914   0.02370   0.00000   0.01044   0.01049   1.34963
   A11        2.82525  -0.05103   0.00000  -0.00829  -0.00826   2.81699
   A12        1.57989   0.06361   0.00000   0.01329   0.01327   1.59317
   A13        2.63622  -0.03912   0.00000  -0.01576  -0.01575   2.62047
   A14        1.93300  -0.01922   0.00000  -0.00153  -0.00150   1.93150
   A15        1.42258   0.06195   0.00000   0.00419   0.00418   1.42675
   A16        1.64021  -0.03987   0.00000  -0.01181  -0.01178   1.62843
   A17        2.09596   0.10603   0.00000   0.01151   0.01147   2.10743
   A18        1.23834  -0.09389   0.00000  -0.00848  -0.00844   1.22990
   A19        1.45027  -0.06994   0.00000  -0.01131  -0.01127   1.43900
   A20        1.86828   0.07174   0.00000   0.01260   0.01254   1.88082
   A21        2.81061  -0.00845   0.00000  -0.00392  -0.00390   2.80671
   A22        1.55199   0.01689   0.00000   0.01136   0.01143   1.56343
   A23        1.81070   0.01903   0.00000   0.00070   0.00071   1.81140
   A24        2.22149  -0.01875   0.00000  -0.00937  -0.00944   2.21205
   A25        1.70118   0.04247   0.00000   0.02051   0.02047   1.72165
   A26        2.18967  -0.01118   0.00000  -0.00564  -0.00562   2.18405
   A27        2.36762  -0.02877   0.00000  -0.01371  -0.01371   2.35391
   A28        1.98543   0.07116   0.00000   0.03087   0.03086   2.01629
   A29        2.04459  -0.04335   0.00000  -0.01808  -0.01809   2.02650
   A30        2.22527  -0.02993   0.00000  -0.01381  -0.01379   2.21147
   A31        2.11153  -0.02764   0.00000  -0.01202  -0.01204   2.09949
   A32        2.16323  -0.00040   0.00000  -0.00052  -0.00054   2.16269
   A33        2.00270   0.03035   0.00000   0.01379   0.01377   2.01647
   A34        2.20178  -0.01152   0.00000  -0.00503  -0.00502   2.19676
   A35        1.81483  -0.11168   0.00000  -0.05210  -0.05213   1.76270
   A36        2.23128   0.12834   0.00000   0.05977   0.05979   2.29107
   A37        1.63903   0.12723   0.00000   0.05858   0.05845   1.69749
   A38        2.36279   0.12835   0.00000   0.05271   0.05281   2.41560
   A39        2.20912  -0.07633   0.00000  -0.03318  -0.03323   2.17589
   A40        2.42588  -0.04563   0.00000  -0.02295  -0.02292   2.40296
   A41        1.63647  -0.03837   0.00000  -0.01313  -0.01317   1.62330
   A42        2.10203   0.12243   0.00000   0.05744   0.05739   2.15942
   A43        1.83041   0.01785   0.00000   0.00996   0.00983   1.84023
   A44        1.73059  -0.04305   0.00000  -0.01903  -0.01912   1.71147
   A45        2.02666  -0.01464   0.00000  -0.00680  -0.00680   2.01986
   A46        2.32131   0.03931   0.00000   0.01424   0.01434   2.33565
   A47        1.86451   0.03939   0.00000   0.01983   0.01972   1.88423
   A48        1.23014   0.03438   0.00000   0.01600   0.01593   1.24607
   A49        1.35592   0.01240   0.00000   0.00904   0.00900   1.36492
   A50        1.49756  -0.01778   0.00000   0.00463   0.00458   1.50214
   A51        1.48311   0.02873   0.00000   0.01567   0.01572   1.49883
   A52        1.56235   0.01925   0.00000   0.00796   0.00787   1.57021
   A53        1.42266   0.02425   0.00000   0.01219   0.01216   1.43482
   A54        1.59601   0.38547   0.00000   0.16352   0.16352   1.75953
    D1        1.33909   0.02621   0.00000   0.00558   0.00556   1.34464
    D2        2.42376  -0.02352   0.00000  -0.00426  -0.00421   2.41954
    D3       -1.20859   0.03092   0.00000   0.00826   0.00823  -1.20036
    D4       -0.12392  -0.01882   0.00000  -0.00158  -0.00154  -0.12546
    D5        3.08426   0.01843   0.00000   0.00145   0.00140   3.08566
    D6       -2.11426  -0.03131   0.00000  -0.00839  -0.00837  -2.12262
    D7        3.02784  -0.00812   0.00000   0.00239   0.00234   3.03018
    D8       -0.47605  -0.01573   0.00000  -0.00528  -0.00522  -0.48127
    D9        0.58084   0.02154   0.00000   0.00458   0.00455   0.58539
   D10       -2.39674   0.01099   0.00000   0.00057   0.00055  -2.39619
   D11        1.04168   0.02679   0.00000   0.00491   0.00489   1.04657
   D12       -2.72319   0.04890   0.00000   0.00350   0.00349  -2.71970
   D13       -1.20489  -0.03450   0.00000  -0.00192  -0.00193  -1.20683
   D14        1.21149   0.00318   0.00000  -0.00238  -0.00238   1.20912
   D15       -1.34882  -0.02306   0.00000  -0.00349  -0.00350  -1.35232
   D16        1.72765  -0.00000   0.00000   0.00198   0.00192   1.72957
   D17       -3.13271   0.02278   0.00000   0.01359   0.01360  -3.11911
   D18        1.88929   0.00260   0.00000  -0.00086  -0.00090   1.88840
   D19       -2.97107   0.02539   0.00000   0.01075   0.01078  -2.96028
   D20        0.90089   0.00448   0.00000  -0.00033  -0.00032   0.90057
   D21       -1.95430   0.01794   0.00000   0.00432   0.00436  -1.94995
   D22       -1.89017   0.01212   0.00000   0.01006   0.01004  -1.88013
   D23        1.53783   0.02558   0.00000   0.01472   0.01471   1.55254
   D24       -0.30095  -0.00485   0.00000  -0.00089  -0.00088  -0.30183
   D25        3.12704   0.00861   0.00000   0.00377   0.00379   3.13083
   D26        1.18266  -0.03246   0.00000  -0.00694  -0.00692   1.17575
   D27        0.27089   0.01894   0.00000   0.00457   0.00458   0.27547
   D28        2.19792   0.00598   0.00000   0.00468   0.00470   2.20261
   D29       -1.86814   0.01140   0.00000   0.00730   0.00728  -1.86086
   D30        0.37027   0.00006   0.00000   0.00101   0.00099   0.37125
   D31       -1.90445   0.01876   0.00000   0.00835   0.00836  -1.89608
   D32        0.33395   0.00742   0.00000   0.00206   0.00207   0.33603
   D33        0.25603   0.02010   0.00000   0.00755   0.00755   0.26358
   D34        2.49444   0.00876   0.00000   0.00126   0.00126   2.49570
   D35        2.91364   0.00498   0.00000  -0.00198  -0.00205   2.91159
   D36       -0.43382   0.01247   0.00000   0.00141   0.00139  -0.43243
   D37        1.05450  -0.02871   0.00000  -0.00989  -0.00989   1.04461
   D38       -2.29296  -0.02122   0.00000  -0.00650  -0.00645  -2.29941
   D39       -1.46752  -0.01317   0.00000  -0.00182  -0.00186  -1.46938
   D40       -0.37174  -0.01067   0.00000  -0.00347  -0.00347  -0.37521
   D41        0.26588   0.01743   0.00000   0.01014   0.01011   0.27599
   D42        1.36167   0.01993   0.00000   0.00849   0.00849   1.37016
   D43        2.72417   0.01428   0.00000   0.00602   0.00604   2.73021
   D44       -0.64983   0.00168   0.00000   0.00002  -0.00003  -0.64986
   D45       -0.17690   0.00020   0.00000  -0.00041  -0.00036  -0.17727
   D46        2.73228  -0.01239   0.00000  -0.00642  -0.00643   2.72585
   D47       -2.88472  -0.03215   0.00000  -0.01678  -0.01678  -2.90150
   D48        0.13595  -0.00589   0.00000  -0.00267  -0.00272   0.13323
   D49        0.51817  -0.01811   0.00000  -0.01035  -0.01030   0.50786
   D50       -2.74435   0.00814   0.00000   0.00376   0.00376  -2.74059
   D51       -0.62825   0.01299   0.00000   0.00482   0.00478  -0.62347
   D52       -2.20360  -0.00010   0.00000   0.00017   0.00005  -2.20354
   D53        2.24440   0.01329   0.00000   0.00449   0.00459   2.24899
   D54        0.66906   0.00020   0.00000  -0.00016  -0.00014   0.66892
   D55       -2.96226  -0.00152   0.00000   0.00010   0.00019  -2.96206
   D56       -0.08631   0.03632   0.00000   0.01865   0.01860  -0.06771
   D57        0.28975  -0.02389   0.00000  -0.01202  -0.01197   0.27778
   D58       -3.11749   0.01394   0.00000   0.00653   0.00643  -3.11105
   D59        2.74788   0.02799   0.00000   0.01379   0.01395   2.76183
   D60        2.35064   0.02094   0.00000   0.01252   0.01246   2.36310
   D61       -0.27157  -0.00678   0.00000  -0.00214  -0.00202  -0.27358
   D62       -0.06524   0.02406   0.00000   0.01081   0.01081  -0.05443
   D63       -0.46248   0.01700   0.00000   0.00953   0.00932  -0.45317
   D64       -3.08469  -0.01072   0.00000  -0.00513  -0.00516  -3.08985
   D65       -1.93986   0.19281   0.00000   0.10729   0.10744  -1.83243
   D66        0.92996   0.20144   0.00000   0.11232   0.11218   1.04214
   D67       -0.38762  -0.00230   0.00000  -0.00212  -0.00234  -0.38996
   D68        2.34302  -0.00475   0.00000  -0.00130  -0.00116   2.34187
   D69        0.03387   0.06857   0.00000   0.03765   0.03769   0.07156
   D70        1.97826   0.04407   0.00000   0.02347   0.02354   2.00180
   D71       -1.94439   0.02450   0.00000   0.01419   0.01415  -1.93024
[...]
    D4       -0.05095   0.00383   0.03914   0.00000   0.03885  -0.01210
    D5        3.12885  -0.00109  -0.00411   0.00000  -0.00360   3.12525
    D6       -2.37516  -0.00280  -0.02930   0.00000  -0.02952  -2.40468
    D7       -2.99564   0.01556   0.05618   0.00000   0.05651  -2.93912
    D8       -0.54954  -0.00027  -0.02172   0.00000  -0.02412  -0.57365
    D9        0.81672   0.00462   0.04534   0.00000   0.04549   0.86221
   D10       -2.61814  -0.00744  -0.05998   0.00000  -0.05712  -2.67526
   D11        1.16863   0.00039   0.02432   0.00000   0.02475   1.19339
   D12       -2.81100  -0.00693  -0.04025   0.00000  -0.04009  -2.85109
   D13       -0.92021   0.01286   0.04972   0.00000   0.05078  -0.86943
   D14        1.09776   0.00692   0.01001   0.00000   0.01185   1.10961
   D15       -1.60644  -0.00431  -0.05536   0.00000  -0.05231  -1.65875
   D16        1.61261  -0.00936   0.03847   0.00000   0.03983   1.65244
   D17       -2.73685   0.01361  -0.02220   0.00000  -0.02230  -2.75915
   D18        1.76934  -0.00601   0.04102   0.00000   0.04250   1.81183
   D19       -2.58012   0.01696  -0.01965   0.00000  -0.01963  -2.59975
   D20        0.54749  -0.01174  -0.09808   0.00000  -0.09891   0.44858
   D21       -2.00173  -0.00418  -0.02262   0.00000  -0.02379  -2.02552
   D22       -1.56530  -0.00046  -0.00192   0.00000  -0.00069  -1.56599
   D23        2.16867   0.00710   0.07354   0.00000   0.07444   2.24310
   D24       -0.36750  -0.00148  -0.01943   0.00000  -0.01956  -0.38706
   D25       -2.91672   0.00607   0.05603   0.00000   0.05557  -2.86116
   D26        1.03543  -0.00027  -0.00698   0.00000  -0.00882   1.02661
   D27        0.46323   0.00133   0.02960   0.00000   0.03105   0.49428
   D28        2.45343   0.00219   0.05207   0.00000   0.05113   2.50455
   D29       -1.21348   0.01110   0.13780   0.00000   0.13669  -1.07679
   D30        0.87265   0.00823   0.11456   0.00000   0.11249   0.98515
   D31       -1.43636   0.00692   0.09285   0.00000   0.09759  -1.33878
   D32        0.64977   0.00404   0.06961   0.00000   0.07339   0.72316
   D33        0.72399   0.01355   0.10951   0.00000   0.10920   0.83319
   D34        2.81012   0.01067   0.08627   0.00000   0.08500   2.89512
   D35        3.08945  -0.00785   0.03074   0.00000   0.02736   3.11681
   D36       -0.46460  -0.00611  -0.01098   0.00000  -0.01311  -0.47770
   D37        0.99235  -0.00448   0.02241   0.00000   0.02049   1.01283
   D38       -2.56170  -0.00274  -0.01932   0.00000  -0.01998  -2.58168
   D39       -1.45767   0.00303   0.01362   0.00000   0.01598  -1.44168
   D40       -0.54606   0.00021  -0.02448   0.00000  -0.02445  -0.57051
   D41        0.63912   0.00206   0.03091   0.00000   0.03142   0.67054
   D42        1.55073  -0.00076  -0.00719   0.00000  -0.00902   1.54172
   D43        2.46393  -0.00018  -0.02917   0.00000  -0.02940   2.43453
   D44       -0.91271   0.00202  -0.03068   0.00000  -0.03154  -0.94425
   D45       -0.24291  -0.00154   0.01525   0.00000   0.01419  -0.22872
   D46        2.66364   0.00065   0.01374   0.00000   0.01205   2.67568
   D47       -3.12618  -0.04805  -0.02933   0.00000  -0.02964   3.12736
   D48       -0.00243  -0.02254  -0.03243   0.00000  -0.03275  -0.03518
   D49        0.29001  -0.05563  -0.02713   0.00000  -0.02681   0.26321
   D50       -2.86941  -0.03012  -0.03023   0.00000  -0.02992  -2.89933
   D51       -0.31791   0.00023   0.04078   0.00000   0.04262  -0.27528
   D52       -2.03927  -0.04007   0.03705   0.00000   0.03577  -2.00349
   D53        2.60374   0.00642   0.03207   0.00000   0.03336   2.63709
   D54        0.88238  -0.03387   0.02834   0.00000   0.02650   0.90888
   D55       -2.91832   0.00705  -0.02289   0.00000  -0.02372  -2.94203
   D56       -0.03526  -0.00611   0.01799   0.00000   0.01883  -0.01642
   D57        0.24086  -0.01809  -0.02001   0.00000  -0.02086   0.22000
   D58        3.12392  -0.03125   0.02087   0.00000   0.02169  -3.13758
   D59        2.78004  -0.01257   0.03533   0.00000   0.03527   2.81531
   D60        2.50871  -0.00695   0.07107   0.00000   0.07105   2.57976
   D61       -0.15162  -0.01124   0.04396   0.00000   0.04386  -0.10776
   D62       -0.07604   0.01129  -0.01625   0.00000  -0.01619  -0.09223
   D63       -0.34738   0.01691   0.01949   0.00000   0.01960  -0.32778
   D64       -3.00771   0.01262  -0.00762   0.00000  -0.00760  -3.01531
   D65       -1.64641   0.05189   0.01258   0.00000   0.01422  -1.63219
   D66        1.26442   0.04135   0.06819   0.00000   0.06655   1.33096
   D67       -0.13806   0.00381   0.04905   0.00000   0.04914  -0.08892
   D68        2.57147   0.00837   0.07800   0.00000   0.07791   2.64938
   D69        0.09590   0.00789   0.04210   0.00000   0.04295   0.13885
   D70        2.28059   0.00509   0.04514   0.00000   0.04682   2.32742
   D71       -2.18470   0.00280  -0.00303   0.00000  -0.00387  -2.18857
   D72        2.76348  -0.00341  -0.03276   0.00000  -0.03311   2.73036
   D73        2.48315   0.00244   0.01825   0.00000   0.01860   2.50175
   D74       -0.67844   0.00051   0.08589   0.00000   0.08460  -0.59384
         Item               Value     Threshold  Converged?
 Maximum Force            0.060477     0.000450     NO 
 RMS     Force            0.015770     0.000300     NO 
 Maximum Displacement     0.439517     0.001800     NO 
 RMS     Displacement     0.092853     0.001200     NO 
 Predicted change in Energy=-2.800962D-02
 GradGradGradGradGradGradGradGradGradGradGradGradGradGradGradGradGradGrad

                          Input orientation:                          
 ---------------------------------------------------------------------
 Center     Atomic      Atomic             Coordinates (Angstroms)
 Number     Number       Type             X           Y           Z
 ---------------------------------------------------------------------
      1          6           0        2.251995    0.258232    0.887200
      2         16           0        4.462923    1.847158    1.702254
      3          6           0        7.219890    3.293267    1.647219
      4          6           0        6.009257    2.642480    1.009381
      5          6           0        5.395581    3.890254    0.322485
      6          6           0        6.672655    4.398000    0.313921
      7          6           0        7.062973    4.888146    1.649443
      8          6           0        8.402202    5.431915    1.825684
      9          6           0        8.756521    6.515309    2.547381
     10          6           0       10.125200    6.926088    2.645003
     11          6           0       10.763177    7.810300    3.423892
     12          6           0       12.190774    7.700352    3.554637
     13          6           0       11.666273    4.541592    2.780882
     14          6           0       10.341021    3.926697    3.255334
     15          7           0       11.489237    4.106944    3.999834
     16         16           0       14.651887    8.018109    5.238854
     17         16           0       12.721220    8.747067    4.751557
     18          1           0        1.412388   -0.534211    0.572939
     19          1           0        1.701958    0.419122    0.007641
     20          1           0        1.663669    0.078153    1.717933
     21          1           0        6.294638    1.983440    0.277433
     22          1           0        4.412311    4.194037    0.687895
     23          1           0        7.414611    3.597066    0.037590
     24          1           0        6.241639    5.218204    2.281347
     25          1           0        9.104581    4.659112    1.466815
     26          1           0        8.009711    7.108368    3.052556
     27          1           0       10.726194    6.212202    2.071655
     28          1           0       10.145100    8.430709    4.078204
     29          1           0       12.515082    5.005963    2.327493
     30          1           0       15.132840    9.162647    5.419128
 ---------------------------------------------------------------------
                    Distance matrix (angstroms):
                    1          2          3          4          5
     1  C    0.000000
     2  S    2.842042   0.000000
     3  C    5.871035   3.113700   0.000000
     4  C    4.451583   1.871833   1.515253   0.000000
     5  C    4.836592   2.635878   2.332256   1.550924   0.000000
     6  C    6.083467   3.649271   1.815925   2.001402   1.374336
     7  C    6.720315   4.001332   1.602581   2.561837   2.353041
     8  C    8.091527   5.327630   2.450210   3.764768   3.698121
     9  C    9.176931   6.398504   3.681450   4.991162   4.810093
    10  C   10.466019   7.664574   4.757498   6.161618   6.081092
    11  C   11.657991   8.843998   6.009578   7.425360   7.334615
    12  C   12.699595   9.869695   6.911608   8.382812   8.434353
    13  C   10.514839   7.766058   4.755400   6.224682   6.766797
    14  C    9.192282   6.425619   3.567734   5.045562   5.749810
    15  N   10.479872   7.730110   4.942083   6.412304   7.120569
    16  S   15.261386  12.425907   9.510970  11.021836  11.264505
    17  S   14.021350  11.185100   8.345387   9.814290   9.842271
    18  H    1.196522   4.031381   7.037809   5.604736   5.958561
    19  H    1.049786   3.540329   6.434011   4.949710   5.078458
    20  H    1.033766   3.311411   6.419778   5.095288   5.514213
    21  H    4.437468   2.324622   2.109041   1.025439   2.108618
    22  H    4.494136   2.557211   3.100676   2.249649   1.092075
    23  H    6.206630   3.813889   1.649580   1.957200   2.060002
    24  H    6.516305   3.855273   2.250440   2.882057   2.513246
    25  H    8.164658   5.432082   2.334553   3.722510   3.956933
    26  H    9.206760   6.487168   4.141713   5.302879   4.964194
    27  H   10.424239   7.643209   4.581975   6.010061   6.071778
    28  H   11.801398   9.015288   6.392171   7.747674   7.568295
    29  H   11.399402   8.672153   5.606707   7.046221   7.480118
    30  H   16.301631  13.460262  10.549488  12.049822  12.189673
                    6          7          8          9         10
     6  C    0.000000
     7  C    1.475198   0.000000
     8  C    2.519075   1.456118   0.000000
     9  C    3.716697   2.514370   1.349122   0.000000
    10  C    4.872909   3.810719   2.423336   1.432325   0.000000
    11  C    6.168312   5.037773   3.712840   2.544001   1.339967
    12  C    7.201208   6.150822   4.742189   3.770012   2.386108
    13  C    5.571601   4.752960   3.515571   3.523739   2.842391
    14  C    4.725563   3.774767   2.840528   3.116529   3.068457
    15  N    6.072078   5.072123   4.001532   3.921426   3.412292
    16  S   10.051283   8.959473   7.576060   6.652652   5.330241
    17  S    8.671339   7.518653   6.181009   5.055490   3.806948
    18  H    7.215554   7.905058   9.274780  10.369689  11.656012
    19  H    6.374411   7.169949   8.563098   9.663365  10.965733
    20  H    6.761825   7.231404   8.607102   9.614234  10.924797
    21  H    2.444244   3.303039   4.327920   5.634835   6.686431
    22  H    2.300133   2.903854   4.329681   5.264802   6.628082
    23  H    1.126212   2.094900   2.745776   4.076262   5.022776
    24  H    2.174690   1.087580   2.218409   2.842162   4.258071
    25  H    2.703998   2.062516   1.104241   2.175830   2.751176
    26  H    4.078472   2.791850   2.114180   1.079188   2.162087
    27  H    4.776205   3.917981   2.463796   2.048854   1.095242
    28  H    6.518469   5.286600   4.135735   2.817859   2.078063
    29  H    6.209512   5.495373   4.165217   4.056262   3.082082
    30  H   10.969947   9.879506   8.493096   7.477485   6.146090
                   11         12         13         14         15
    11  C    0.000000
    12  C    1.437782   0.000000
    13  C    3.451593   3.294171   0.000000
    14  C    3.910115   4.213270   1.536064   0.000000
    15  N    3.817554   3.688216   1.306179   1.380279   0.000000
    16  S    4.296433   2.999106   5.200162   6.265586   5.180226
    17  S    2.544437   1.676187   4.762614   5.580323   4.859384
    18  H   12.852862  13.887842  11.652509  10.335155  11.611495
    19  H   12.182199  13.251896  11.134325   9.873399  11.195020
    20  H   12.062231  13.125980  11.004737   9.616201  10.861860
    21  H    7.988763   8.842374   6.454910   5.386776   6.734196
    22  H    7.803623   9.000941   7.557867   6.466283   7.814052
    23  H    6.358559   7.212372   5.147272   4.361927   5.706306
    24  H    5.335605   6.570734   5.489444   4.406992   5.632529
    25  H    4.063382   4.809649   2.881466   2.294344   3.522451
    26  H    2.865689   4.252507   4.475778   3.949577   4.691799
    27  H    2.093759   2.561019   2.043940   2.602497   2.955033
    28  H    1.093184   2.234352   4.372898   4.582753   4.528553
    29  H    3.483614   2.978387   1.068494   2.598508   2.158082
    30  H    4.990368   3.777617   6.350715   7.420156   6.391430
                   16         17         18         19         20
    16  S    0.000000
    17  S    2.120452   0.000000
    18  H   16.437679  15.214883   0.000000
    19  H   15.900027  14.604230   1.145538   0.000000
    20  H   15.624775  14.374365   1.322551   1.744369   0.000000
    21  H   11.440129  10.347241   5.501115   4.859278   5.210665
    22  H   11.839918  10.309287   5.600812   4.696674   5.055345
    23  H    9.948715   8.769498   7.306212   6.537173   6.948355
    24  H    9.344442   7.780732   7.702636   6.986389   6.906183
    25  H    7.502249   6.370320   9.324133   8.654798   8.741591
    26  H    7.051669   5.269749  10.396259   9.685312   9.564381
    27  H    5.357566   4.193750  11.597726  10.920475  10.949020
    28  H    4.672096   2.681395  12.996805  12.330517  12.135515
    29  H    4.702657   4.462560  12.531633  11.972656  11.933484
    30  H    1.254505   2.536586  17.486149  16.915142  16.662696
                   21         22         23         24         25
    21  H    0.000000
    22  H    2.932298   0.000000
    23  H    1.978801   3.129389   0.000000
    24  H    3.805546   2.633333   3.006393   0.000000
    25  H    4.058279   4.779164   2.454918   3.028612   0.000000
    26  H    6.075168   5.198676   4.666198   2.700660   3.116436
    27  H    6.382817   6.771477   4.684329   4.598178   2.325414
    28  H    8.416602   7.893570   6.866311   5.365248   4.703932
    29  H    7.213343   8.306769   5.765714   6.277203   3.534486
    30  H   12.493673  12.727977  10.931958  10.220458   8.499560
                   26         27         28         29         30
    26  H    0.000000
    27  H    3.023997   0.000000
    28  H    2.713010   3.047242   0.000000
    29  H    5.024360   2.172691   4.517819   0.000000
    30  H    7.782011   6.271302   5.216451   5.804213   0.000000
 Stoichiometry    C13H13NS3
 Framework group  C1[X(C13H13NS3)]
 Deg. of freedom    84
 Full point group                 C1      NOp   1
 Largest Abelian subgroup         C1      NOp   1
 Largest concise Abelian subgroup C1      NOp   1
                         Standard orientation:                         
 ---------------------------------------------------------------------
 Center     Atomic      Atomic             Coordinates (Angstroms)
 Number     Number       Type             X           Y           Z
 ---------------------------------------------------------------------
      1          6           0        8.551872   -0.578229   -0.780933
      2         16           0        5.712670   -0.460354   -0.733598
      3          6           0        2.790598   -0.450983    0.341828
      4          6           0        4.290114   -0.273862    0.468614
      5          6           0        4.334539    1.256596    0.715779
      6          6           0        3.060950    1.118901    1.213583
      7          6           0        2.074874    0.966708    0.126981
      8          6           0        0.675130    0.777435    0.480777
      9          6           0       -0.401651    1.323261   -0.121509
     10          6           0       -1.729994    1.031528    0.327881
     11          6           0       -2.944119    1.265658   -0.188448
     12          6           0       -4.055490    0.497675    0.303765
     13          6           0       -1.736069   -1.711555    1.072629
     14          6           0       -0.514479   -1.779896    0.143897
     15          7           0       -1.750659   -2.358346   -0.062075
     16         16           0       -6.696862   -0.826169   -0.211236
     17         16           0       -5.401528    0.794277   -0.650077
     18          1           0        9.731009   -0.781423   -0.777219
     19          1           0        9.178347    0.061584   -0.233011
     20          1           0        8.850395   -0.712290   -1.761537
     21          1           0        4.641372   -0.743167    1.309979
     22          1           0        4.836869    1.844491   -0.055371
     23          1           0        2.982849    0.192122    1.848669
     24          1           0        2.351652    1.426279   -0.819073
     25          1           0        0.639448   -0.083653    1.171140
     26          1           0       -0.282288    2.009198   -0.946062
     27          1           0       -1.649138    0.328499    1.163804
     28          1           0       -2.987748    1.873479   -1.096028
     29          1           0       -2.508597   -1.564205    1.795932
     30          1           0       -7.735696   -0.125986   -0.277194
 ---------------------------------------------------------------------
 Rotational constants (GHZ):           1.1535122           0.0853848           0.0822161
 Standard basis: 6-31G(2df,p) (6D, 7F)
 There are   604 symmetry adapted cartesian basis functions of A   symmetry.
 There are   553 symmetry adapted basis functions of A   symmetry.
   553 basis functions,   911 primitive gaussians,   604 cartesian basis functions
    73 alpha electrons       73 beta electrons
       nuclear repulsion energy      1272.5940484970 Hartrees.
 NAtoms=   30 NActive=   30 NUniq=   30 SFac= 1.00D+00 NAtFMM=   60 NAOKFM=F Big=F
 Integral buffers will be    131072 words long.
 Raffenetti 2 integral format.
 Two-electron integral symmetry is turned on.
 One-electron integrals computed using PRISM.
 PrsmSu:  requested number of processors reduced to:  12 ShMem   1 Linda.
 NBasis=   553 RedAO= T EigKep=  3.47D-04  NBF=   553
 NBsUse=   553 1.00D-06 EigRej= -1.00D+00 NBFU=   553
 Initial guess from the checkpoint file:  "CSC1dCCdCCdCCdCCdC2CdC1NqSrS2.chk"
 B after Tr=     0.000000   -0.000000   -0.000000
         Rot=    0.999909   -0.013477    0.000276   -0.000062 Ang=  -1.54 deg.
 ExpMin= 1.17D-01 ExpMax= 2.19D+04 ExpMxC= 3.30D+03 IAcc=2 IRadAn=         4 AccDes= 0.00D+00
 Harris functional with IExCor=  402 and IRadAn=       4 diagonalized for initial guess.
 HarFok:  IExCor=  402 AccDes= 0.00D+00 IRadAn=         4 IDoV= 1 UseB2=F ITyADJ=14
 ICtDFT=  3500011 ScaDFX=  1.000000  1.000000  1.000000  1.000000
 FoFCou: FMM=F IPFlag=           0 FMFlag=      100000 FMFlg1=           0
         NFxFlg=           0 DoJE=T BraDBF=F KetDBF=T FulRan=T
         wScrn=  0.000000 ICntrl=       500 IOpCl=  0 I1Cent=   200000004 NGrid=           0
         NMat0=    1 NMatS0=      1 NMatT0=    0 NMatD0=    1 NMtDS0=    0 NMtDT0=    0
 Petite list used in FoFCou.
 Requested convergence on RMS density matrix=1.00D-08 within 128 cycles.
 Requested convergence on MAX density matrix=1.00D-06.
 Requested convergence on             energy=1.00D-06.
 No special actions if energy rises.
 Integral accuracy reduced to 1.0D-05 until final iterations.
 Initial convergence to 1.0D-05 achieved.  Increase integral accuracy.
 EnCoef did     5 forward-backward iterations
 Restarting incremental Fock formation.
 Restarting incremental Fock formation.
 Restarting incremental Fock formation.
slurmstepd: error: *** JOB 27446595 ON lewis4-r630-hpc4-node241 CANCELLED AT 2023-05-16T20:50:12 DUE TO TIME LIMIT ***
