### Starting Gaussian ###
 Entering Gaussian System, Link 0=g16
 Initial command:
 /cluster/software/gaussian/gaussian-16-A.03/avx2/g16/l1.exe "/local/scratch/linjian/Gau-15759.inp" -scrdir="/local/scratch/linjian/"
 Entering Link 1 = /cluster/software/gaussian/gaussian-16-A.03/avx2/g16/l1.exe PID=     15760.
  
 Copyright (c) 1988,1990,1992,1993,1995,1998,2003,2009,2016,
            Gaussian, Inc.  All Rights Reserved.
  
 This is part of the Gaussian(R) 16 program.  It is based on
 the Gaussian(R) 09 system (copyright 2009, Gaussian, Inc.),
 the Gaussian(R) 03 system (copyright 2003, Gaussian, Inc.),
 the Gaussian(R) 98 system (copyright 1998, Gaussian, Inc.),
 the Gaussian(R) 94 system (copyright 1995, Gaussian, Inc.),
 the Gaussian 92(TM) system (copyright 1992, Gaussian, Inc.),
 the Gaussian 90(TM) system (copyright 1990, Gaussian, Inc.),
 the Gaussian 88(TM) system (copyright 1988, Gaussian, Inc.),
 the Gaussian 86(TM) system (copyright 1986, Carnegie Mellon
 University), and the Gaussian 82(TM) system (copyright 1983,
 Carnegie Mellon University). Gaussian is a federally registered
 trademark of Gaussian, Inc.
  
 This software contains proprietary and confidential information,
 including trade secrets, belonging to Gaussian, Inc.
  
 This software is provided under written license and may be
 used, copied, transmitted, or stored only in accord with that
 written license.
  
 The following legend is applicable only to US Government
 contracts under FAR:
  
                    RESTRICTED RIGHTS LEGEND
  
 Use, reproduction and disclosure by the US Government is
 subject to restrictions as set forth in subparagraphs (a)
 and (c) of the Commercial Computer Software - Restricted
 Rights clause in FAR 52.227-19.
  
 Gaussian, Inc.
 340 Quinnipiac St., Bldg. 40, Wallingford CT 06492
  
  
 ---------------------------------------------------------------
 Warning -- This program may not be used in any manner that
 competes with the business of Gaussian, Inc. or will provide
 assistance to any competitor of Gaussian, Inc.  The licensee
 of this program is prohibited from giving any competitor of
 Gaussian, Inc. access to this program.  By using this program,
 the user acknowledges that Gaussian, Inc. is engaged in the
 business of creating and licensing software in the field of
 computational chemistry and represents and warrants to the
 licensee that it is not a competitor of Gaussian, Inc. and that
 it will not use this program in any manner prohibited above.
 ---------------------------------------------------------------
  

 Cite this work as:
 Gaussian 16, Revision A.03,
 M. J. Frisch, G. W. Trucks, H. B. Schlegel, G. E. Scuseria, 
 M. A. Robb, J. R. Cheeseman, G. Scalmani, V. Barone, 
 G. A. Petersson, H. Nakatsuji, X. Li, M. Caricato, A. V. Marenich, 
 J. Bloino, B. G. Janesko, R. Gomperts, B. Mennucci, H. P. Hratchian, 
 J. V. Ortiz, A. F. Izmaylov, J. L. Sonnenberg, D. Williams-Young, 
 F. Ding, F. Lipparini, F. Egidi, J. Goings, B. Peng, A. Petrone, 
 T. Henderson, D. Ranasinghe, V. G. Zakrzewski, J. Gao, N. Rega, 
 G. Zheng, W. Liang, M. Hada, M. Ehara, K. Toyota, R. Fukuda, 
 J. Hasegawa, M. Ishida, T. Nakajima, Y. Honda, O. Kitao, H. Nakai, 
 T. Vreven, K. Throssell, J. A. Montgomery, Jr., J. E. Peralta, 
 F. Ogliaro, M. J. Bearpark, J. J. Heyd, E. N. Brothers, K. N. Kudin, 
 V. N. Staroverov, T. A. Keith, R. Kobayashi, J. Normand, 
 K. Raghavachari, A. P. Rendell, J. C. Burant, S. S. Iyengar, 
 J. Tomasi, M. Cossi, J. M. Millam, M. Klene, C. Adamo, R. Cammi, 
 J. W. Ochterski, R. L. Martin, K. Morokuma, O. Farkas, 
 J. B. Foresman, and D. J. Fox, Gaussian, Inc., Wallingford CT, 2016.
 
 ******************************************
 Gaussian 16:  ES64L-G16RevA.03 25-Dec-2016
                16-May-2023 
 ******************************************
 %chk=CSC1dCCdCCdCCdCqCSSSr[SH]1C.chk
 %NProcShared=20
 Will use up to   20 processors via shared memory.
 -----------------------------
 # opt freq b3lyp/6-31g(2df,p)
 -----------------------------
 1/18=20,19=15,26=3,38=1/1,3;
 2/9=110,12=2,17=6,18=5,40=1/2;
 3/5=1,6=6,7=104,11=2,25=1,30=1,71=1,74=-5/1,2,3;
 4//1;
 5/5=2,38=5/2;
 6/7=2,8=2,9=2,10=2,28=1/1;
 7//1,2,3,16;
 1/18=20,19=15,26=3/3(2);
 2/9=110/2;
 99//99;
 2/9=110/2;
 3/5=1,6=6,7=104,11=2,25=1,30=1,71=1,74=-5/1,2,3;
 4/5=5,16=3,69=1/1;
 5/5=2,38=5/2;
 7//1,2,3,16;
 1/18=20,19=15,26=3/3(-5);
 2/9=110/2;
 6/7=2,8=2,9=2,10=2,19=2,28=1/1;
 99/9=1/99;
 -------------------
 Title Card Required
 -------------------
 Symbolic Z-matrix:
 Charge =  0 Multiplicity = 1
 C                     1.16247   0.09639  -0.05162 
 S                     3.01833   0.34965  -0.66413 
 C                     4.03515   1.07641  -2.46915 
 C                     5.09253   0.78537  -1.74507 
 C                     5.94241   1.13744  -2.61568 
 C                     7.14738   1.24364  -2.87659 
 C                     7.32371   1.73441  -4.0828 
 C                     8.44839   1.95337  -4.6197 
 C                     7.94418   2.43059  -5.80016 
 C                     6.62428   2.51293  -6.10205 
 C                     8.69649   2.86468  -6.85788 
 S                     11.18662   2.99714  -7.20014 
 S                     12.78223   3.79778  -9.16445 
 S                     15.26574   3.91087  -9.44304 
 S                     4.45183   2.01702  -4.57614 
 C                     2.36885   1.41876  -3.39303 
 H                     0.8257   -0.31956   0.97217 
 H                     0.69936  -0.61075  -0.73435 
 H                     0.69925   1.0791   -0.04794 
 H                     5.48519   0.41668  -0.84265 
 H                     5.5801    1.46541  -3.43834 
 H                     7.78987   0.96476  -2.1896 
 H                     6.39884   1.92689  -4.55793 
 H                     9.35645   1.74008  -4.09871 
 H                     7.25016   2.88971  -6.9285 
 H                     9.41952   3.9541   -7.29312 
 H                     9.42013   2.38081  -7.93122 
 H                     15.78724   4.42415  -10.7067 
 H                     2.90603   2.01378  -4.77128 
 H                     1.77777   0.96084  -2.17722 
 H                     1.25418   0.6001   -3.45839 
 H                     1.26087   2.10193  -2.84672 
 
 Add virtual bond connecting atoms H26        and C11        Dist= 2.60D+00.
 Add virtual bond connecting atoms H27        and C11        Dist= 2.61D+00.
 Add virtual bond connecting atoms H31        and C16        Dist= 2.62D+00.
 Add virtual bond connecting atoms H32        and C16        Dist= 2.67D+00.
 Add virtual bond connecting atoms C16        and H30        Dist= 2.70D+00.
 Add virtual bond connecting atoms H31        and H30        Dist= 2.70D+00.
 Add virtual bond connecting atoms H32        and H30        Dist= 2.68D+00.
 Add virtual bond connecting atoms H29        and C16        Dist= 3.01D+00.
 Add virtual bond connecting atoms H21        and S15        Dist= 3.20D+00.
 Add virtual bond connecting atoms H26        and S12        Dist= 3.80D+00.
 Add virtual bond connecting atoms H27        and S12        Dist= 3.80D+00.
 Add virtual bond connecting atoms C3         and S2         Dist= 4.15D+00.
 Add virtual bond connecting atoms H30        and S2         Dist= 3.87D+00.
 Add virtual bond connecting atoms S14        and S13        Dist= 4.73D+00.
 Add virtual bond connecting atoms S13        and S12        Dist= 5.02D+00.

 GradGradGradGradGradGradGradGradGradGradGradGradGradGradGradGradGradGrad
 Berny optimization.
 Initialization pass.
                           ----------------------------
                           !    Initial Parameters    !
                           ! (Angstroms and Degrees)  !
 --------------------------                            --------------------------
 ! Name  Definition              Value          Derivative Info.                !
 --------------------------------------------------------------------------------
 ! R1    R(1,2)                  1.9707         estimate D2E/DX2                !
 ! R2    R(1,17)                 1.1552         estimate D2E/DX2                !
 ! R3    R(1,18)                 1.0866         estimate D2E/DX2                !
 ! R4    R(1,19)                 1.0864         estimate D2E/DX2                !
 ! R5    R(2,3)                  2.1955         estimate D2E/DX2                !
 ! R6    R(2,30)                 2.0499         estimate D2E/DX2                !
 ! R7    R(3,4)                  1.3142         estimate D2E/DX2                !
 ! R8    R(4,5)                  1.2666         estimate D2E/DX2                !
 ! R9    R(4,20)                 1.0509         estimate D2E/DX2                !
 ! R10   R(5,6)                  1.2375         estimate D2E/DX2                !
 ! R11   R(5,21)                 0.9569         estimate D2E/DX2                !
 ! R12   R(6,7)                  1.3141         estimate D2E/DX2                !
 ! R13   R(6,22)                 0.9811         estimate D2E/DX2                !
 ! R14   R(7,8)                  1.2653         estimate D2E/DX2                !
 ! R15   R(7,23)                 1.0574         estimate D2E/DX2                !
 ! R16   R(8,9)                  1.3695         estimate D2E/DX2                !
 ! R17   R(8,24)                 1.0684         estimate D2E/DX2                !
 ! R18   R(9,10)                 1.3565         estimate D2E/DX2                !
 ! R19   R(9,11)                 1.3686         estimate D2E/DX2                !
 ! R20   R(10,25)                1.103          estimate D2E/DX2                !
 ! R21   R(11,26)                1.3781         estimate D2E/DX2                !
 ! R22   R(11,27)                1.382          estimate D2E/DX2                !
 ! R23   R(12,13)                2.6543         estimate D2E/DX2                !
 ! R24   R(12,26)                2.0117         estimate D2E/DX2                !
 ! R25   R(12,27)                2.0087         estimate D2E/DX2                !
 ! R26   R(13,14)                2.5016         estimate D2E/DX2                !
 ! R27   R(14,28)                1.4602         estimate D2E/DX2                !
 ! R28   R(15,21)                1.6947         estimate D2E/DX2                !
 ! R29   R(15,29)                1.5581         estimate D2E/DX2                !
 ! R30   R(16,29)                1.5944         estimate D2E/DX2                !
 ! R31   R(16,30)                1.4273         estimate D2E/DX2                !
 ! R32   R(16,31)                1.3845         estimate D2E/DX2                !
 ! R33   R(16,32)                1.4117         estimate D2E/DX2                !
 ! R34   R(30,31)                1.4303         estimate D2E/DX2                !
 ! R35   R(30,32)                1.4204         estimate D2E/DX2                !
 ! A1    A(2,1,17)             126.602          estimate D2E/DX2                !
 ! A2    A(2,1,18)             106.8415         estimate D2E/DX2                !
 ! A3    A(2,1,19)             106.6389         estimate D2E/DX2                !
 ! A4    A(17,1,18)            101.4357         estimate D2E/DX2                !
 ! A5    A(17,1,19)            101.4428         estimate D2E/DX2                !
 ! A6    A(18,1,19)            114.1469         estimate D2E/DX2                !
 ! A7    A(1,2,3)              137.2425         estimate D2E/DX2                !
 ! A8    A(1,2,30)              72.4108         estimate D2E/DX2                !
 ! A9    A(3,2,30)              64.8323         estimate D2E/DX2                !
 ! A10   A(2,3,4)               81.1613         estimate D2E/DX2                !
 ! A11   A(3,4,5)               95.7163         estimate D2E/DX2                !
 ! A12   A(3,4,20)             148.3671         estimate D2E/DX2                !
 ! A13   A(5,4,20)             115.9154         estimate D2E/DX2                !
 ! A14   A(4,5,6)              145.303          estimate D2E/DX2                !
 ! A15   A(4,5,21)             115.6052         estimate D2E/DX2                !
 ! A16   A(6,5,21)              99.0916         estimate D2E/DX2                !
 ! A17   A(5,6,7)              110.8695         estimate D2E/DX2                !
 ! A18   A(5,6,22)             117.7523         estimate D2E/DX2                !
 ! A19   A(7,6,22)             131.3782         estimate D2E/DX2                !
 ! A20   A(6,7,8)              124.9848         estimate D2E/DX2                !
 ! A21   A(6,7,23)             111.2874         estimate D2E/DX2                !
 ! A22   A(8,7,23)             123.7278         estimate D2E/DX2                !
 ! A23   A(7,8,9)               95.6701         estimate D2E/DX2                !
 ! A24   A(7,8,24)             120.9293         estimate D2E/DX2                !
 ! A25   A(9,8,24)             143.4001         estimate D2E/DX2                !
 ! A26   A(8,9,10)             124.8366         estimate D2E/DX2                !
 ! A27   A(8,9,11)             125.0511         estimate D2E/DX2                !
 ! A28   A(10,9,11)            110.0966         estimate D2E/DX2                !
 ! A29   A(9,10,25)             68.6154         estimate D2E/DX2                !
 ! A30   A(9,11,26)            141.5567         estimate D2E/DX2                !
 ! A31   A(9,11,27)            140.9876         estimate D2E/DX2                !
 ! A32   A(26,11,27)            75.9221         estimate D2E/DX2                !
 ! A33   A(13,12,26)           110.5085         estimate D2E/DX2                !
 ! A34   A(13,12,27)           110.6011         estimate D2E/DX2                !
 ! A35   A(26,12,27)            49.9579         estimate D2E/DX2                !
 ! A36   A(12,13,14)           133.8541         estimate D2E/DX2                !
 ! A37   A(13,14,28)           117.8274         estimate D2E/DX2                !
 ! A38   A(21,15,29)           138.069          estimate D2E/DX2                !
 ! A39   A(29,16,31)           116.814          estimate D2E/DX2                !
 ! A40   A(29,16,32)           114.731          estimate D2E/DX2                !
 ! A41   A(31,16,32)            70.8848         estimate D2E/DX2                !
 ! A42   A(5,21,15)            160.2018         estimate D2E/DX2                !
 ! A43   A(11,26,12)            94.0266         estimate D2E/DX2                !
 ! A44   A(11,27,12)            94.036          estimate D2E/DX2                !
 ! A45   A(15,29,16)           103.107          estimate D2E/DX2                !
 ! A46   A(2,30,16)            118.2807         estimate D2E/DX2                !
 ! A47   A(2,30,31)            143.8557         estimate D2E/DX2                !
 ! A48   A(2,30,32)            143.8708         estimate D2E/DX2                !
 ! A49   A(31,30,32)            69.3406         estimate D2E/DX2                !
 ! A50   L(29,16,30,3,-1)      184.7365         estimate D2E/DX2                !
 ! A51   L(29,16,30,3,-2)      177.3862         estimate D2E/DX2                !
 ! D1    D(17,1,2,3)           179.725          estimate D2E/DX2                !
 ! D2    D(17,1,2,30)         -179.9708         estimate D2E/DX2                !
 ! D3    D(18,1,2,3)            60.8523         estimate D2E/DX2                !
 ! D4    D(18,1,2,30)           61.1564         estimate D2E/DX2                !
 ! D5    D(19,1,2,3)           -61.597          estimate D2E/DX2                !
 ! D6    D(19,1,2,30)          -61.2928         estimate D2E/DX2                !
 ! D7    D(1,2,3,4)           -179.7565         estimate D2E/DX2                !
 ! D8    D(30,2,3,4)           179.9232         estimate D2E/DX2                !
 ! D9    D(1,2,30,16)         -178.4318         estimate D2E/DX2                !
 ! D10   D(1,2,30,31)         -104.9744         estimate D2E/DX2                !
 ! D11   D(1,2,30,32)          105.5962         estimate D2E/DX2                !
 ! D12   D(3,2,30,16)            1.34           estimate D2E/DX2                !
 ! D13   D(3,2,30,31)           74.7975         estimate D2E/DX2                !
 ! D14   D(3,2,30,32)          -74.632          estimate D2E/DX2                !
 ! D15   D(2,3,4,5)           -179.9405         estimate D2E/DX2                !
 ! D16   D(2,3,4,20)             0.5451         estimate D2E/DX2                !
 ! D17   D(3,4,5,6)           -179.9799         estimate D2E/DX2                !
 ! D18   D(3,4,5,21)            -0.2178         estimate D2E/DX2                !
 ! D19   D(20,4,5,6)            -0.2631         estimate D2E/DX2                !
 ! D20   D(20,4,5,21)          179.499          estimate D2E/DX2                !
 ! D21   D(4,5,6,7)           -179.8394         estimate D2E/DX2                !
 ! D22   D(4,5,6,22)             0.1235         estimate D2E/DX2                !
 ! D23   D(21,5,6,7)             0.3779         estimate D2E/DX2                !
 ! D24   D(21,5,6,22)         -179.6593         estimate D2E/DX2                !
 ! D25   D(4,5,21,15)            9.3578         estimate D2E/DX2                !
 ! D26   D(6,5,21,15)         -170.7793         estimate D2E/DX2                !
 ! D27   D(5,6,7,8)            179.9758         estimate D2E/DX2                !
 ! D28   D(5,6,7,23)            -0.043          estimate D2E/DX2                !
 ! D29   D(22,6,7,8)             0.0196         estimate D2E/DX2                !
 ! D30   D(22,6,7,23)         -179.9992         estimate D2E/DX2                !
 ! D31   D(6,7,8,9)            179.8932         estimate D2E/DX2                !
 ! D32   D(6,7,8,24)             0.104          estimate D2E/DX2                !
 ! D33   D(23,7,8,9)            -0.0857         estimate D2E/DX2                !
 ! D34   D(23,7,8,24)         -179.8749         estimate D2E/DX2                !
 ! D35   D(7,8,9,10)            -1.8141         estimate D2E/DX2                !
 ! D36   D(7,8,9,11)           179.7729         estimate D2E/DX2                !
 ! D37   D(24,8,9,10)          177.8826         estimate D2E/DX2                !
 ! D38   D(24,8,9,11)           -0.5304         estimate D2E/DX2                !
 ! D39   D(8,9,10,25)          179.4836         estimate D2E/DX2                !
 ! D40   D(11,9,10,25)          -1.8997         estimate D2E/DX2                !
 ! D41   D(8,9,11,26)          -79.2134         estimate D2E/DX2                !
 ! D42   D(8,9,11,27)           79.7655         estimate D2E/DX2                !
 ! D43   D(10,9,11,26)         102.1736         estimate D2E/DX2                !
 ! D44   D(10,9,11,27)         -98.8476         estimate D2E/DX2                !
 ! D45   D(9,11,26,12)         112.8908         estimate D2E/DX2                !
 ! D46   D(27,11,26,12)        -53.6474         estimate D2E/DX2                !
 ! D47   D(9,11,27,12)        -112.9406         estimate D2E/DX2                !
 ! D48   D(26,11,27,12)         53.7664         estimate D2E/DX2                !
 ! D49   D(26,12,13,14)        153.1616         estimate D2E/DX2                !
 ! D50   D(27,12,13,14)       -153.2231         estimate D2E/DX2                !
 ! D51   D(13,12,26,11)        144.7489         estimate D2E/DX2                !
 ! D52   D(27,12,26,11)         44.5906         estimate D2E/DX2                !
 ! D53   D(13,12,27,11)       -144.3941         estimate D2E/DX2                !
 ! D54   D(26,12,27,11)        -44.4316         estimate D2E/DX2                !
 ! D55   D(12,13,14,28)        179.9226         estimate D2E/DX2                !
 ! D56   D(29,15,21,5)         -16.1968         estimate D2E/DX2                !
 ! D57   D(21,15,29,16)          6.8023         estimate D2E/DX2                !
 ! D58   D(31,16,29,15)       -144.0413         estimate D2E/DX2                !
 ! D59   D(32,16,29,15)        135.8142         estimate D2E/DX2                !
 ! D60   D(15,29,30,2)          -2.824          estimate D2E/DX2                !
 --------------------------------------------------------------------------------
 Trust Radius=3.00D-01 FncErr=1.00D-07 GrdErr=1.00D-06 EigMax=2.50D+02 EigMin=1.00D-04
 Number of steps in this run=    156 maximum allowed number of steps=    192.
 GradGradGradGradGradGradGradGradGradGradGradGradGradGradGradGradGradGrad

                          Input orientation:                          
 ---------------------------------------------------------------------
 Center     Atomic      Atomic             Coordinates (Angstroms)
 Number     Number       Type             X           Y           Z
 ---------------------------------------------------------------------
      1          6           0        1.162470    0.096390   -0.051620
      2         16           0        3.018330    0.349650   -0.664130
      3          6           0        4.035150    1.076410   -2.469150
      4          6           0        5.092530    0.785370   -1.745070
      5          6           0        5.942410    1.137440   -2.615680
      6          6           0        7.147380    1.243640   -2.876590
      7          6           0        7.323710    1.734410   -4.082800
      8          6           0        8.448390    1.953370   -4.619700
      9          6           0        7.944180    2.430590   -5.800160
     10          6           0        6.624280    2.512930   -6.102050
     11          6           0        8.696490    2.864680   -6.857880
     12         16           0       11.186620    2.997140   -7.200140
     13         16           0       12.782230    3.797780   -9.164450
     14         16           0       15.265740    3.910870   -9.443040
     15         16           0        4.451830    2.017020   -4.576140
     16          6           0        2.368850    1.418760   -3.393030
     17          1           0        0.825700   -0.319560    0.972170
     18          1           0        0.699360   -0.610750   -0.734350
     19          1           0        0.699250    1.079100   -0.047940
     20          1           0        5.485190    0.416680   -0.842650
     21          1           0        5.580100    1.465410   -3.438340
     22          1           0        7.789870    0.964760   -2.189600
     23          1           0        6.398840    1.926890   -4.557930
     24          1           0        9.356450    1.740080   -4.098710
     25          1           0        7.250160    2.889710   -6.928500
     26          1           0        9.419520    3.954100   -7.293120
     27          1           0        9.420130    2.380810   -7.931220
     28          1           0       15.787240    4.424150  -10.706700
     29          1           0        2.906030    2.013780   -4.771280
     30          1           0        1.777770    0.960840   -2.177220
     31          1           0        1.254180    0.600100   -3.458390
     32          1           0        1.260870    2.101930   -2.846720
 ---------------------------------------------------------------------
                    Distance matrix (angstroms):
                    1          2          3          4          5
     1  C    0.000000
     2  S    1.970666   0.000000
     3  C    3.880358   2.195495   0.000000
     4  C    4.334494   2.379199   1.314172   0.000000
     5  C    5.523225   3.602694   1.913854   1.266575   0.000000
     6  C    6.716829   4.768988   3.143239   2.390138   1.237459
     7  C    7.542838   5.669318   3.721755   3.368059   2.101619
     8  C    8.797747   6.906808   4.987044   4.570505   3.310857
     9  C    9.191615   7.414386   5.311304   5.223257   3.977466
    10  C    8.501690   6.874128   4.686699   4.930922   3.809422
    11  C   10.523786   8.770942   6.647327   6.591880   5.344584
    12  S   12.649082  10.791181   8.787206   8.472759   7.209542
    13  S   15.223757  13.396969  11.346555  11.101950   9.836002
    14  S   17.368110  15.483882  13.520187  13.134751  11.883991
    15  S    5.914388   4.487635   2.344734   3.153160   2.615128
    16  C    3.790651   3.001952   1.935798   3.245826   3.667935
    17  H    1.155238   2.816549   4.908359   5.177847   6.416871
    18  H    1.086572   2.510960   4.121108   4.719179   5.838248
    19  H    1.086419   2.507971   4.121953   4.718838   5.838443
    20  H    4.406157   2.474219   2.276700   1.050941   1.967786
    21  H    5.732324   3.937490   1.864811   1.888741   0.956871
    22  H    7.017653   5.047080   3.766767   2.739604   1.903804
    23  H    7.146827   5.392329   3.267009   3.304799   2.145669
    24  H    9.285578   7.341757   5.604655   4.963074   3.770706
    25  H    9.599692   7.975125   5.788795   5.995962   4.835398
    26  H   11.640452   9.894989   7.780953   7.716512   6.473200
    27  H   11.640259   9.895416   7.780339   7.716346   6.472671
    28  H   18.604949  16.748129  14.736900  14.419721  13.160081
    29  H    5.384383   4.432902   2.730087   3.930359   3.825466
    30  H    2.375720   2.049874   2.279110   3.347414   4.191379
    31  H    3.445028   3.314037   2.989860   4.207460   4.793579
    32  H    3.441578   3.304974   2.981758   4.198640   4.785440
                    6          7          8          9         10
     6  C    0.000000
     7  C    1.314112   0.000000
     8  C    2.287963   1.265350   0.000000
     9  C    3.254382   1.954220   1.369472   0.000000
    10  C    3.505470   2.274350   2.416164   1.356486   0.000000
    11  C    4.569265   3.295922   2.429298   1.368640   2.233621
    12  S    6.171167   5.121950   3.904616   3.576918   4.717543
    13  S    8.821131   7.737965   6.545133   6.049329   6.996391
    14  S   10.776834   9.825731   8.577452   8.310658   9.369700
    15  S    3.279112   2.927618   3.997304   3.723677   2.700716
    16  C    4.809545   5.012590   6.225057   6.156491   5.161849
    17  H    7.564403   8.485025   9.723200  10.202967   9.575548
    18  H    7.043076   7.784209   9.039808   9.348775   8.583371
    19  H    7.043203   7.784150   9.039608   9.348988   8.591513
    20  H    2.753843   3.951600   5.040643   5.888919   5.775212
    21  H    1.679617   1.878261   3.140192   3.478310   3.046795
    22  H    0.981082   2.096157   2.704882   3.899822   4.366085
    23  H    1.963173   1.057441   2.050652   2.045709   1.666905
    24  H    2.572940   2.032810   1.068408   2.316515   3.474971
    25  H    4.374710   3.072155   2.764606   1.402001   1.103045
    26  H    5.658176   4.430079   3.477526   2.593577   3.362883
    27  H    5.657547   4.429802   3.477520   2.592744   3.343665
    28  H   12.086085  11.078903   9.849621   9.463721  10.431462
    29  H    4.708717   4.479726   5.544762   5.159000   3.980638
    30  H    5.422343   5.914989   7.172726   7.301402   6.426658
    31  H    5.956714   6.206105   7.411925   7.320566   6.283775
    32  H    5.948828   6.198467   7.404456   7.314196   6.287469
                   11         12         13         14         15
    11  C    0.000000
    12  S    2.517029   0.000000
    13  S    4.783745   2.654338   0.000000
    14  S    7.136709   4.743914   2.501644   0.000000
    15  S    4.893057   7.294067   9.675705  12.008915   0.000000
    16  C    7.357642   9.733367  12.141149  14.461777   2.469103
    17  H   11.549823  13.606462  16.206855  18.299942   7.027956
    18  H   10.655061  12.837676  15.378474  17.563193   5.978759
    19  H   10.654550  12.838137  15.378569  17.563299   5.955346
    20  H    7.244870   8.920917  11.572856  13.484629   4.191404
    21  H    4.833539   6.923179   9.492047  11.655399   1.694655
    22  H    5.120986   6.385451   9.033172  10.824998   4.236193
    23  H    3.383551   5.572212   8.091225  10.316123   1.949180
    24  H    3.051769   3.814261   6.452272   8.257960   4.935578
    25  H    1.448269   3.947283   6.035550   8.462577   3.758435
    26  H    1.378057   2.011731   3.851510   6.229150   5.984330
    27  H    1.381971   2.008688   3.851282   6.228791   6.006073
    28  H    8.217305   5.958022   3.435252   1.460224  13.109903
    29  H    6.213482   8.685305  10.955452  13.348660   1.558072
    30  H    8.567489  10.858301  13.340455  15.601928   3.744453
    31  H    8.489572  10.881170  13.254441  15.591698   3.671783
    32  H    8.482903  10.875393  13.248825  15.585894   3.630472
                   16         17         18         19         20
    16  C    0.000000
    17  H    4.945507   0.000000
    18  H    3.738273   1.735789   0.000000
    19  H    3.754006   1.735760   1.823939   0.000000
    20  H    4.149720   5.054351   4.896071   4.896487   0.000000
    21  H    3.211908   6.726294   5.953455   5.955396   2.801151
    22  H    5.571518   7.755381   7.407788   7.407879   2.725108
    23  H    4.225637   8.166299   7.317339   7.317382   4.113246
    24  H    7.030490  10.135563   9.580737   9.580853   5.228764
    25  H    6.204066  10.676783   9.671282   9.671341   6.802100
    26  H    8.446928  12.666212  11.827786  11.696212   8.342713
    27  H    8.440454  12.665961  11.695991  11.827692   8.342025
    28  H   15.574830  19.563907  18.773441  18.773544  14.815247
    29  H    1.594423   6.539072   5.296636   5.296550   4.963560
    30  H    1.427326   3.530513   2.390552   2.389775   3.977707
    31  H    1.384545   4.545243   3.032223   3.488346   4.977669
    32  H    1.411664   4.542786   3.483681   3.032288   4.970035
                   21         22         23         24         25
    21  H    0.000000
    22  H    2.587100   0.000000
    23  H    1.461773   2.910266   0.000000
    24  H    3.843482   2.588435   2.998873   0.000000
    25  H    4.122978   5.143335   2.696548   3.710232   0.000000
    26  H    5.982813   6.134968   4.551412   3.887173   2.443767
    27  H    5.980782   6.134260   4.551189   3.886222   2.444012
    28  H   12.875127  12.184675  11.497206   9.603376   9.461027
    29  H    3.037777   5.622936   3.500399   6.491162   4.928724
    30  H    4.037664   6.012114   5.287279   7.857209   7.499484
    31  H    4.411660   6.667687   5.425577   8.207091   7.296284
    32  H    4.405783   6.659790   5.418267   8.199807   7.290619
                   26         27         28         29         30
    26  H    0.000000
    27  H    1.697767   0.000000
    28  H    7.240258   7.240070   0.000000
    29  H    7.249143   7.249374  14.386267   0.000000
    30  H    9.671007   9.671117  16.763406   3.018410   0.000000
    31  H    9.624305   9.479445  16.684460   2.539839   1.430271
    32  H    9.474417   9.617871  16.678951   2.533427   1.420388
                   31         32
    31  H    0.000000
    32  H    1.621628   0.000000
 Stoichiometry    C11H16S5
 Framework group  C1[X(C11H16S5)]
 Deg. of freedom    90
 Full point group                 C1      NOp   1
 Largest Abelian subgroup         C1      NOp   1
 Largest concise Abelian subgroup C1      NOp   1
                         Standard orientation:                         
 ---------------------------------------------------------------------
 Center     Atomic      Atomic             Coordinates (Angstroms)
 Number     Number       Type             X           Y           Z
 ---------------------------------------------------------------------
      1          6           0        8.275330   -0.414224    0.007605
      2         16           0        6.392051   -0.994485   -0.001359
      3          6           0        4.412594   -0.044834    0.009360
      4          6           0        4.032929   -1.302920   -0.001664
      5          6           0        2.789946   -1.059610    0.000551
      6          6           0        1.656167   -1.555428   -0.003484
      7          6           0        0.735248   -0.617997    0.001104
      8          6           0       -0.512726   -0.826953   -0.001799
      9          6           0       -0.871233    0.494720    0.008425
     10          6           0       -0.000102    1.533572    0.052845
     11          6           0       -2.158338    0.960051    0.006439
     12         16           0       -4.372509   -0.236976    0.003594
     13         16           0       -6.920549    0.506666    0.004158
     14         16           0       -9.089730   -0.739444   -0.004984
     15         16           0        2.698177    1.553202   -0.060155
     16          6           0        5.157561    1.741378    0.051596
     17          1           0        9.206703   -1.097674    0.003957
     18          1           0        8.426303    0.150773    0.923369
     19          1           0        8.427525    0.162343   -0.900532
     20          1           0        4.302091   -2.318799   -0.005930
     21          1           0        2.549890   -0.133411    0.011980
     22          1           0        1.585491   -2.533941   -0.009860
     23          1           0        1.169087    0.346326    0.007934
     24          1           0       -0.902973   -1.821527   -0.006772
     25          1           0       -1.044720    1.885923    0.016358
     26          1           0       -3.223830    1.183834   -0.838363
     27          1           0       -3.224839    1.172045    0.859363
     28          1           0      -10.324054    0.040738   -0.000817
     29          1           0        3.828717    2.622048    0.023730
     30          1           0        6.408618    1.055259    0.014750
     31          1           0        6.198074    2.205555    0.838259
     32          1           0        6.194630    2.210566   -0.783358
 ---------------------------------------------------------------------
 Rotational constants (GHZ):           1.4951014           0.0586605           0.0565045
 Standard basis: 6-31G(2df,p) (6D, 7F)
 There are   596 symmetry adapted cartesian basis functions of A   symmetry.
 There are   548 symmetry adapted basis functions of A   symmetry.
   548 basis functions,   936 primitive gaussians,   596 cartesian basis functions
    81 alpha electrons       81 beta electrons
       nuclear repulsion energy      1443.1706250570 Hartrees.
 NAtoms=   32 NActive=   32 NUniq=   32 SFac= 1.00D+00 NAtFMM=   60 NAOKFM=F Big=F
 Integral buffers will be    131072 words long.
 Raffenetti 2 integral format.
 Two-electron integral symmetry is turned on.
 One-electron integrals computed using PRISM.
 PrsmSu:  requested number of processors reduced to:  12 ShMem   1 Linda.
 NBasis=   548 RedAO= T EigKep=  1.07D-04  NBF=   548
 NBsUse=   548 1.00D-06 EigRej= -1.00D+00 NBFU=   548
 ExpMin= 1.17D-01 ExpMax= 2.19D+04 ExpMxC= 3.30D+03 IAcc=3 IRadAn=         5 AccDes= 0.00D+00
 Harris functional with IExCor=  402 and IRadAn=       5 diagonalized for initial guess.
 HarFok:  IExCor=  402 AccDes= 0.00D+00 IRadAn=         5 IDoV= 1 UseB2=F ITyADJ=14
 ICtDFT=  3500011 ScaDFX=  1.000000  1.000000  1.000000  1.000000
 FoFCou: FMM=F IPFlag=           0 FMFlag=      100000 FMFlg1=           0
         NFxFlg=           0 DoJE=T BraDBF=F KetDBF=T FulRan=T
         wScrn=  0.000000 ICntrl=       500 IOpCl=  0 I1Cent=   200000004 NGrid=           0
         NMat0=    1 NMatS0=      1 NMatT0=    0 NMatD0=    1 NMtDS0=    0 NMtDT0=    0
 Petite list used in FoFCou.
 Requested convergence on RMS density matrix=1.00D-08 within 128 cycles.
 Requested convergence on MAX density matrix=1.00D-06.
 Requested convergence on             energy=1.00D-06.
 No special actions if energy rises.
 Integral accuracy reduced to 1.0D-05 until final iterations.
 EnCoef did     9 forward-backward iterations
 EnCoef did     6 forward-backward iterations
 EnCoef did     7 forward-backward iterations
 EnCoef did     8 forward-backward iterations
 EnCoef did     1 forward-backward iterations
 EnCoef did     7 forward-backward iterations
 EnCoef did     6 forward-backward iterations
 EnCoef did     6 forward-backward iterations
 EnCoef did     2 forward-backward iterations
 EnCoef did     2 forward-backward iterations
 EnCoef did     4 forward-backward iterations
 EnCoef did    13 forward-backward iterations
 EnCoef did     9 forward-backward iterations
 Initial convergence to 2.3D-05 achieved.  Increase integral accuracy.
 SCF Done:  E(RB3LYP) =  -2418.44046303     A.U. after   37 cycles
            NFock= 37  Conv=0.77D-08     -V/T= 2.0028

 **********************************************************************

            Population analysis using the SCF density.

 **********************************************************************

 Orbital symmetries:
       Occupied  (A) (A) (A) (A) (A) (A) (A) (A) (A) (A) (A) (A)
                 (A) (A) (A) (A) (A) (A) (A) (A) (A) (A) (A) (A)
                 (A) (A) (A) (A) (A) (A) (A) (A) (A) (A) (A) (A)
                 (A) (A) (A) (A) (A) (A) (A) (A) (A) (A) (A) (A)
                 (A) (A) (A) (A) (A) (A) (A) (A) (A) (A) (A) (A)
                 (A) (A) (A) (A) (A) (A) (A) (A) (A) (A) (A) (A)
                 (A) (A) (A) (A) (A) (A) (A) (A) (A)
       Virtual   (A) (A) (A) (A) (A) (A) (A) (A) (A) (A) (A) (A)
                 (A) (A) (A) (A) (A) (A) (A) (A) (A) (A) (A) (A)
                 (A) (A) (A) (A) (A) (A) (A) (A) (A) (A) (A) (A)
                 (A) (A) (A) (A) (A) (A) (A) (A) (A) (A) (A) (A)
                 (A) (A) (A) (A) (A) (A) (A) (A) (A) (A) (A) (A)
                 (A) (A) (A) (A) (A) (A) (A) (A) (A) (A) (A) (A)
                 (A) (A) (A) (A) (A) (A) (A) (A) (A) (A) (A) (A)
                 (A) (A) (A) (A) (A) (A) (A) (A) (A) (A) (A) (A)
                 (A) (A) (A) (A) (A) (A) (A) (A) (A) (A) (A) (A)
                 (A) (A) (A) (A) (A) (A) (A) (A) (A) (A) (A) (A)
                 (A) (A) (A) (A) (A) (A) (A) (A) (A) (A) (A) (A)
                 (A) (A) (A) (A) (A) (A) (A) (A) (A) (A) (A) (A)
                 (A) (A) (A) (A) (A) (A) (A) (A) (A) (A) (A) (A)
                 (A) (A) (A) (A) (A) (A) (A) (A) (A) (A) (A) (A)
                 (A) (A) (A) (A) (A) (A) (A) (A) (A) (A) (A) (A)
                 (A) (A) (A) (A) (A) (A) (A) (A) (A) (A) (A) (A)
                 (A) (A) (A) (A) (A) (A) (A) (A) (A) (A) (A) (A)
                 (A) (A) (A) (A) (A) (A) (A) (A) (A) (A) (A) (A)
                 (A) (A) (A) (A) (A) (A) (A) (A) (A) (A) (A) (A)
                 (A) (A) (A) (A) (A) (A) (A) (A) (A) (A) (A) (A)
                 (A) (A) (A) (A) (A) (A) (A) (A) (A) (A) (A) (A)
                 (A) (A) (A) (A) (A) (A) (A) (A) (A) (A) (A) (A)
                 (A) (A) (A) (A) (A) (A) (A) (A) (A) (A) (A) (A)
                 (A) (A) (A) (A) (A) (A) (A) (A) (A) (A) (A) (A)
                 (A) (A) (A) (A) (A) (A) (A) (A) (A) (A) (A) (A)
                 (A) (A) (A) (A) (A) (A) (A) (A) (A) (A) (A) (A)
                 (A) (A) (A) (A) (A) (A) (A) (A) (A) (A) (A) (A)
                 (A) (A) (A) (A) (A) (A) (A) (A) (A) (A) (A) (A)
                 (A) (A) (A) (A) (A) (A) (A) (A) (A) (A) (A) (A)
                 (A) (A) (A) (A) (A) (A) (A) (A) (A) (A) (A) (A)
                 (A) (A) (A) (A) (A) (A) (A) (A) (A) (A) (A) (A)
                 (A) (A) (A) (A) (A) (A) (A) (A) (A) (A) (A) (A)
                 (A) (A) (A) (A) (A) (A) (A) (A) (A) (A) (A) (A)
                 (A) (A) (A) (A) (A) (A) (A) (A) (A) (A) (A) (A)
                 (A) (A) (A) (A) (A) (A) (A) (A) (A) (A) (A) (A)
                 (A) (A) (A) (A) (A) (A) (A) (A) (A) (A) (A) (A)
                 (A) (A) (A) (A) (A) (A) (A) (A) (A) (A) (A) (A)
                 (A) (A) (A) (A) (A) (A) (A) (A) (A) (A) (A) (A)
                 (A) (A) (A) (A) (A) (A) (A) (A) (A) (A) (A)
 The electronic state is 1-A.
 Alpha  occ. eigenvalues --  -88.91476 -88.90952 -88.89063 -88.87791 -88.86987
 Alpha  occ. eigenvalues --  -10.33406 -10.29856 -10.27569 -10.24666 -10.24503
 Alpha  occ. eigenvalues --  -10.23948 -10.22249 -10.20049 -10.19052 -10.18106
 Alpha  occ. eigenvalues --  -10.17675  -7.97320  -7.97028  -7.95339  -7.94488
 Alpha  occ. eigenvalues --   -7.93415  -5.93890  -5.93560  -5.93346  -5.93065
 Alpha  occ. eigenvalues --   -5.92884  -5.92587  -5.91772  -5.91478  -5.90890
 Alpha  occ. eigenvalues --   -5.90854  -5.90575  -5.89993  -5.89869  -5.89490
 Alpha  occ. eigenvalues --   -5.88943  -0.96241  -0.94096  -0.87505  -0.80787
 Alpha  occ. eigenvalues --   -0.75393  -0.74347  -0.72116  -0.70828  -0.69610
 Alpha  occ. eigenvalues --   -0.67724  -0.66138  -0.63843  -0.63537  -0.62595
 Alpha  occ. eigenvalues --   -0.58848  -0.56503  -0.53387  -0.50528  -0.49077
 Alpha  occ. eigenvalues --   -0.45568  -0.44990  -0.44142  -0.43294  -0.42499
 Alpha  occ. eigenvalues --   -0.41911  -0.40610  -0.39283  -0.38331  -0.36911
 Alpha  occ. eigenvalues --   -0.34925  -0.34076  -0.33084  -0.32869  -0.31028
 Alpha  occ. eigenvalues --   -0.30466  -0.28485  -0.27738  -0.27391  -0.26170
 Alpha  occ. eigenvalues --   -0.25553  -0.25182  -0.23055  -0.23003  -0.21359
 Alpha  occ. eigenvalues --   -0.21174
 Alpha virt. eigenvalues --   -0.18145  -0.17922  -0.12440  -0.10936  -0.09244
 Alpha virt. eigenvalues --   -0.07823  -0.05852  -0.04578  -0.00533   0.01958
 Alpha virt. eigenvalues --    0.02280   0.02886   0.03049   0.04155   0.05310
 Alpha virt. eigenvalues --    0.07834   0.09501   0.10776   0.11715   0.12074
 Alpha virt. eigenvalues --    0.12398   0.14582   0.15327   0.15857   0.17862
 Alpha virt. eigenvalues --    0.19498   0.20890   0.21229   0.23369   0.25116
 Alpha virt. eigenvalues --    0.25551   0.26706   0.27538   0.29832   0.29899
 Alpha virt. eigenvalues --    0.30449   0.31507   0.31853   0.32586   0.32633
 Alpha virt. eigenvalues --    0.33279   0.33830   0.34307   0.35224   0.35427
 Alpha virt. eigenvalues --    0.36011   0.36198   0.36348   0.36547   0.37127
 Alpha virt. eigenvalues --    0.37282   0.37542   0.38276   0.39135   0.39179
 Alpha virt. eigenvalues --    0.39963   0.40397   0.41352   0.41627   0.42342
 Alpha virt. eigenvalues --    0.44032   0.44599   0.45217   0.46388   0.46695
 Alpha virt. eigenvalues --    0.46850   0.47358   0.48215   0.48567   0.49173
 Alpha virt. eigenvalues --    0.49975   0.51100   0.51249   0.51257   0.51790
 Alpha virt. eigenvalues --    0.52131   0.52902   0.53559   0.54385   0.55142
 Alpha virt. eigenvalues --    0.55307   0.55571   0.55813   0.56246   0.57488
 Alpha virt. eigenvalues --    0.57994   0.58334   0.58604   0.59281   0.59748
 Alpha virt. eigenvalues --    0.62024   0.62389   0.62731   0.63539   0.64095
 Alpha virt. eigenvalues --    0.64598   0.64869   0.65473   0.66883   0.67971
 Alpha virt. eigenvalues --    0.68363   0.69487   0.69729   0.70750   0.71059
 Alpha virt. eigenvalues --    0.72003   0.73508   0.74136   0.74767   0.75822
 Alpha virt. eigenvalues --    0.76439   0.77506   0.78604   0.78926   0.80650
 Alpha virt. eigenvalues --    0.81064   0.81435   0.81671   0.84563   0.84855
 Alpha virt. eigenvalues --    0.85754   0.86711   0.87431   0.88010   0.89231
 Alpha virt. eigenvalues --    0.89556   0.90650   0.91009   0.91519   0.93240
 Alpha virt. eigenvalues --    0.93291   0.94324   0.95743   0.96137   0.98215
 Alpha virt. eigenvalues --    0.98379   0.99655   1.03126   1.04275   1.06476
 Alpha virt. eigenvalues --    1.07263   1.07847   1.08650   1.10549   1.13588
 Alpha virt. eigenvalues --    1.14823   1.15933   1.16013   1.18153   1.20247
 Alpha virt. eigenvalues --    1.21630   1.25060   1.25720   1.25994   1.28167
 Alpha virt. eigenvalues --    1.28374   1.28775   1.30008   1.30364   1.31844
 Alpha virt. eigenvalues --    1.33100   1.34561   1.35746   1.37155   1.39305
 Alpha virt. eigenvalues --    1.39940   1.42623   1.42833   1.43097   1.45080
 Alpha virt. eigenvalues --    1.45804   1.47046   1.47670   1.48731   1.48996
 Alpha virt. eigenvalues --    1.49662   1.50596   1.52352   1.53575   1.54163
 Alpha virt. eigenvalues --    1.54598   1.55227   1.55466   1.56364   1.57040
 Alpha virt. eigenvalues --    1.58627   1.59164   1.59387   1.59980   1.61962
 Alpha virt. eigenvalues --    1.62512   1.62554   1.63571   1.63943   1.64058
 Alpha virt. eigenvalues --    1.64577   1.65013   1.65275   1.65751   1.66509
 Alpha virt. eigenvalues --    1.67139   1.68171   1.70720   1.72341   1.72923
 Alpha virt. eigenvalues --    1.73511   1.74333   1.75391   1.76945   1.77241
 Alpha virt. eigenvalues --    1.77913   1.78179   1.79550   1.80100   1.81141
 Alpha virt. eigenvalues --    1.81275   1.81987   1.82278   1.83839   1.85487
 Alpha virt. eigenvalues --    1.86330   1.87584   1.90423   1.90683   1.92303
 Alpha virt. eigenvalues --    1.93886   1.94714   1.98198   1.98757   1.99442
 Alpha virt. eigenvalues --    1.99718   2.02509   2.04062   2.05826   2.06436
 Alpha virt. eigenvalues --    2.06814   2.09044   2.09341   2.10795   2.11355
 Alpha virt. eigenvalues --    2.11860   2.12586   2.13139   2.14382   2.15445
 Alpha virt. eigenvalues --    2.16299   2.17586   2.19870   2.20030   2.20256
 Alpha virt. eigenvalues --    2.21149   2.22528   2.22630   2.22893   2.23309
 Alpha virt. eigenvalues --    2.25907   2.27254   2.29783   2.31484   2.31812
 Alpha virt. eigenvalues --    2.33190   2.33326   2.35020   2.36139   2.36928
 Alpha virt. eigenvalues --    2.37389   2.37632   2.38362   2.41732   2.42113
 Alpha virt. eigenvalues --    2.44106   2.45016   2.45419   2.46030   2.46392
 Alpha virt. eigenvalues --    2.48523   2.48915   2.50423   2.50719   2.51568
 Alpha virt. eigenvalues --    2.52414   2.55498   2.56290   2.57728   2.59679
 Alpha virt. eigenvalues --    2.61042   2.63285   2.64690   2.66461   2.66859
 Alpha virt. eigenvalues --    2.69129   2.70286   2.72590   2.74798   2.75918
 Alpha virt. eigenvalues --    2.78508   2.78926   2.79049   2.79975   2.81044
 Alpha virt. eigenvalues --    2.83701   2.84819   2.85875   2.86918   2.88246
 Alpha virt. eigenvalues --    2.89042   2.91273   2.91335   2.93231   2.94145
 Alpha virt. eigenvalues --    2.94833   2.96656   2.97445   2.98381   3.02374
 Alpha virt. eigenvalues --    3.03971   3.04709   3.05692   3.06971   3.07445
 Alpha virt. eigenvalues --    3.09243   3.10149   3.12077   3.13970   3.14728
 Alpha virt. eigenvalues --    3.15164   3.17387   3.19654   3.20016   3.21515
 Alpha virt. eigenvalues --    3.23453   3.23695   3.25757   3.28031   3.28260
 Alpha virt. eigenvalues --    3.28725   3.31061   3.33297   3.33723   3.34439
 Alpha virt. eigenvalues --    3.35959   3.39512   3.40840   3.41483   3.43161
 Alpha virt. eigenvalues --    3.46828   3.47846   3.48001   3.50004   3.50254
 Alpha virt. eigenvalues --    3.52187   3.53010   3.56073   3.57038   3.58329
 Alpha virt. eigenvalues --    3.61405   3.61550   3.61775   3.63204   3.65563
 Alpha virt. eigenvalues --    3.66371   3.69833   3.71570   3.72024   3.76806
 Alpha virt. eigenvalues --    3.79457   3.79846   3.80130   3.80747   3.82707
 Alpha virt. eigenvalues --    3.84134   3.85941   3.86764   3.87572   3.91444
 Alpha virt. eigenvalues --    3.93108   3.95072   3.96602   3.97741   3.98640
 Alpha virt. eigenvalues --    3.99385   3.99657   4.02318   4.03601   4.05590
 Alpha virt. eigenvalues --    4.06864   4.07929   4.12787   4.14236   4.22436
 Alpha virt. eigenvalues --    4.24082   4.27714   4.28325   4.29203   4.31813
 Alpha virt. eigenvalues --    4.33682   4.34091   4.37429   4.37900   4.39865
 Alpha virt. eigenvalues --    4.40312   4.43498   4.43841   4.48761   4.49735
 Alpha virt. eigenvalues --    4.49934   4.53373   4.55033   4.55686   4.57419
 Alpha virt. eigenvalues --    4.58483   4.60900   4.62509   4.63043   4.64319
 Alpha virt. eigenvalues --    4.65593   4.69935   4.70707   4.72546   4.78767
 Alpha virt. eigenvalues --    4.80564   4.81766   4.83970   4.85041   4.86837
 Alpha virt. eigenvalues --    4.90796   4.92576   4.94281   4.97540   5.00210
 Alpha virt. eigenvalues --    5.01197   5.01971   5.04800   5.07782   5.15107
 Alpha virt. eigenvalues --    5.17312   5.19508   5.24959   5.27960   5.31890
 Alpha virt. eigenvalues --    5.36829   5.39927   5.47363   5.53388   5.56518
 Alpha virt. eigenvalues --    5.65240   5.71509   5.73412   5.81048   5.83611
 Alpha virt. eigenvalues --    5.96807   6.06508   6.21370   6.59063   6.64088
 Alpha virt. eigenvalues --    7.75856   9.85405  10.18290  10.49317  10.60763
 Alpha virt. eigenvalues --   10.75386  10.97772  11.36624  11.44138  11.95210
 Alpha virt. eigenvalues --   12.19227  12.38815
          Condensed to atoms (all electrons):
               1          2          3          4          5          6
     1  C    5.080652   0.242295   0.000205   0.000321  -0.000047   0.000001
     2  S    0.242295  16.138863   0.037469  -0.040056   0.003406  -0.000401
     3  C    0.000205   0.037469   5.223424   0.459039   0.045194   0.008486
     4  C    0.000321  -0.040056   0.459039   5.232237   0.299940  -0.067171
     5  C   -0.000047   0.003406   0.045194   0.299940   4.578626   0.564380
     6  C    0.000001  -0.000401   0.008486  -0.067171   0.564380   5.215387
     7  C    0.000000   0.000033   0.002852   0.001934   0.054435   0.360635
     8  C    0.000000  -0.000002  -0.000078  -0.003072  -0.018621  -0.033140
     9  C   -0.000000   0.000000   0.000058  -0.000106  -0.000307  -0.000668
    10  C    0.000000  -0.000004   0.000301  -0.000254   0.005131   0.008304
    11  C    0.000000  -0.000000   0.000001  -0.000003   0.000032  -0.002854
    12  S   -0.000000   0.000000   0.000000   0.000000   0.000001  -0.000054
    13  S    0.000000   0.000000   0.000000   0.000000   0.000000  -0.000000
    14  S    0.000000  -0.000000  -0.000000  -0.000000  -0.000000   0.000000
    15  S   -0.000047   0.003531   0.137074  -0.007918  -0.113938  -0.027874
    16  C   -0.003075  -0.037613   0.238341  -0.012093   0.001358  -0.000163
    17  H    0.360165  -0.009475   0.000037  -0.000016  -0.000000  -0.000000
    18  H    0.379145  -0.044435  -0.000265   0.000004   0.000001   0.000000
    19  H    0.376872  -0.043078  -0.000300   0.000003   0.000001   0.000000
    20  H    0.000214  -0.008449  -0.020612   0.352029  -0.036712  -0.008533
    21  H   -0.000003   0.002282  -0.098170  -0.047021   0.350118  -0.006076
    22  H   -0.000000  -0.000056   0.000503  -0.020509  -0.022893   0.339597
    23  H    0.000000  -0.000011   0.001701   0.007183  -0.034389  -0.099397
    24  H   -0.000000   0.000000   0.000002   0.000039   0.000851  -0.010375
    25  H   -0.000000   0.000000  -0.000002   0.000004  -0.000165  -0.000013
    26  H    0.000000   0.000000  -0.000000   0.000000  -0.000000   0.000007
    27  H    0.000000  -0.000000  -0.000000   0.000000  -0.000000   0.000013
    28  H    0.000000   0.000000   0.000000   0.000000   0.000000  -0.000000
    29  H   -0.000003   0.001273  -0.023103  -0.000435   0.002747  -0.000019
    30  H   -0.007268  -0.007843  -0.018665  -0.004272   0.000243  -0.000001
    31  H   -0.000717  -0.007839  -0.009345  -0.000238  -0.000010   0.000002
    32  H   -0.000610  -0.011001  -0.007135   0.000019  -0.000037   0.000003
               7          8          9         10         11         12
     1  C    0.000000   0.000000  -0.000000   0.000000   0.000000  -0.000000
     2  S    0.000033  -0.000002   0.000000  -0.000004  -0.000000   0.000000
     3  C    0.002852  -0.000078   0.000058   0.000301   0.000001   0.000000
     4  C    0.001934  -0.003072  -0.000106  -0.000254  -0.000003   0.000000
     5  C    0.054435  -0.018621  -0.000307   0.005131   0.000032   0.000001
     6  C    0.360635  -0.033140  -0.000668   0.008304  -0.002854  -0.000054
     7  C    4.885470   0.425959   0.037732  -0.097152  -0.026413  -0.000212
     8  C    0.425959   5.284441   0.495562  -0.007462  -0.068562   0.005513
     9  C    0.037732   0.495562   4.305979   0.568134   0.257707  -0.012963
    10  C   -0.097152  -0.007462   0.568134   5.663230  -0.080093   0.000928
    11  C   -0.026413  -0.068562   0.257707  -0.080093   6.026563  -0.048284
    12  S   -0.000212   0.005513  -0.012963   0.000928  -0.048284  16.114753
    13  S    0.000000   0.000001  -0.000016   0.000001   0.000681   0.093589
    14  S   -0.000000  -0.000000   0.000000  -0.000000  -0.000002   0.002267
    15  S   -0.059037   0.006147   0.000060   0.040213   0.000385  -0.000008
    16  C   -0.000157   0.000000  -0.000001   0.000071   0.000000  -0.000000
    17  H    0.000000  -0.000000   0.000000  -0.000000   0.000000   0.000000
    18  H   -0.000000  -0.000000  -0.000000   0.000000   0.000000  -0.000000
    19  H   -0.000000  -0.000000   0.000000   0.000000  -0.000000  -0.000000
    20  H   -0.001101   0.000021   0.000000   0.000003   0.000000  -0.000000
    21  H   -0.082884   0.004599  -0.001617  -0.001823  -0.000237  -0.000001
    22  H   -0.054770  -0.006569   0.000455  -0.000098  -0.000038  -0.000004
    23  H    0.382400  -0.079598  -0.031577  -0.016547   0.006243   0.000016
    24  H   -0.029986   0.372898  -0.027512   0.004667  -0.002735   0.001273
    25  H    0.015531   0.007145  -0.099393   0.229995   0.010966  -0.000414
    26  H    0.000087   0.000291   0.001225  -0.000741   0.252163   0.039623
    27  H    0.000161  -0.000109   0.005175  -0.001160   0.246703   0.042290
    28  H    0.000000   0.000000  -0.000000  -0.000000   0.000000   0.000002
    29  H    0.000447  -0.000008  -0.000013   0.000486   0.000000   0.000000
    30  H    0.000001  -0.000000   0.000000   0.000000   0.000000   0.000000
    31  H    0.000001  -0.000000   0.000000  -0.000001  -0.000000   0.000000
    32  H    0.000001  -0.000000   0.000000  -0.000000  -0.000000   0.000000
              13         14         15         16         17         18
     1  C    0.000000   0.000000  -0.000047  -0.003075   0.360165   0.379145
     2  S    0.000000  -0.000000   0.003531  -0.037613  -0.009475  -0.044435
     3  C    0.000000  -0.000000   0.137074   0.238341   0.000037  -0.000265
     4  C    0.000000  -0.000000  -0.007918  -0.012093  -0.000016   0.000004
     5  C    0.000000  -0.000000  -0.113938   0.001358  -0.000000   0.000001
     6  C   -0.000000   0.000000  -0.027874  -0.000163  -0.000000   0.000000
     7  C    0.000000  -0.000000  -0.059037  -0.000157   0.000000  -0.000000
     8  C    0.000001  -0.000000   0.006147   0.000000  -0.000000  -0.000000
     9  C   -0.000016   0.000000   0.000060  -0.000001   0.000000  -0.000000
    10  C    0.000001  -0.000000   0.040213   0.000071  -0.000000   0.000000
    11  C    0.000681  -0.000002   0.000385   0.000000   0.000000   0.000000
    12  S    0.093589   0.002267  -0.000008  -0.000000   0.000000  -0.000000
    13  S   15.849846   0.112725  -0.000000  -0.000000   0.000000   0.000000
    14  S    0.112725  15.861802   0.000000   0.000000   0.000000   0.000000
    15  S   -0.000000   0.000000  16.296108  -0.212501   0.000001   0.000002
    16  C   -0.000000   0.000000  -0.212501   5.946875   0.000045  -0.000245
    17  H    0.000000   0.000000   0.000001   0.000045   0.573667  -0.036352
    18  H    0.000000   0.000000   0.000002  -0.000245  -0.036352   0.577212
    19  H    0.000000   0.000000   0.000007  -0.000529  -0.034687  -0.025958
    20  H   -0.000000   0.000000  -0.001581   0.000580  -0.000006   0.000003
    21  H   -0.000000   0.000000  -0.052824   0.004779   0.000000  -0.000000
    22  H   -0.000000   0.000000  -0.002858   0.000009   0.000000   0.000000
    23  H   -0.000000  -0.000000   0.043431  -0.000141   0.000000  -0.000000
    24  H   -0.000001  -0.000000  -0.000247  -0.000000   0.000000   0.000000
    25  H   -0.000005   0.000000  -0.002009  -0.000000   0.000000  -0.000000
    26  H   -0.000429   0.000004   0.000000   0.000000   0.000000   0.000000
    27  H   -0.000604   0.000004   0.000010   0.000000  -0.000000  -0.000000
    28  H    0.000532   0.256619  -0.000000   0.000000   0.000000   0.000000
    29  H    0.000000  -0.000000   0.195141   0.089192   0.000000  -0.000002
    30  H    0.000000   0.000000   0.010219  -0.007335   0.000510   0.003072
    31  H    0.000000   0.000000   0.005288   0.218411   0.000008   0.002170
    32  H    0.000000   0.000000   0.004262   0.225717  -0.000004  -0.000116
              19         20         21         22         23         24
     1  C    0.376872   0.000214  -0.000003  -0.000000   0.000000  -0.000000
     2  S   -0.043078  -0.008449   0.002282  -0.000056  -0.000011   0.000000
     3  C   -0.000300  -0.020612  -0.098170   0.000503   0.001701   0.000002
     4  C    0.000003   0.352029  -0.047021  -0.020509   0.007183   0.000039
     5  C    0.000001  -0.036712   0.350118  -0.022893  -0.034389   0.000851
     6  C    0.000000  -0.008533  -0.006076   0.339597  -0.099397  -0.010375
     7  C   -0.000000  -0.001101  -0.082884  -0.054770   0.382400  -0.029986
     8  C   -0.000000   0.000021   0.004599  -0.006569  -0.079598   0.372898
     9  C    0.000000   0.000000  -0.001617   0.000455  -0.031577  -0.027512
    10  C    0.000000   0.000003  -0.001823  -0.000098  -0.016547   0.004667
    11  C   -0.000000   0.000000  -0.000237  -0.000038   0.006243  -0.002735
    12  S   -0.000000  -0.000000  -0.000001  -0.000004   0.000016   0.001273
    13  S    0.000000  -0.000000  -0.000000  -0.000000  -0.000000  -0.000001
    14  S    0.000000   0.000000   0.000000   0.000000  -0.000000  -0.000000
    15  S    0.000007  -0.001581  -0.052824  -0.002858   0.043431  -0.000247
    16  C   -0.000529   0.000580   0.004779   0.000009  -0.000141  -0.000000
    17  H   -0.034687  -0.000006   0.000000   0.000000   0.000000   0.000000
    18  H   -0.025958   0.000003  -0.000000   0.000000  -0.000000   0.000000
    19  H    0.575598   0.000002  -0.000000  -0.000000  -0.000000   0.000000
    20  H    0.000002   0.526524   0.011336   0.004818  -0.000225   0.000000
    21  H   -0.000000   0.011336   0.871689   0.018485  -0.035728  -0.000132
    22  H   -0.000000   0.004818   0.018485   0.643041   0.004072   0.001210
    23  H   -0.000000  -0.000225  -0.035728   0.004072   0.676023   0.005535
    24  H    0.000000   0.000000  -0.000132   0.001210   0.005535   0.531506
    25  H   -0.000000   0.000000   0.000425   0.000013   0.001146  -0.000693
    26  H   -0.000000  -0.000000   0.000000  -0.000000  -0.000038   0.000005
    27  H    0.000000   0.000000   0.000001   0.000000  -0.000039   0.000008
    28  H    0.000000   0.000000  -0.000000  -0.000000  -0.000000  -0.000000
    29  H   -0.000002   0.000007   0.003796   0.000006  -0.001123   0.000000
    30  H    0.003323   0.000610   0.000308   0.000002  -0.000004   0.000000
    31  H   -0.000000  -0.000007  -0.000225  -0.000000   0.000001   0.000000
    32  H    0.002448  -0.000008  -0.000110  -0.000000   0.000003   0.000000
              25         26         27         28         29         30
     1  C   -0.000000   0.000000   0.000000   0.000000  -0.000003  -0.007268
     2  S    0.000000   0.000000  -0.000000   0.000000   0.001273  -0.007843
     3  C   -0.000002  -0.000000  -0.000000   0.000000  -0.023103  -0.018665
     4  C    0.000004   0.000000   0.000000   0.000000  -0.000435  -0.004272
     5  C   -0.000165  -0.000000  -0.000000   0.000000   0.002747   0.000243
     6  C   -0.000013   0.000007   0.000013  -0.000000  -0.000019  -0.000001
     7  C    0.015531   0.000087   0.000161   0.000000   0.000447   0.000001
     8  C    0.007145   0.000291  -0.000109   0.000000  -0.000008  -0.000000
     9  C   -0.099393   0.001225   0.005175  -0.000000  -0.000013   0.000000
    10  C    0.229995  -0.000741  -0.001160  -0.000000   0.000486   0.000000
    11  C    0.010966   0.252163   0.246703   0.000000   0.000000   0.000000
    12  S   -0.000414   0.039623   0.042290   0.000002   0.000000   0.000000
    13  S   -0.000005  -0.000429  -0.000604   0.000532   0.000000   0.000000
    14  S    0.000000   0.000004   0.000004   0.256619  -0.000000   0.000000
    15  S   -0.002009   0.000000   0.000010  -0.000000   0.195141   0.010219
    16  C   -0.000000   0.000000   0.000000   0.000000   0.089192  -0.007335
    17  H    0.000000   0.000000  -0.000000   0.000000   0.000000   0.000510
    18  H   -0.000000   0.000000  -0.000000   0.000000  -0.000002   0.003072
    19  H   -0.000000  -0.000000   0.000000   0.000000  -0.000002   0.003323
    20  H    0.000000  -0.000000   0.000000   0.000000   0.000007   0.000610
    21  H    0.000425   0.000000   0.000001  -0.000000   0.003796   0.000308
    22  H    0.000013  -0.000000   0.000000  -0.000000   0.000006   0.000002
    23  H    0.001146  -0.000038  -0.000039  -0.000000  -0.001123  -0.000004
    24  H   -0.000693   0.000005   0.000008  -0.000000   0.000000   0.000000
    25  H    0.661937   0.001903   0.001722  -0.000000  -0.000001   0.000000
    26  H    0.001903   0.538964  -0.067162  -0.000000  -0.000000  -0.000000
    27  H    0.001722  -0.067162   0.537866  -0.000000  -0.000000  -0.000000
    28  H   -0.000000  -0.000000  -0.000000   0.580348   0.000000   0.000000
    29  H   -0.000001  -0.000000  -0.000000   0.000000   0.524283   0.003032
    30  H    0.000000  -0.000000  -0.000000   0.000000   0.003032   0.835404
    31  H    0.000000  -0.000000  -0.000000   0.000000  -0.004627   0.040539
    32  H    0.000000   0.000000  -0.000000   0.000000  -0.006286   0.037865
              31         32
     1  C   -0.000717  -0.000610
     2  S   -0.007839  -0.011001
     3  C   -0.009345  -0.007135
     4  C   -0.000238   0.000019
     5  C   -0.000010  -0.000037
     6  C    0.000002   0.000003
     7  C    0.000001   0.000001
     8  C   -0.000000  -0.000000
     9  C    0.000000   0.000000
    10  C   -0.000001  -0.000000
    11  C   -0.000000  -0.000000
    12  S    0.000000   0.000000
    13  S    0.000000   0.000000
    14  S    0.000000   0.000000
    15  S    0.005288   0.004262
    16  C    0.218411   0.225717
    17  H    0.000008  -0.000004
    18  H    0.002170  -0.000116
    19  H   -0.000000   0.002448
    20  H   -0.000007  -0.000008
    21  H   -0.000225  -0.000110
    22  H   -0.000000  -0.000000
    23  H    0.000001   0.000003
    24  H    0.000000   0.000000
    25  H    0.000000   0.000000
    26  H   -0.000000   0.000000
    27  H   -0.000000  -0.000000
    28  H    0.000000   0.000000
    29  H   -0.004627  -0.006286
    30  H    0.040539   0.037865
    31  H    0.694269  -0.086271
    32  H   -0.086271   0.696366
 Mulliken charges:
               1
     1  C   -0.428099
     2  S   -0.218888
     3  C    0.022992
     4  C   -0.149587
     5  C    0.320656
     6  C   -0.240075
     7  C    0.184031
     8  C   -0.385353
     9  C    0.502088
    10  C   -0.316132
    11  C   -0.572222
    12  S   -0.238315
    13  S   -0.056321
    14  S   -0.233420
    15  S   -0.261037
    16  C   -0.451526
    17  H    0.146109
    18  H    0.145763
    19  H    0.146300
    20  H    0.181088
    21  H    0.059033
    22  H    0.095586
    23  H    0.171061
    24  H    0.153685
    25  H    0.171910
    26  H    0.234097
    27  H    0.235121
    28  H    0.162499
    29  H    0.215214
    30  H    0.110259
    31  H    0.148591
    32  H    0.144895
 Sum of Mulliken charges =  -0.00000
 Mulliken charges with hydrogens summed into heavy atoms:
               1
     1  C    0.010073
     2  S   -0.218888
     3  C    0.022992
     4  C    0.031501
     5  C    0.379688
     6  C   -0.144489
     7  C    0.355093
     8  C   -0.231669
     9  C    0.502088
    10  C   -0.144222
    11  C   -0.103004
    12  S   -0.238315
    13  S   -0.056321
    14  S   -0.070921
    15  S   -0.045824
    16  C   -0.047781
 Electronic spatial extent (au):  <R**2>=          17300.1936
 Charge=             -0.0000 electrons
 Dipole moment (field-independent basis, Debye):
    X=              7.2965    Y=             -0.0937    Z=              0.0157  Tot=              7.2971
 Quadrupole moment (field-independent basis, Debye-Ang):
   XX=           -138.1853   YY=           -132.3345   ZZ=           -141.7436
   XY=              0.0251   XZ=              0.5328   YZ=             -0.3651
 Traceless Quadrupole moment (field-independent basis, Debye-Ang):
   XX=             -0.7642   YY=              5.0867   ZZ=             -4.3225
   XY=              0.0251   XZ=              0.5328   YZ=             -0.3651
 Octapole moment (field-independent basis, Debye-Ang**2):
  XXX=            326.4295  YYY=            -23.4031  ZZZ=             -0.0067  XYY=             24.2465
  XXY=            148.1863  XXZ=             -0.2065  XZZ=             -0.5889  YZZ=             -2.7402
  YYZ=             -0.6160  XYZ=              1.1677
 Hexadecapole moment (field-independent basis, Debye-Ang**3):
 XXXX=         -19676.4340 YYYY=          -1058.3331 ZZZZ=           -193.8528 XXXY=            -11.4976
 XXXZ=             34.2542 YYYX=              1.8413 YYYZ=             -1.4407 ZZZX=              0.7227
 ZZZY=             -0.4941 XXYY=          -3955.7431 XXZZ=          -4072.6535 YYZZ=           -226.1733
 XXYZ=            -11.8633 YYXZ=              6.3076 ZZXY=            -13.1848
 N-N= 1.443170625057D+03 E-N=-8.608664179937D+03  KE= 2.411714431309D+03
 PrsmSu:  requested number of processors reduced to:  13 ShMem   1 Linda.
 Calling FoFJK, ICntrl=      2127 FMM=F ISym2X=0 I1Cent= 0 IOpClX= 0 NMat=1 NMatS=1 NMatT=0.
 ***** Axes restored to original set *****
 -------------------------------------------------------------------
 Center     Atomic                   Forces (Hartrees/Bohr)
 Number     Number              X              Y              Z
 -------------------------------------------------------------------
      1        6          -0.003545463   -0.003705665    0.009221263
      2       16          -0.049454345   -0.020414089    0.050599235
      3        6          -0.165140302    0.012941171   -0.026938811
      4        6          -0.030649861   -0.022841309    0.050538405
      5        6           0.021956402   -0.013261324    0.024602387
      6        6           0.082590410   -0.009847258    0.022177193
      7        6          -0.013665873   -0.027413720    0.067259593
      8        6           0.057455207    0.004278888   -0.008332487
      9        6           0.107099039   -0.013066709    0.029187158
     10        6          -0.022085688    0.012672467   -0.039793512
     11        6           0.077557290    0.052074938   -0.131522095
     12       16           0.013752172    0.014415741   -0.031656081
     13       16           0.013610579   -0.002587450    0.012522682
     14       16          -0.010945876    0.005336629   -0.009371127
     15       16          -0.041564102    0.022335862   -0.043975411
     16        6          -0.142730807   -0.027397939    0.073241238
     17        1           0.035439073    0.008245026   -0.018859709
     18        1          -0.003874862    0.004786715   -0.008150476
     19        1          -0.004425752    0.002718272   -0.008924304
     20        1          -0.021546560   -0.013635363    0.034811003
     21        1          -0.052774040    0.028748969   -0.069558068
     22        1           0.082926900   -0.021843473    0.058098433
     23        1           0.005694865    0.001625921   -0.005393138
     24        1           0.016127790    0.005151994   -0.012618913
     25        1          -0.050221279    0.047561916   -0.114773378
     26        1          -0.032988670   -0.036389287    0.039179530
     27        1          -0.034835045    0.000157047    0.049982893
     28        1          -0.029617825   -0.014057297    0.026841284
     29        1           0.033470463   -0.004000133    0.016322658
     30        1           0.007567855    0.004808565   -0.015112482
     31        1           0.077047202   -0.000667826   -0.010015638
     32        1           0.077771102    0.003268721   -0.009589325
 -------------------------------------------------------------------
 Cartesian Forces:  Max     0.165140302 RMS     0.044880883

 GradGradGradGradGradGradGradGradGradGradGradGradGradGradGradGradGradGrad
 Berny optimization.
 FormGI is forming the generalized inverse of G from B-inverse, IUseBI=4.
 Internal  Forces:  Max     0.267279067 RMS     0.059385969
 Search for a local minimum.
 Step number   1 out of a maximum of  156
 All quantities printed in internal units (Hartrees-Bohrs-Radians)
 Mixed Optimization -- RFO/linear search
 Second derivative matrix not updated -- first step.
 ITU=  0
     Eigenvalues ---    0.00230   0.00230   0.00230   0.00230   0.00230
     Eigenvalues ---    0.00245   0.01321   0.01394   0.01639   0.02493
     Eigenvalues ---    0.02504   0.02528   0.02664   0.02887   0.02925
     Eigenvalues ---    0.02941   0.03034   0.03225   0.03442   0.03584
     Eigenvalues ---    0.03649   0.03747   0.03865   0.03870   0.03974
     Eigenvalues ---    0.04239   0.05327   0.05460   0.05762   0.06274
     Eigenvalues ---    0.06768   0.06887   0.07281   0.07808   0.09219
     Eigenvalues ---    0.09290   0.09622   0.10247   0.10442   0.10768
     Eigenvalues ---    0.10973   0.12257   0.13433   0.13942   0.14259
     Eigenvalues ---    0.14600   0.14981   0.15016   0.15999   0.16000
     Eigenvalues ---    0.16000   0.16000   0.16000   0.16000   0.16000
     Eigenvalues ---    0.16000   0.16000   0.16144   0.16240   0.18158
     Eigenvalues ---    0.18579   0.18739   0.19437   0.20807   0.22000
     Eigenvalues ---    0.22000   0.22000   0.22004   0.23131   0.24266
     Eigenvalues ---    0.24995   0.24997   0.25000   0.28244   0.33348
     Eigenvalues ---    0.35212   0.35230   0.37432   0.38864   0.39747
     Eigenvalues ---    0.51078   0.51175   0.51239   0.53664   0.55186
     Eigenvalues ---    0.62517   0.63422   0.76216   0.77814   0.88048
 RFO step:  Lambda=-5.53480439D-01 EMin= 2.30000000D-03
 Linear search not attempted -- first point.
 Maximum step size (   0.300) exceeded in Quadratic search.
    -- Step size scaled by   0.377
 Iteration  1 RMS(Cart)=  0.31347025 RMS(Int)=  0.00765103
 Iteration  2 RMS(Cart)=  0.03379880 RMS(Int)=  0.00010779
 Iteration  3 RMS(Cart)=  0.00031935 RMS(Int)=  0.00005899
 Iteration  4 RMS(Cart)=  0.00000003 RMS(Int)=  0.00005899
 Variable       Old X    -DE/DX   Delta X   Delta X   Delta X     New X
                                 (Linear)    (Quad)   (Total)
    R1        3.72402  -0.03207   0.00000  -0.01689  -0.01689   3.70712
    R2        2.18308  -0.03001   0.00000  -0.01354  -0.01354   2.16954
    R3        2.05332   0.00366   0.00000   0.00152   0.00152   2.05485
    R4        2.05303   0.00432   0.00000   0.00180   0.00180   2.05483
    R5        4.14889   0.03424   0.00000   0.02119   0.02125   4.17013
    R6        3.87370  -0.04083   0.00000  -0.02539  -0.02547   3.84823
    R7        2.48343   0.11176   0.00000   0.03573   0.03566   2.51908
    R8        2.39348   0.21713   0.00000   0.06238   0.06241   2.45589
    R9        1.98599   0.02662   0.00000   0.01056   0.01056   1.99655
   R10        2.33846   0.26728   0.00000   0.07030   0.07030   2.40875
   R11        1.80822   0.10977   0.00000   0.03733   0.03742   1.84564
   R12        2.48331   0.14953   0.00000   0.04748   0.04748   2.53079
   R13        1.85398   0.10120   0.00000   0.03583   0.03583   1.88981
   R14        2.39116   0.18709   0.00000   0.05299   0.05299   2.44415
   R15        1.99827  -0.00226   0.00000  -0.00091  -0.00091   1.99737
   R16        2.58793   0.15753   0.00000   0.05582   0.05582   2.64375
   R17        2.01900   0.00653   0.00000   0.00265   0.00265   2.02165
   R18        2.56339   0.10841   0.00000   0.03751   0.03751   2.60089
   R19        2.58636   0.03813   0.00000   0.01349   0.01349   2.59985
   R20        2.08445   0.07374   0.00000   0.03136   0.03136   2.11581
   R21        2.60415  -0.05873   0.00000  -0.03156  -0.03152   2.57264
   R22        2.61155  -0.05891   0.00000  -0.03178  -0.03174   2.57981
   R23        5.01597  -0.04181   0.00000  -0.02538  -0.02538   4.99059
   R24        3.80162  -0.00803   0.00000  -0.00481  -0.00484   3.79678
   R25        3.79587  -0.00640   0.00000  -0.00383  -0.00386   3.79201
   R26        4.72742  -0.04261   0.00000  -0.02489  -0.02489   4.70253
   R27        2.75942  -0.03875   0.00000  -0.01972  -0.01972   2.73970
   R28        3.20243   0.02668   0.00000   0.01513   0.01522   3.21765
   R29        2.94433  -0.01738   0.00000  -0.01037  -0.01033   2.93400
   R30        3.01302   0.02806   0.00000   0.01519   0.01513   3.02815
   R31        2.69726  -0.02054   0.00000  -0.01232  -0.01253   2.68472
   R32        2.61641  -0.04939   0.00000  -0.02679  -0.02669   2.58972
   R33        2.66766  -0.05256   0.00000  -0.02882  -0.02869   2.63897
   R34        2.70282  -0.00998   0.00000  -0.00582  -0.00586   2.69697
   R35        2.68414  -0.01126   0.00000  -0.00664  -0.00668   2.67746
    A1        2.20962  -0.04321   0.00000  -0.02283  -0.02282   2.18680
    A2        1.86474   0.00749   0.00000   0.00396   0.00396   1.86870
    A3        1.86120   0.00781   0.00000   0.00412   0.00412   1.86532
    A4        1.77039   0.01746   0.00000   0.00924   0.00925   1.77964
    A5        1.77051   0.01682   0.00000   0.00890   0.00890   1.77941
    A6        1.99224  -0.00749   0.00000  -0.00398  -0.00399   1.98825
    A7        2.39533  -0.05578   0.00000  -0.02577  -0.02589   2.36944
    A8        1.26381   0.03298   0.00000   0.01698   0.01709   1.28090
    A9        1.13154  -0.08876   0.00000  -0.04275  -0.04299   1.08855
   A10        1.41653   0.00364   0.00000  -0.00024  -0.00017   1.41636
   A11        1.67056   0.14508   0.00000   0.07401   0.07404   1.74460
   A12        2.58949  -0.10623   0.00000  -0.05482  -0.05483   2.53466
   A13        2.02311  -0.03884   0.00000  -0.01919  -0.01920   2.00390
   A14        2.53602  -0.05145   0.00000  -0.02652  -0.02661   2.50941
   A15        2.01769  -0.05282   0.00000  -0.02592  -0.02576   1.99193
   A16        1.72947   0.10428   0.00000   0.05245   0.05237   1.78184
   A17        1.93504   0.10243   0.00000   0.04994   0.04994   1.98498
   A18        2.05516  -0.03079   0.00000  -0.01417  -0.01417   2.04099
   A19        2.29298  -0.07164   0.00000  -0.03577  -0.03577   2.25721
   A20        2.18140   0.01749   0.00000   0.00853   0.00853   2.18992
   A21        1.94233  -0.00108   0.00000  -0.00021  -0.00021   1.94212
   A22        2.15946  -0.01640   0.00000  -0.00831  -0.00831   2.15115
   A23        1.66976   0.20447   0.00000   0.09970   0.09970   1.76946
   A24        2.11061  -0.08195   0.00000  -0.03913  -0.03913   2.07149
   A25        2.50280  -0.12252   0.00000  -0.06057  -0.06057   2.44223
   A26        2.17881   0.07216   0.00000   0.03387   0.03387   2.21268
   A27        2.18255  -0.00614   0.00000  -0.00288  -0.00288   2.17967
   A28        1.92155  -0.06601   0.00000  -0.03099  -0.03099   1.89056
   A29        1.19756   0.23323   0.00000   0.12328   0.12328   1.32085
   A30        2.47063  -0.01684   0.00000  -0.00899  -0.00902   2.46161
   A31        2.46070  -0.01503   0.00000  -0.00802  -0.00805   2.45264
   A32        1.32509   0.03131   0.00000   0.01662   0.01669   1.34178
   A33        1.92874   0.00994   0.00000   0.00529   0.00532   1.93406
   A34        1.93035   0.00693   0.00000   0.00337   0.00340   1.93375
   A35        0.87193  -0.00055   0.00000  -0.00033  -0.00042   0.87151
   A36        2.33619  -0.02171   0.00000  -0.01019  -0.01019   2.32600
   A37        2.05648  -0.04662   0.00000  -0.02464  -0.02464   2.03184
   A38        2.40976  -0.03402   0.00000  -0.01969  -0.01953   2.39023
   A39        2.03879  -0.02009   0.00000  -0.01027  -0.01017   2.02862
   A40        2.00243  -0.02744   0.00000  -0.01403  -0.01393   1.98851
   A41        1.23717   0.05357   0.00000   0.02925   0.02935   1.26652
   A42        2.79605  -0.07790   0.00000  -0.03465  -0.03442   2.76163
   A43        1.64107  -0.01259   0.00000  -0.00624  -0.00621   1.63487
   A44        1.64124  -0.01314   0.00000  -0.00654  -0.00651   1.63473
   A45        1.79956   0.07657   0.00000   0.03203   0.03194   1.83150
   A46        2.06439   0.01520   0.00000   0.00690   0.00679   2.07118
   A47        2.51076  -0.01835   0.00000  -0.01063  -0.01058   2.50018
   A48        2.51102  -0.01812   0.00000  -0.01003  -0.01002   2.50100
   A49        1.21022   0.03080   0.00000   0.01704   0.01686   1.22709
   A50        3.22426   0.01874   0.00000   0.00910   0.00903   3.23329
   A51        3.09597  -0.00526   0.00000  -0.00257  -0.00255   3.09342
    D1        3.13679   0.00029   0.00000   0.00030   0.00032   3.13711
    D2       -3.14108   0.00013   0.00000  -0.00003  -0.00004  -3.14113
    D3        1.06207  -0.00011   0.00000   0.00006   0.00008   1.06215
    D4        1.06738  -0.00027   0.00000  -0.00028  -0.00028   1.06710
    D5       -1.07507   0.00034   0.00000   0.00033   0.00033  -1.07474
    D6       -1.06976   0.00018   0.00000  -0.00001  -0.00003  -1.06979
    D7       -3.13734  -0.00053   0.00000   0.00009   0.00011  -3.13723
    D8        3.14025  -0.00066   0.00000   0.00030   0.00035   3.14060
    D9       -3.11422  -0.00187   0.00000  -0.00123  -0.00121  -3.11543
   D10       -1.83215  -0.01038   0.00000  -0.00711  -0.00717  -1.83932
   D11        1.84300   0.00944   0.00000   0.00627   0.00633   1.84933
   D12        0.02339  -0.00216   0.00000  -0.00117  -0.00113   0.02226
   D13        1.30546  -0.01067   0.00000  -0.00705  -0.00709   1.29837
   D14       -1.30257   0.00915   0.00000   0.00633   0.00642  -1.29616
   D15       -3.14055   0.00030   0.00000   0.00038   0.00036  -3.14019
   D16        0.00951  -0.00249   0.00000  -0.00119  -0.00112   0.00839
   D17       -3.14124  -0.00280   0.00000  -0.00155  -0.00154   3.14041
   D18       -0.00380  -0.00152   0.00000  -0.00044  -0.00042  -0.00422
   D19       -0.00459  -0.00193   0.00000  -0.00103  -0.00099  -0.00558
   D20        3.13285  -0.00065   0.00000   0.00008   0.00013   3.13298
   D21       -3.13879  -0.00195   0.00000  -0.00109  -0.00107  -3.13986
   D22        0.00215  -0.00242   0.00000  -0.00138  -0.00137   0.00079
   D23        0.00659  -0.00296   0.00000  -0.00202  -0.00203   0.00456
   D24       -3.13565  -0.00342   0.00000  -0.00232  -0.00233  -3.13798
   D25        0.16333  -0.00245   0.00000  -0.00151  -0.00148   0.16184
   D26       -2.98066  -0.00193   0.00000  -0.00098  -0.00092  -2.98158
   D27        3.14117  -0.00200   0.00000  -0.00129  -0.00128   3.13989
   D28       -0.00075  -0.00178   0.00000  -0.00115  -0.00114  -0.00189
   D29        0.00034  -0.00149   0.00000  -0.00096  -0.00096  -0.00062
   D30       -3.14158  -0.00127   0.00000  -0.00082  -0.00082   3.14079
   D31        3.13973   0.00001   0.00000   0.00003   0.00006   3.13979
   D32        0.00182  -0.00136   0.00000  -0.00089  -0.00091   0.00090
   D33       -0.00150  -0.00023   0.00000  -0.00013  -0.00010  -0.00160
   D34       -3.13941  -0.00161   0.00000  -0.00105  -0.00107  -3.14048
   D35       -0.03166  -0.00375   0.00000  -0.00234  -0.00232  -0.03399
   D36        3.13763  -0.00305   0.00000  -0.00204  -0.00202   3.13561
   D37        3.10464  -0.00116   0.00000  -0.00071  -0.00072   3.10392
   D38       -0.00926  -0.00046   0.00000  -0.00040  -0.00042  -0.00968
   D39        3.13258  -0.00005   0.00000  -0.00006  -0.00005   3.13253
   D40       -0.03316  -0.00018   0.00000  -0.00010  -0.00010  -0.03326
   D41       -1.38253  -0.00011   0.00000   0.00026   0.00024  -1.38229
   D42        1.39217   0.00194   0.00000   0.00073   0.00076   1.39293
   D43        1.78326  -0.00130   0.00000  -0.00031  -0.00034   1.78292
   D44       -1.72522   0.00075   0.00000   0.00015   0.00018  -1.72504
   D45        1.97032  -0.00476   0.00000  -0.00253  -0.00257   1.96774
   D46       -0.93632  -0.00348   0.00000  -0.00145  -0.00150  -0.93782
   D47       -1.97119   0.00475   0.00000   0.00248   0.00252  -1.96867
   D48        0.93840   0.00286   0.00000   0.00108   0.00112   0.93953
   D49        2.67317   0.00014   0.00000   0.00033   0.00038   2.67355
   D50       -2.67425   0.00275   0.00000   0.00162   0.00158  -2.67267
   D51        2.52634  -0.00860   0.00000  -0.00534  -0.00538   2.52097
   D52        0.77825  -0.00985   0.00000  -0.00557  -0.00560   0.77265
   D53       -2.52015   0.00223   0.00000   0.00122   0.00125  -2.51890
   D54       -0.77548   0.00983   0.00000   0.00551   0.00554  -0.76993
   D55        3.14024  -0.00713   0.00000  -0.00484  -0.00484   3.13540
   D56       -0.28269   0.00126   0.00000   0.00061   0.00065  -0.28204
   D57        0.11872   0.00529   0.00000   0.00241   0.00244   0.12116
[...]
    D5       -1.10813  -0.00040  -0.00904  -0.00954  -0.00306  -1.11119
    D6       -1.05988   0.00198   0.00462   0.01545   0.00313  -1.05675
    D7        3.04750  -0.00491  -0.02592  -0.04135  -0.01050   3.03700
    D8        2.97846  -0.01078  -0.04598  -0.08286  -0.02057   2.95789
    D9       -3.05559   0.00062   0.02549   0.00456   0.00449  -3.05110
   D10       -2.15479  -0.00004  -0.02602   0.03155   0.00082  -2.15397
   D11        2.36403   0.00147   0.07739  -0.03242   0.00708   2.37112
   D12        0.03286  -0.00449   0.01002  -0.02807  -0.00339   0.02947
   D13        0.93366  -0.00515  -0.04149  -0.00108  -0.00706   0.92659
   D14       -0.83070  -0.00364   0.06192  -0.06505  -0.00080  -0.83150
   D15        2.92320  -0.00331  -0.05250  -0.00561  -0.00938   2.91382
   D16       -0.18542  -0.00584  -0.05120  -0.00747  -0.00940  -0.19482
   D17        3.10720  -0.00396  -0.00533   0.00716   0.00033   3.10753
   D18       -0.05313  -0.00391  -0.00510   0.00996   0.00080  -0.05233
   D19       -0.06591  -0.00168  -0.00666   0.00925   0.00038  -0.06552
   D20        3.05694  -0.00164  -0.00644   0.01205   0.00085   3.05780
   D21       -3.13867  -0.00029  -0.00132  -0.00142  -0.00045  -3.13912
   D22       -0.00080  -0.00021  -0.00170   0.00032  -0.00023  -0.00103
   D23        0.02383  -0.00021  -0.00148  -0.00528  -0.00108   0.02275
   D24       -3.12148  -0.00014  -0.00185  -0.00354  -0.00086  -3.12234
   D25        0.15097  -0.00579   0.00169   0.01932   0.00320   0.15417
   D26       -3.00950  -0.00559   0.00152   0.02290   0.00373  -3.00578
   D27        3.13690   0.00002  -0.00008   0.00094   0.00014   3.13704
   D28       -0.00355   0.00002  -0.00007   0.00097   0.00014  -0.00341
   D29       -0.00109  -0.00004   0.00025  -0.00070  -0.00007  -0.00117
   D30       -3.14154  -0.00005   0.00026  -0.00067  -0.00007   3.14157
   D31       -3.13957  -0.00003   0.00045   0.00019   0.00011  -3.13946
   D32        0.00231  -0.00003   0.00069  -0.00007   0.00010   0.00241
   D33        0.00089  -0.00003   0.00045   0.00015   0.00011   0.00100
   D34       -3.14042  -0.00003   0.00068  -0.00011   0.00010  -3.14032
   D35       -0.01410   0.00002   0.00490  -0.00023   0.00074  -0.01336
   D36        3.12805   0.00020   0.00079   0.00189   0.00036   3.12841
   D37        3.12723   0.00002   0.00468   0.00001   0.00074   3.12797
   D38       -0.01381   0.00020   0.00057   0.00213   0.00037  -0.01344
   D39        3.13366   0.00004  -0.00064   0.00094  -0.81360   2.32006
   D40       -0.00826  -0.00006   0.00192  -0.00031  -0.81338  -0.82164
   D41       -1.39638   0.00309   0.00165   0.03020   0.00508  -1.39130
   D42        1.39007  -0.00269  -0.00265  -0.02576  -0.00442   1.38565
   D43        1.74557   0.00320  -0.00114   0.03156   0.00484   1.75041
   D44       -1.75116  -0.00258  -0.00544  -0.02440  -0.00467  -1.75582
   D45        2.01736  -0.00098   0.01567  -0.03433  -0.00295   2.01442
   D46       -0.77720   0.00255   0.03825   0.01526   0.00887  -0.76833
   D47       -2.01646   0.00093  -0.01540   0.03427   0.00298  -2.01348
   D48        0.77753  -0.00252  -0.03798  -0.01509  -0.00880   0.76873
   D49        2.64570  -0.00111  -0.01279  -0.01700  -0.00532   2.64038
   D50       -2.60788   0.00114   0.01881   0.01635   0.00622  -2.60166
   D51        2.32958   0.00297  -0.00837   0.02445   0.00291   2.33248
   D52        0.39897   0.00168  -0.04413   0.00167  -0.00656   0.39241
   D53       -2.36921  -0.00306   0.00290  -0.02509  -0.00402  -2.37322
   D54       -0.39887  -0.00169   0.04409  -0.00176   0.00656  -0.39231
   D55        3.08532   0.00014   0.00058   0.00011   0.00011   3.08543
   D56       -0.22794   0.00063   0.01399   0.00295   0.00325  -0.22469
   D57        0.04673   0.00237  -0.04074  -0.00602  -0.00792   0.03881
   D58       -1.95387  -0.01291   0.03548  -0.04024   0.00051  -1.95336
   D59        1.96611   0.01167  -0.01935   0.04233   0.00231   1.96842
   D60       -0.13207  -0.00042  -0.02668  -0.03443  -0.01060  -0.14267
         Item               Value     Threshold  Converged?
 Maximum Force            0.084928     0.000450     NO 
 RMS     Force            0.012466     0.000300     NO 
 Maximum Displacement     0.143018     0.001800     NO 
 RMS     Displacement     0.033225     0.001200     NO 
 Predicted change in Energy=-5.812303D-03
 GradGradGradGradGradGradGradGradGradGradGradGradGradGradGradGradGradGrad

                          Input orientation:                          
 ---------------------------------------------------------------------
 Center     Atomic      Atomic             Coordinates (Angstroms)
 Number     Number       Type             X           Y           Z
 ---------------------------------------------------------------------
      1          6           0        3.327880   -0.755933    1.301670
      2         16           0        4.105137   -0.112079   -0.196087
      3          6           0        2.744182    1.384962   -2.787555
      4          6           0        4.061610    1.462502   -3.008912
      5          6           0        4.577406    1.851203   -4.315942
      6          6           0        5.895063    1.983550   -4.587596
      7          6           0        6.422455    2.365974   -5.859705
      8          6           0        7.743692    2.497026   -6.107397
      9          6           0        8.299512    2.876351   -7.354612
     10          6           0        7.983522    3.196383   -8.572735
     11          6           0        9.483034    3.151447   -8.094732
     12         16           0       12.132967    2.987469   -6.920159
     13         16           0       14.071147    3.139782   -7.165366
     14         16           0       15.050768    2.671947   -5.338372
     15         16           0        1.600106    1.984690   -4.240881
     16          6           0        1.719245    1.069278   -1.672934
     17          1           0        4.158012   -1.193970    1.865052
     18          1           0        2.612723   -1.559525    1.099718
     19          1           0        2.855118    0.015693    1.915015
     20          1           0        4.784847    1.213745   -2.245578
     21          1           0        3.776289    2.007129   -5.062323
     22          1           0        6.634761    1.793709   -3.795063
     23          1           0        5.718204    2.566297   -6.683805
     24          1           0        8.478289    2.307551   -5.321126
     25          1           0        7.727788    3.455434   -9.558653
     26          1           0        9.963820    4.112204   -7.985987
     27          1           0       10.072943    2.331868   -8.478099
     28          1           0       16.288522    2.790474   -5.851197
     29          1           0        0.590537    1.778056   -3.349660
     30          1           0        2.170226    0.567611   -0.743879
     31          1           0        1.072838    0.331584   -2.145687
     32          1           0        1.278605    2.042066   -1.449544
 ---------------------------------------------------------------------
                    Distance matrix (angstroms):
                    1          2          3          4          5
     1  C    0.000000
     2  S    1.806088   0.000000
     3  C    4.652515   3.287710   0.000000
     4  C    4.903156   3.223846   1.338144   0.000000
     5  C    6.317914   4.588107   2.431884   1.457896   0.000000
     6  C    6.984171   5.184674   3.677839   2.474930   1.351861
     7  C    8.402856   6.602066   4.891848   3.810101   2.460162
     8  C    9.218211   7.415530   6.103534   4.922252   3.694829
     9  C   10.622703   8.818615   7.344653   6.232486   4.913096
    10  C   11.610327   9.805918   8.012505   7.024518   5.615284
    11  C   11.893104  10.097573   8.757781   7.622987   6.327327
    12  S   12.615114  10.920916  10.382472   9.097811   8.072146
    13  S   14.222696  12.588360  12.269668  10.967233   9.995537
    14  S   13.902037  12.409703  12.633885  11.298262  10.555107
    15  S    6.419976   5.199228   1.944412   2.801683   2.981236
    16  C    3.842833   3.044530   1.546782   2.725094   3.970641
    17  H    1.094712   2.328428   5.504231   5.551726   6.903163
    18  H    1.094529   2.449798   4.878338   5.302148   6.694956
    19  H    1.093208   2.456751   4.899119   5.271996   6.720134
    20  H    4.311074   2.533817   2.118341   1.080570   2.176187
    21  H    6.952409   5.317841   2.574277   2.143483   1.105978
    22  H    6.588841   4.794127   4.039648   2.710874   2.123048
    23  H    8.973219   7.201816   5.041936   4.179413   2.723885
    24  H    8.931577   7.158567   6.336413   5.056430   4.054076
    25  H   12.451563  10.654031   8.658576   7.766063   6.323328
    26  H   12.409474  10.623148   9.305091   8.162614   6.898899
    27  H   12.274945  10.496634   9.326825   8.173367   6.910536
    28  H   15.222311  13.741905  13.957454  12.622974  11.848606
    29  H    5.962299   5.086260   2.260237   3.502004   4.102948
    30  H    2.697443   2.122718   2.274665   3.083593   4.494637
    31  H    4.260537   3.632164   2.077256   3.310120   4.393319
    32  H    4.426907   3.768392   2.090449   3.242320   4.374329
                    6          7          8          9         10
     6  C    0.000000
     7  C    1.429214   0.000000
     8  C    2.447628   1.350626   0.000000
     9  C    3.772910   2.453278   1.417169   0.000000
    10  C    4.659824   3.238370   2.573813   1.298497   0.000000
    11  C    5.151459   3.870330   2.720860   1.422737   1.574497
    12  S    6.734995   5.841298   4.490752   3.859595   4.471302
    13  S    8.650441   7.797821   6.447412   5.780742   6.248445
    14  S    9.212193   8.649462   7.349515   7.048863   7.789872
    15  S    4.308928   5.101080   6.441274   7.441264   7.809043
    16  C    5.173838   6.428892   7.615568   8.879577   9.558923
    17  H    7.399368   8.801862   9.488967  10.895950  11.952285
    18  H    7.461413   8.851959   9.732675  11.112707  12.042446
    19  H    7.442961   8.871076   9.716700  11.124332  12.100009
    20  H    2.703743   4.131743   5.031423   6.420230   7.361745
    21  H    2.171434   2.786895   4.131884   5.144870   5.606972
    22  H    1.100592   2.152977   2.659186   4.076015   5.158760
    23  H    2.182880   1.102380   2.107047   2.685008   3.016079
    24  H    2.704829   2.126013   1.092591   2.119094   3.407019
    25  H    5.498794   4.070999   3.581894   2.349469   1.050972
    26  H    5.712707   4.484603   3.326691   2.167000   2.259332
    27  H    5.719443   4.492573   3.327600   2.168812   2.263188
    28  H   10.501039   9.875199   8.553706   8.129694   8.748975
    29  H    5.450936   6.376303   7.699977   8.756379   9.162336
    30  H    5.536556   6.891099   7.972044   9.305924  10.099299
    31  H    5.652058   6.822835   8.055096   9.264640   9.862635
    32  H    5.582336   6.783335   7.981223   9.211894   9.850290
                   11         12         13         14         15
    11  C    0.000000
    12  S    2.903215   0.000000
    13  S    4.681307   1.959558   0.000000
    14  S    6.231140   3.333942   2.125191   0.000000
    15  S    8.851782  10.914451  12.861326  13.512850   0.000000
    16  C   10.288408  11.817717  13.675645  13.918818   2.728832
    17  H   12.101066  12.580313  14.092555  13.619353   7.343649
    18  H   12.406948  13.252496  14.889278  14.630767   6.489134
    19  H   12.407952  13.151815  14.765248  14.436107   6.583848
    20  H    7.748564   8.887782  10.684067  10.820391   3.836426
    21  H    6.562920   8.616652  10.568340  11.297437   2.326164
    22  H    5.333223   6.435958   8.274702   8.601295   5.057962
    23  H    4.062889   6.432918   8.386444   9.429640   4.823367
    24  H    3.068316   4.046711   5.947596   6.582596   6.969976
    25  H    2.305723   5.156185   6.787169   8.488267   8.245621
    26  H    1.079831   2.665748   4.299902   5.912804   9.407648
    27  H    1.080126   2.664712   4.285047   5.895107   9.479637
    28  H    7.174847   4.295361   2.601117   1.345018  14.798377
    29  H   10.172434  12.142439  14.076248  14.623690   1.362425
    30  H   10.685898  11.969058  13.765300  13.836400   3.816042
    31  H   10.680551  12.335954  14.214049  14.527666   2.720406
    32  H   10.616115  12.191742  14.054349  14.324532   2.810377
                   16         17         18         19         20
    16  C    0.000000
    17  H    4.856667   0.000000
    18  H    3.923839   1.762749   0.000000
    19  H    3.908149   1.778571   1.790189   0.000000
    20  H    3.121972   4.804924   4.858000   4.740224   0.000000
    21  H    4.074181   7.640763   7.214268   7.314206   3.095270
    22  H    5.402826   6.862755   7.167974   7.074746   2.481822
    23  H    6.583431   9.468725   9.340752   9.415017   4.732695
    24  H    7.779929   9.086616   9.517688   9.446396   4.929190
    25  H   10.197102  12.839832  12.841907  12.931349   8.195555
    26  H   10.820677  12.605787  12.990658  12.858650   8.256822
    27  H   10.848441  12.425728  12.748820  12.863845   8.249756
    28  H   15.253991  14.918632  15.945696  15.762925  12.158170
    29  H    2.141905   6.982337   5.918247   5.995919   4.373749
    30  H    1.148128   3.723033   2.849449   2.800608   3.083640
    31  H    1.088821   5.285039   4.059581   4.445853   3.816700
    32  H    1.091047   5.454306   4.609780   4.232238   3.689650
                   21         22         23         24         25
    21  H    0.000000
    22  H    3.134065   0.000000
    23  H    2.590928   3.127587   0.000000
    24  H    4.718690   2.447753   3.088999   0.000000
    25  H    6.158646   6.097131   3.618528   4.453933   0.000000
    26  H    7.159937   5.832830   4.702209   3.544723   2.811488
    27  H    7.170833   5.834513   4.715740   3.536947   2.815981
    28  H   12.561526   9.920500  10.605429   7.843082   9.352731
    29  H    3.624183   6.060633   6.166912   8.147617   9.607577
    30  H    4.827070   5.544828   7.201778   7.985627  10.813245
    31  H    4.315421   5.982745   6.867887   8.296298  10.440252
    32  H    4.392245   5.852482   6.883483   8.178941  10.456922
                   26         27         28         29         30
    26  H    0.000000
    27  H    1.850319   0.000000
    28  H    6.804862   6.763458   0.000000
    29  H   10.714580  10.794611  15.928259   0.000000
    30  H   11.213937  11.197487  15.177355   3.278825   0.000000
    31  H   11.289453  11.184922  15.852255   1.942793   1.795839
    32  H   11.065420  11.261659  15.659894   2.038034   1.861980
                   31         32
    31  H    0.000000
    32  H    1.858146   0.000000
 Stoichiometry    C11H16S5
 Framework group  C1[X(C11H16S5)]
 Deg. of freedom    90
 Full point group                 C1      NOp   1
 Largest Abelian subgroup         C1      NOp   1
 Largest concise Abelian subgroup C1      NOp   1
                         Standard orientation:                         
 ---------------------------------------------------------------------
 Center     Atomic      Atomic             Coordinates (Angstroms)
 Number     Number       Type             X           Y           Z
 ---------------------------------------------------------------------
      1          6           0        6.680675   -3.873721    0.273252
      2         16           0        5.242879   -2.781000    0.247667
      3          6           0        5.089964    0.473574   -0.192106
      4          6           0        3.811786    0.078655   -0.161639
      5          6           0        2.733285    1.050171   -0.025799
      6          6           0        1.423732    0.714615   -0.027352
      7          6           0        0.350735    1.649893    0.101426
      8          6           0       -0.951704    1.292458    0.092170
      9          6           0       -2.038950    2.193119    0.214939
     10          6           0       -2.328177    3.449606    0.368834
     11          6           0       -3.452135    2.352972    0.254141
     12         16           0       -5.284399    0.114631    0.006568
     13         16           0       -7.138079   -0.520437   -0.014146
     14         16           0       -7.156005   -2.632567   -0.248713
     15         16           0        5.386732    2.394973   -0.221996
     16          6           0        6.526852   -0.081860   -0.331312
     17          1           0        6.259689   -4.862617    0.481221
     18          1           0        7.379043   -3.641225    1.083328
     19          1           0        7.216784   -3.912913   -0.678670
     20          1           0        3.535021   -0.964947   -0.205546
     21          1           0        3.103427    2.085147    0.096699
     22          1           0        1.133781   -0.341465   -0.136567
     23          1           0        0.594002    2.719265    0.213250
     24          1           0       -1.239816    0.244013   -0.015119
     25          1           0       -2.562292    4.466573    0.493370
     26          1           0       -4.010147    2.356127   -0.670331
     27          1           0       -3.987026    2.132683    1.166301
     28          1           0       -8.493244   -2.736580   -0.148478
     29          1           0        6.696165    2.052819   -0.378585
     30          1           0        6.608069   -1.220311   -0.206686
     31          1           0        7.038334    0.364606    0.519914
     32          1           0        6.833788    0.252338   -1.323524
 ---------------------------------------------------------------------
 Rotational constants (GHZ):           0.3858505           0.0604030           0.0524222
 Standard basis: 6-31G(2df,p) (6D, 7F)
 There are   596 symmetry adapted cartesian basis functions of A   symmetry.
 There are   548 symmetry adapted basis functions of A   symmetry.
   548 basis functions,   936 primitive gaussians,   596 cartesian basis functions
    81 alpha electrons       81 beta electrons
       nuclear repulsion energy      1358.8425300766 Hartrees.
 NAtoms=   32 NActive=   32 NUniq=   32 SFac= 1.00D+00 NAtFMM=   60 NAOKFM=F Big=F
 Integral buffers will be    131072 words long.
 Raffenetti 2 integral format.
 Two-electron integral symmetry is turned on.
 One-electron integrals computed using PRISM.
 PrsmSu:  requested number of processors reduced to:  12 ShMem   1 Linda.
 NBasis=   548 RedAO= T EigKep=  2.64D-04  NBF=   548
 NBsUse=   548 1.00D-06 EigRej= -1.00D+00 NBFU=   548
 Initial guess from the checkpoint file:  "CSC1dCCdCCdCCdCqCSSSr[SH]1C.chk"
 B after Tr=    -0.000000    0.000000    0.000000
         Rot=    1.000000    0.000035    0.000095    0.000977 Ang=   0.11 deg.
 ExpMin= 1.17D-01 ExpMax= 2.19D+04 ExpMxC= 3.30D+03 IAcc=2 IRadAn=         4 AccDes= 0.00D+00
 Harris functional with IExCor=  402 and IRadAn=       4 diagonalized for initial guess.
 HarFok:  IExCor=  402 AccDes= 0.00D+00 IRadAn=         4 IDoV= 1 UseB2=F ITyADJ=14
 ICtDFT=  3500011 ScaDFX=  1.000000  1.000000  1.000000  1.000000
 FoFCou: FMM=F IPFlag=           0 FMFlag=      100000 FMFlg1=           0
         NFxFlg=           0 DoJE=T BraDBF=F KetDBF=T FulRan=T
         wScrn=  0.000000 ICntrl=       500 IOpCl=  0 I1Cent=   200000004 NGrid=           0
         NMat0=    1 NMatS0=      1 NMatT0=    0 NMatD0=    1 NMtDS0=    0 NMtDT0=    0
 Petite list used in FoFCou.
 Requested convergence on RMS density matrix=1.00D-08 within 128 cycles.
 Requested convergence on MAX density matrix=1.00D-06.
 Requested convergence on             energy=1.00D-06.
 No special actions if energy rises.
 Integral accuracy reduced to 1.0D-05 until final iterations.
 EnCoef did     4 forward-backward iterations
 EnCoef did     2 forward-backward iterations
 Initial convergence to 1.0D-05 achieved.  Increase integral accuracy.
slurmstepd: error: *** JOB 27446582 ON lewis4-r630-hpc4-node672 CANCELLED AT 2023-05-16T16:29:59 DUE TO TIME LIMIT ***
