### Starting Gaussian ###
 Entering Gaussian System, Link 0=g16
 Initial command:
 /cluster/software/gaussian/gaussian-16-A.03/avx2/g16/l1.exe "/local/scratch/yxie/Gau-23577.inp" -scrdir="/local/scratch/yxie/"
 Entering Link 1 = /cluster/software/gaussian/gaussian-16-A.03/avx2/g16/l1.exe PID=     23578.
  
 Copyright (c) 1988,1990,1992,1993,1995,1998,2003,2009,2016,
            Gaussian, Inc.  All Rights Reserved.
  
 This is part of the Gaussian(R) 16 program.  It is based on
 the Gaussian(R) 09 system (copyright 2009, Gaussian, Inc.),
 the Gaussian(R) 03 system (copyright 2003, Gaussian, Inc.),
 the Gaussian(R) 98 system (copyright 1998, Gaussian, Inc.),
 the Gaussian(R) 94 system (copyright 1995, Gaussian, Inc.),
 the Gaussian 92(TM) system (copyright 1992, Gaussian, Inc.),
 the Gaussian 90(TM) system (copyright 1990, Gaussian, Inc.),
 the Gaussian 88(TM) system (copyright 1988, Gaussian, Inc.),
 the Gaussian 86(TM) system (copyright 1986, Carnegie Mellon
 University), and the Gaussian 82(TM) system (copyright 1983,
 Carnegie Mellon University). Gaussian is a federally registered
 trademark of Gaussian, Inc.
  
 This software contains proprietary and confidential information,
 including trade secrets, belonging to Gaussian, Inc.
  
 This software is provided under written license and may be
 used, copied, transmitted, or stored only in accord with that
 written license.
  
 The following legend is applicable only to US Government
 contracts under FAR:
  
                    RESTRICTED RIGHTS LEGEND
  
 Use, reproduction and disclosure by the US Government is
 subject to restrictions as set forth in subparagraphs (a)
 and (c) of the Commercial Computer Software - Restricted
 Rights clause in FAR 52.227-19.
  
 Gaussian, Inc.
 340 Quinnipiac St., Bldg. 40, Wallingford CT 06492
  
  
 ---------------------------------------------------------------
 Warning -- This program may not be used in any manner that
 competes with the business of Gaussian, Inc. or will provide
 assistance to any competitor of Gaussian, Inc.  The licensee
 of this program is prohibited from giving any competitor of
 Gaussian, Inc. access to this program.  By using this program,
 the user acknowledges that Gaussian, Inc. is engaged in the
 business of creating and licensing software in the field of
 computational chemistry and represents and warrants to the
 licensee that it is not a competitor of Gaussian, Inc. and that
 it will not use this program in any manner prohibited above.
 ---------------------------------------------------------------
  

 Cite this work as:
 Gaussian 16, Revision A.03,
 M. J. Frisch, G. W. Trucks, H. B. Schlegel, G. E. Scuseria, 
 M. A. Robb, J. R. Cheeseman, G. Scalmani, V. Barone, 
 G. A. Petersson, H. Nakatsuji, X. Li, M. Caricato, A. V. Marenich, 
 J. Bloino, B. G. Janesko, R. Gomperts, B. Mennucci, H. P. Hratchian, 
 J. V. Ortiz, A. F. Izmaylov, J. L. Sonnenberg, D. Williams-Young, 
 F. Ding, F. Lipparini, F. Egidi, J. Goings, B. Peng, A. Petrone, 
 T. Henderson, D. Ranasinghe, V. G. Zakrzewski, J. Gao, N. Rega, 
 G. Zheng, W. Liang, M. Hada, M. Ehara, K. Toyota, R. Fukuda, 
 J. Hasegawa, M. Ishida, T. Nakajima, Y. Honda, O. Kitao, H. Nakai, 
 T. Vreven, K. Throssell, J. A. Montgomery, Jr., J. E. Peralta, 
 F. Ogliaro, M. J. Bearpark, J. J. Heyd, E. N. Brothers, K. N. Kudin, 
 V. N. Staroverov, T. A. Keith, R. Kobayashi, J. Normand, 
 K. Raghavachari, A. P. Rendell, J. C. Burant, S. S. Iyengar, 
 J. Tomasi, M. Cossi, J. M. Millam, M. Klene, C. Adamo, R. Cammi, 
 J. W. Ochterski, R. L. Martin, K. Morokuma, O. Farkas, 
 J. B. Foresman, and D. J. Fox, Gaussian, Inc., Wallingford CT, 2016.
 
 ******************************************
 Gaussian 16:  ES64L-G16RevA.03 25-Dec-2016
                17-May-2023 
 ******************************************
 %chk=CSC1dCCdCCdCNdC[C]qCSr[C]1N.chk
 %NProcShared=20
 Will use up to   20 processors via shared memory.
 -----------------------------
 # opt freq b3lyp/6-31g(2df,p)
 -----------------------------
 1/18=20,19=15,26=3,38=1/1,3;
 2/9=110,12=2,17=6,18=5,40=1/2;
 3/5=1,6=6,7=104,11=2,25=1,30=1,71=1,74=-5/1,2,3;
 4//1;
 5/5=2,38=5/2;
 6/7=2,8=2,9=2,10=2,28=1/1;
 7//1,2,3,16;
 1/18=20,19=15,26=3/3(2);
 2/9=110/2;
 99//99;
 2/9=110/2;
 3/5=1,6=6,7=104,11=2,25=1,30=1,71=1,74=-5/1,2,3;
 4/5=5,16=3,69=1/1;
 5/5=2,38=5/2;
 7//1,2,3,16;
 1/18=20,19=15,26=3/3(-5);
 2/9=110/2;
 6/7=2,8=2,9=2,10=2,19=2,28=1/1;
 99/9=1/99;
 -------------------
 Title Card Required
 -------------------
 Symbolic Z-matrix:
 Charge =  0 Multiplicity = 1
 C                     1.14415   0.01634   0.08851 
 S                     3.22622  -0.56526   0.8622 
 C                     4.20672  -1.84268   2.63342 
 C                     4.95421  -1.07546   1.59109 
 C                     5.80164  -1.56459   2.29729 
 C                     6.91048  -1.83188   2.67229 
 C                     7.32805  -2.49644   3.69492 
 C                     8.54798  -2.73618   4.00204 
 N                     8.18129  -3.62752   5.44023 
 C                     9.48865  -3.71263   5.20078 
 C                     7.46213  -3.87695   5.06123 
 C                     9.63135  -4.2587    5.98701 
 S                     11.46058  -5.1899    7.47179 
 C                     5.28205  -3.10714   4.07414 
 N                     3.42491  -2.46307   3.17114 
 H                     0.75553   0.66954  -0.82452 
 H                     0.67965   0.51063   0.9314 
 H                     0.67669  -0.93728  -0.12035 
 H                     5.40054  -0.49743   0.8127 
 H                     5.73543  -2.04344   3.08206 
 H                     7.5482   -1.4406    2.11285 
 H                     6.47634  -2.95343   4.71788 
 H                     9.41216  -2.44013   3.51072 
 H                     10.76608  -3.35255   4.75466 
 H                     11.15915  -3.79682   6.4338 
 H                     11.16706  -4.78581   5.73734 
 H                     12.29244  -5.21644   9.08499 
 H                     1.97393  -2.06318   2.96714 
 H                     2.4405   -2.008     2.0801 
 
 Add virtual bond connecting atoms H29        and H28        Dist= 1.90D+00.
 Add virtual bond connecting atoms H26        and H25        Dist= 2.29D+00.
 Add virtual bond connecting atoms H22        and C14        Dist= 2.58D+00.
 Add virtual bond connecting atoms C14        and H20        Dist= 2.88D+00.
 Add virtual bond connecting atoms H22        and C7         Dist= 2.66D+00.
 Add virtual bond connecting atoms H22        and C11        Dist= 2.63D+00.
 Add virtual bond connecting atoms H24        and C10        Dist= 2.65D+00.
 Add virtual bond connecting atoms H28        and N15        Dist= 2.87D+00.
 Add virtual bond connecting atoms H29        and N15        Dist= 2.91D+00.
 Add virtual bond connecting atoms H25        and C12        Dist= 3.13D+00.
 Add virtual bond connecting atoms H25        and H24        Dist= 3.37D+00.
 Add virtual bond connecting atoms H26        and C12        Dist= 3.10D+00.
 Add virtual bond connecting atoms H26        and H24        Dist= 3.37D+00.
 Add virtual bond connecting atoms H25        and S13        Dist= 3.33D+00.
 Add virtual bond connecting atoms H26        and S13        Dist= 3.41D+00.
 Add virtual bond connecting atoms H27        and S13        Dist= 3.43D+00.
 Add virtual bond connecting atoms S2         and C1         Dist= 4.34D+00.

 GradGradGradGradGradGradGradGradGradGradGradGradGradGradGradGradGradGrad
 Berny optimization.
 Initialization pass.
                           ----------------------------
                           !    Initial Parameters    !
                           ! (Angstroms and Degrees)  !
 --------------------------                            --------------------------
 ! Name  Definition              Value          Derivative Info.                !
 --------------------------------------------------------------------------------
 ! R1    R(1,2)                  2.2961         estimate D2E/DX2                !
 ! R2    R(1,16)                 1.188          estimate D2E/DX2                !
 ! R3    R(1,17)                 1.0819         estimate D2E/DX2                !
 ! R4    R(1,18)                 1.0824         estimate D2E/DX2                !
 ! R5    R(2,4)                  1.9436         estimate D2E/DX2                !
 ! R6    R(3,4)                  1.4946         estimate D2E/DX2                !
 ! R7    R(3,5)                  1.6535         estimate D2E/DX2                !
 ! R8    R(3,15)                 1.1337         estimate D2E/DX2                !
 ! R9    R(4,5)                  1.2067         estimate D2E/DX2                !
 ! R10   R(4,19)                 1.0673         estimate D2E/DX2                !
 ! R11   R(5,6)                  1.2007         estimate D2E/DX2                !
 ! R12   R(5,20)                 0.9217         estimate D2E/DX2                !
 ! R13   R(6,7)                  1.2891         estimate D2E/DX2                !
 ! R14   R(6,20)                 1.2623         estimate D2E/DX2                !
 ! R15   R(6,21)                 0.9342         estimate D2E/DX2                !
 ! R16   R(7,8)                  1.2806         estimate D2E/DX2                !
 ! R17   R(7,22)                 1.4074         estimate D2E/DX2                !
 ! R18   R(8,9)                  1.7313         estimate D2E/DX2                !
 ! R19   R(8,10)                 1.8098         estimate D2E/DX2                !
 ! R20   R(8,23)                 1.0372         estimate D2E/DX2                !
 ! R21   R(9,10)                 1.3318         estimate D2E/DX2                !
 ! R22   R(9,11)                 0.8503         estimate D2E/DX2                !
 ! R23   R(9,12)                 1.6733         estimate D2E/DX2                !
 ! R24   R(10,12)                0.9678         estimate D2E/DX2                !
 ! R25   R(10,24)                1.4002         estimate D2E/DX2                !
 ! R26   R(11,22)                1.3938         estimate D2E/DX2                !
 ! R27   R(12,25)                1.6574         estimate D2E/DX2                !
 ! R28   R(12,26)                1.6427         estimate D2E/DX2                !
 ! R29   R(13,25)                1.7632         estimate D2E/DX2                !
 ! R30   R(13,26)                1.8049         estimate D2E/DX2                !
 ! R31   R(13,27)                1.8152         estimate D2E/DX2                !
 ! R32   R(14,20)                1.5236         estimate D2E/DX2                !
 ! R33   R(14,22)                1.3654         estimate D2E/DX2                !
 ! R34   R(15,28)                1.5188         estimate D2E/DX2                !
 ! R35   R(15,29)                1.5383         estimate D2E/DX2                !
 ! R36   R(24,25)                1.7808         estimate D2E/DX2                !
 ! R37   R(24,26)                1.7834         estimate D2E/DX2                !
 ! R38   R(25,26)                1.2096         estimate D2E/DX2                !
 ! R39   R(28,29)                1.0038         estimate D2E/DX2                !
 ! A1    A(2,1,16)             134.0182         estimate D2E/DX2                !
 ! A2    A(2,1,17)             104.0356         estimate D2E/DX2                !
 ! A3    A(2,1,18)             103.5023         estimate D2E/DX2                !
 ! A4    A(16,1,17)            101.953          estimate D2E/DX2                !
 ! A5    A(16,1,18)            101.2358         estimate D2E/DX2                !
 ! A6    A(17,1,18)            111.5572         estimate D2E/DX2                !
 ! A7    A(4,3,15)             163.0556         estimate D2E/DX2                !
 ! A8    A(5,3,15)             148.6091         estimate D2E/DX2                !
 ! A9    A(2,4,3)               87.2282         estimate D2E/DX2                !
 ! A10   A(2,4,5)              161.8522         estimate D2E/DX2                !
 ! A11   A(2,4,19)              87.4853         estimate D2E/DX2                !
 ! A12   A(5,4,19)             110.6495         estimate D2E/DX2                !
 ! A13   A(3,5,6)              142.1732         estimate D2E/DX2                !
 ! A14   A(3,5,20)              70.7467         estimate D2E/DX2                !
 ! A15   A(4,5,6)              157.1597         estimate D2E/DX2                !
 ! A16   A(4,5,20)             131.1802         estimate D2E/DX2                !
 ! A17   A(5,6,7)              131.4283         estimate D2E/DX2                !
 ! A18   A(5,6,21)             110.4964         estimate D2E/DX2                !
 ! A19   A(7,6,20)              87.5707         estimate D2E/DX2                !
 ! A20   A(7,6,21)             118.0244         estimate D2E/DX2                !
 ! A21   A(20,6,21)            154.162          estimate D2E/DX2                !
 ! A22   A(6,7,8)              126.5356         estimate D2E/DX2                !
 ! A23   A(6,7,22)             123.2282         estimate D2E/DX2                !
 ! A24   A(8,7,22)             109.9615         estimate D2E/DX2                !
 ! A25   A(7,8,9)               95.3844         estimate D2E/DX2                !
 ! A26   A(7,8,10)             139.0241         estimate D2E/DX2                !
 ! A27   A(7,8,23)             128.8024         estimate D2E/DX2                !
 ! A28   A(9,8,23)             135.7997         estimate D2E/DX2                !
 ! A29   A(10,8,23)             91.9885         estimate D2E/DX2                !
 ! A30   A(8,9,11)              87.7016         estimate D2E/DX2                !
 ! A31   A(8,9,12)             106.3856         estimate D2E/DX2                !
 ! A32   A(10,9,11)            136.9981         estimate D2E/DX2                !
 ! A33   A(11,9,12)            140.1656         estimate D2E/DX2                !
 ! A34   A(8,10,12)            156.7997         estimate D2E/DX2                !
 ! A35   A(8,10,24)             97.1467         estimate D2E/DX2                !
 ! A36   A(9,10,24)            159.4587         estimate D2E/DX2                !
 ! A37   A(12,10,24)           105.6292         estimate D2E/DX2                !
 ! A38   A(9,11,22)            120.9055         estimate D2E/DX2                !
 ! A39   A(9,12,25)            141.4218         estimate D2E/DX2                !
 ! A40   A(9,12,26)            151.8219         estimate D2E/DX2                !
 ! A41   A(10,12,25)           101.4003         estimate D2E/DX2                !
 ! A42   A(10,12,26)           101.2688         estimate D2E/DX2                !
 ! A43   A(25,13,27)           127.811          estimate D2E/DX2                !
 ! A44   A(26,13,27)           158.7159         estimate D2E/DX2                !
 ! A45   A(20,14,22)            88.1729         estimate D2E/DX2                !
 ! A46   A(3,15,28)            116.8091         estimate D2E/DX2                !
 ! A47   A(3,15,29)             86.7335         estimate D2E/DX2                !
 ! A48   A(5,20,14)            159.8026         estimate D2E/DX2                !
 ! A49   A(6,20,14)            127.2577         estimate D2E/DX2                !
 ! A50   A(7,22,11)             88.062          estimate D2E/DX2                !
 ! A51   A(7,22,14)            102.8971         estimate D2E/DX2                !
 ! A52   A(11,22,14)           131.3149         estimate D2E/DX2                !
 ! A53   A(10,24,25)            80.607          estimate D2E/DX2                !
 ! A54   A(10,24,26)            79.7988         estimate D2E/DX2                !
 ! A55   A(12,25,13)            95.5147         estimate D2E/DX2                !
 ! A56   A(12,25,24)            67.1632         estimate D2E/DX2                !
 ! A57   A(13,25,24)           142.1767         estimate D2E/DX2                !
 ! A58   A(12,26,13)            94.463          estimate D2E/DX2                !
 ! A59   A(12,26,24)            67.399          estimate D2E/DX2                !
 ! A60   A(13,26,24)           138.2425         estimate D2E/DX2                !
 ! A61   L(1,2,4,28,-1)        177.683          estimate D2E/DX2                !
 ! A62   L(3,4,19,2,-1)        174.7135         estimate D2E/DX2                !
 ! A63   L(1,2,4,28,-2)        180.835          estimate D2E/DX2                !
 ! A64   L(3,4,19,2,-2)        179.7222         estimate D2E/DX2                !
 ! D1    D(16,1,4,3)          -179.129          estimate D2E/DX2                !
 ! D2    D(16,1,4,5)           177.7897         estimate D2E/DX2                !
 ! D3    D(16,1,4,19)            1.1052         estimate D2E/DX2                !
 ! D4    D(17,1,4,3)            58.4985         estimate D2E/DX2                !
 ! D5    D(17,1,4,5)            55.4172         estimate D2E/DX2                !
 ! D6    D(17,1,4,19)         -121.2672         estimate D2E/DX2                !
 ! D7    D(18,1,4,3)           -57.7837         estimate D2E/DX2                !
 ! D8    D(18,1,4,5)           -60.8651         estimate D2E/DX2                !
 ! D9    D(18,1,4,19)          122.4505         estimate D2E/DX2                !
 ! D10   D(15,3,4,2)            32.5664         estimate D2E/DX2                !
 ! D11   D(15,3,5,6)           -15.8155         estimate D2E/DX2                !
 ! D12   D(15,3,5,20)          -21.9179         estimate D2E/DX2                !
 ! D13   D(4,3,15,28)          -45.4502         estimate D2E/DX2                !
 ! D14   D(4,3,15,29)          -20.8467         estimate D2E/DX2                !
 ! D15   D(5,3,15,28)         -179.7733         estimate D2E/DX2                !
 ! D16   D(5,3,15,29)         -155.1699         estimate D2E/DX2                !
 ! D17   D(2,4,5,6)            179.6529         estimate D2E/DX2                !
 ! D18   D(2,4,5,20)            -3.9806         estimate D2E/DX2                !
 ! D19   D(19,4,5,6)            -2.5985         estimate D2E/DX2                !
 ! D20   D(19,4,5,20)          173.768          estimate D2E/DX2                !
 ! D21   D(3,5,6,7)             -4.8794         estimate D2E/DX2                !
 ! D22   D(3,5,6,21)           177.8296         estimate D2E/DX2                !
 ! D23   D(4,5,6,7)            178.3102         estimate D2E/DX2                !
 ! D24   D(4,5,6,21)             1.0192         estimate D2E/DX2                !
 ! D25   D(3,5,20,14)           45.7711         estimate D2E/DX2                !
 ! D26   D(4,5,20,14)           51.1956         estimate D2E/DX2                !
 ! D27   D(5,6,7,8)            179.384          estimate D2E/DX2                !
 ! D28   D(5,6,7,22)            -7.2514         estimate D2E/DX2                !
 ! D29   D(20,6,7,8)          -179.7899         estimate D2E/DX2                !
 ! D30   D(20,6,7,22)           -6.4253         estimate D2E/DX2                !
 ! D31   D(21,6,7,8)            -3.4907         estimate D2E/DX2                !
 ! D32   D(21,6,7,22)          169.8739         estimate D2E/DX2                !
 ! D33   D(7,6,20,14)          -18.4285         estimate D2E/DX2                !
 ! D34   D(21,6,20,14)         169.0835         estimate D2E/DX2                !
 ! D35   D(6,7,8,9)            179.7679         estimate D2E/DX2                !
 ! D36   D(6,7,8,10)          -172.6101         estimate D2E/DX2                !
 ! D37   D(6,7,8,23)             0.9469         estimate D2E/DX2                !
 ! D38   D(22,7,8,9)             5.6704         estimate D2E/DX2                !
 ! D39   D(22,7,8,10)           13.2924         estimate D2E/DX2                !
 ! D40   D(22,7,8,23)         -173.1506         estimate D2E/DX2                !
 ! D41   D(6,7,22,11)          159.812          estimate D2E/DX2                !
 ! D42   D(6,7,22,14)           27.7509         estimate D2E/DX2                !
 ! D43   D(8,7,22,11)          -25.8568         estimate D2E/DX2                !
 ! D44   D(8,7,22,14)         -157.918          estimate D2E/DX2                !
 ! D45   D(7,8,9,11)            30.8684         estimate D2E/DX2                !
 ! D46   D(7,8,9,12)           172.984          estimate D2E/DX2                !
 ! D47   D(23,8,9,11)         -150.4495         estimate D2E/DX2                !
 ! D48   D(23,8,9,12)           -8.3339         estimate D2E/DX2                !
 ! D49   D(7,8,10,12)          -11.6148         estimate D2E/DX2                !
 ! D50   D(7,8,10,24)          179.3424         estimate D2E/DX2                !
 ! D51   D(23,8,10,12)         173.4052         estimate D2E/DX2                !
 ! D52   D(23,8,10,24)           4.3624         estimate D2E/DX2                !
 ! D53   D(11,9,10,24)          94.8414         estimate D2E/DX2                !
 ! D54   D(8,9,11,22)          -64.0331         estimate D2E/DX2                !
 ! D55   D(10,9,11,22)        -122.7672         estimate D2E/DX2                !
 ! D56   D(12,9,11,22)        -177.1514         estimate D2E/DX2                !
 ! D57   D(8,9,12,25)           55.9109         estimate D2E/DX2                !
 ! D58   D(8,9,12,26)          -25.8437         estimate D2E/DX2                !
 ! D59   D(11,9,12,25)         162.6034         estimate D2E/DX2                !
 ! D60   D(11,9,12,26)          80.8488         estimate D2E/DX2                !
 ! D61   D(8,10,12,25)        -147.4829         estimate D2E/DX2                !
 ! D62   D(8,10,12,26)         168.6166         estimate D2E/DX2                !
 ! D63   D(24,10,12,25)         21.2233         estimate D2E/DX2                !
 ! D64   D(24,10,12,26)        -22.6772         estimate D2E/DX2                !
 ! D65   D(8,10,24,25)         155.9824         estimate D2E/DX2                !
 ! D66   D(8,10,24,26)        -163.7354         estimate D2E/DX2                !
 ! D67   D(9,10,24,25)         128.5875         estimate D2E/DX2                !
 ! D68   D(9,10,24,26)         168.8696         estimate D2E/DX2                !
 ! D69   D(12,10,24,25)        -19.5581         estimate D2E/DX2                !
 ! D70   D(12,10,24,26)         20.7241         estimate D2E/DX2                !
 ! D71   D(9,11,22,7)           71.9474         estimate D2E/DX2                !
 ! D72   D(9,11,22,14)         177.4686         estimate D2E/DX2                !
 ! D73   D(9,12,25,13)         155.1867         estimate D2E/DX2                !
 ! D74   D(9,12,25,24)         -59.6868         estimate D2E/DX2                !
 ! D75   D(10,12,25,13)       -162.4288         estimate D2E/DX2                !
 ! D76   D(10,12,25,24)        -17.3024         estimate D2E/DX2                !
 ! D77   D(9,12,26,13)         179.9816         estimate D2E/DX2                !
 ! D78   D(9,12,26,24)          38.9046         estimate D2E/DX2                !
 ! D79   D(10,12,26,13)        159.4826         estimate D2E/DX2                !
 ! D80   D(10,12,26,24)         18.4056         estimate D2E/DX2                !
 ! D81   D(27,13,25,12)       -139.6147         estimate D2E/DX2                !
 ! D82   D(27,13,25,24)        161.1471         estimate D2E/DX2                !
 ! D83   D(27,13,26,12)       -128.5488         estimate D2E/DX2                !
 ! D84   D(27,13,26,24)        -67.9808         estimate D2E/DX2                !
 ! D85   D(22,14,20,5)         153.9497         estimate D2E/DX2                !
 ! D86   D(22,14,20,6)          33.8427         estimate D2E/DX2                !
 ! D87   D(20,14,22,7)         -26.3598         estimate D2E/DX2                !
 ! D88   D(20,14,22,11)       -125.281          estimate D2E/DX2                !
 ! D89   D(10,24,25,12)         11.7863         estimate D2E/DX2                !
 ! D90   D(10,24,25,13)         79.9225         estimate D2E/DX2                !
 ! D91   D(10,24,26,12)        -12.561          estimate D2E/DX2                !
 ! D92   D(10,24,26,13)        -82.7013         estimate D2E/DX2                !
 --------------------------------------------------------------------------------
 Trust Radius=3.00D-01 FncErr=1.00D-07 GrdErr=1.00D-06 EigMax=2.50D+02 EigMin=1.00D-04
 Number of steps in this run=    174 maximum allowed number of steps=    174.
 GradGradGradGradGradGradGradGradGradGradGradGradGradGradGradGradGradGrad

                          Input orientation:                          
 ---------------------------------------------------------------------
 Center     Atomic      Atomic             Coordinates (Angstroms)
 Number     Number       Type             X           Y           Z
 ---------------------------------------------------------------------
      1          6           0        1.144150    0.016340    0.088510
      2         16           0        3.226220   -0.565260    0.862200
      3          6           0        4.206720   -1.842680    2.633420
      4          6           0        4.954210   -1.075460    1.591090
      5          6           0        5.801640   -1.564590    2.297290
      6          6           0        6.910480   -1.831880    2.672290
      7          6           0        7.328050   -2.496440    3.694920
      8          6           0        8.547980   -2.736180    4.002040
      9          7           0        8.181290   -3.627520    5.440230
     10          6           0        9.488650   -3.712630    5.200780
     11          6           0        7.462130   -3.876950    5.061230
     12          6           0        9.631350   -4.258700    5.987010
     13         16           0       11.460580   -5.189900    7.471790
     14          6           0        5.282050   -3.107140    4.074140
     15          7           0        3.424910   -2.463070    3.171140
     16          1           0        0.755530    0.669540   -0.824520
     17          1           0        0.679650    0.510630    0.931400
     18          1           0        0.676690   -0.937280   -0.120350
     19          1           0        5.400540   -0.497430    0.812700
     20          1           0        5.735430   -2.043440    3.082060
     21          1           0        7.548200   -1.440600    2.112850
     22          1           0        6.476340   -2.953430    4.717880
     23          1           0        9.412160   -2.440130    3.510720
     24          1           0       10.766080   -3.352550    4.754660
     25          1           0       11.159150   -3.796820    6.433800
     26          1           0       11.167060   -4.785810    5.737340
     27          1           0       12.292440   -5.216440    9.084990
     28          1           0        1.973930   -2.063180    2.967140
     29          1           0        2.440500   -2.008000    2.080100
 ---------------------------------------------------------------------
                    Distance matrix (angstroms):
                    1          2          3          4          5
     1  C    0.000000
     2  S    2.296055   0.000000
     3  C    4.394526   2.393826   0.000000
     4  C    4.238671   1.943588   1.494597   0.000000
     5  C    5.391685   3.113026   1.653508   1.206691   0.000000
     6  C    6.583494   4.295873   2.704061   2.359694   1.200664
     7  C    7.586888   5.345911   3.361084   3.475687   2.269723
     8  C    8.815258   6.549246   4.638750   4.635284   3.438194
     9  N    9.562424   7.408678   5.182764   5.634087   4.449324
    10  C   10.472402   8.243012   6.163346   6.367548   5.161238
    11  C    8.933226   6.822175   4.542049   5.116628   3.967821
    12  C   11.184848   8.996158   6.819848   7.164689   5.961455
    13  S   13.713004  11.527301   9.339817   9.687316   8.481859
    14  C    6.539388   4.583028   2.197924   3.225018   2.409695
    15  N    4.566393   2.995391   1.133690   2.600150   2.686955
    16  H    1.187990   3.236366   5.493570   5.148700   6.340368
    17  H    1.081918   2.765384   4.568935   4.606814   5.692712
    18  H    1.082374   2.757518   4.567725   4.609262   5.701194
    19  H    4.348019   2.175941   2.559282   1.067343   1.871822
    20  H    5.855244   3.661820   1.605782   1.941721   0.921708
    21  H    6.872589   4.583651   3.405606   2.671019   1.760643
    22  H    7.660473   5.579687   3.275655   3.952274   2.871124
    23  H    9.279319   6.985388   5.312552   5.041887   3.908304
    24  H   11.211776   8.931390   7.057235   6.997939   5.820750
    25  H   12.454040  10.218468   8.160750   8.328200   7.127165
    26  H   12.467103  10.229221   8.169619   8.340119   7.141284
    27  H   15.251328  13.093666  10.880436  11.276341  10.076674
    28  H    3.646841   2.871022   2.268334   3.427998   3.917736
    29  H    3.121683   2.045027   1.858232   2.725344   3.397212
                    6          7          8          9         10
     6  C    0.000000
     7  C    1.289099   0.000000
     8  C    2.295082   1.280635   0.000000
     9  N    3.535643   2.247992   1.731282   0.000000
    10  C    4.071541   2.900849   1.809777   1.331830   0.000000
    11  C    3.192752   1.946943   1.897975   0.850322   2.037955
    12  C    4.927470   3.696543   2.726144   1.673329   0.967840
    13  S    7.417204   6.212671   5.152004   4.161972   3.350869
    14  C    2.498651   2.168612   3.287721   3.246935   4.396751
    15  N    3.577213   3.938269   5.197194   5.397024   6.515350
    16  H    7.507875   8.581771   9.778389  10.623264  11.479331
    17  H    6.880501   7.802611   9.048824   9.681345  10.661239
    18  H    6.889070   7.824823   9.065724   9.719900  10.661502
    19  H    2.742034   4.002315   5.009019   6.240518   6.804807
    20  H    1.262304   1.765572   3.039192   3.748667   4.621886
    21  H    0.934216   1.914735   2.499425   4.031734   4.296834
    22  H    2.372929   1.407372   2.202570   1.970543   3.143818
    23  H    2.707644   2.092992   1.037231   2.578361   2.116934
    24  H    4.638357   3.698111   2.422048   2.688262   1.400181
    25  H    6.005093   4.885671   3.722448   3.143802   2.077979
    26  H    6.019859   4.914335   3.751244   3.216323   2.063170
    27  H    9.030142   7.816420   6.782997   5.719309   5.020933
    28  H    4.950754   5.420699   6.688952   6.862554   8.011295
    29  H    4.512475   5.170528   6.444021   6.846166   7.894354
                   11         12         13         14         15
    11  C    0.000000
    12  C    2.389208   0.000000
    13  S    4.849973   2.533335   0.000000
    14  C    2.513902   4.888923   7.352289   0.000000
    15  N    4.676606   7.047929   9.513316   2.163147   0.000000
    16  H   10.014545  12.225574  14.756690   7.664826   5.736212
    17  H    9.072397  11.333077  13.838396   6.644333   4.625557
    18  H    9.029542  11.336561  13.857043   6.596316   4.551335
    19  H    5.807006   7.669445  10.153169   4.178710   3.650903
    20  H    3.203181   5.340815   7.870660   1.523560   2.350006
    21  H    3.825723   5.224014   7.621168   3.429205   4.378007
    22  H    1.393758   3.642596   6.117881   1.365414   3.456021
    23  H    2.875961   3.080139   5.239020   4.221392   5.996916
    24  H    3.359325   1.904575   3.352757   5.531539   7.562505
    25  H    3.944404   1.657446   1.763223   6.370554   8.499548
    26  H    3.874230   1.642737   1.804926   6.341728   8.480648
    27  H    6.427812   4.194776   1.815244   8.871490  11.008531
    28  H    6.147789   8.519155  10.957407   3.641285   1.518839
    29  H    6.131629   8.487516  10.979829   3.641251   1.538350
                   16         17         18         19         20
    16  H    0.000000
    17  H    1.764728   0.000000
    18  H    1.756115   1.789589   0.000000
    19  H    5.061465   4.828776   4.835164   0.000000
    20  H    6.886293   6.058838   6.088503   2.766278   0.000000
    21  H    7.695531   7.237410   7.242801   2.681866   2.142176
    22  H    8.750530   7.742012   7.817242   4.737057   2.013191
    23  H   10.168658   9.571656   9.578709   5.210229   3.722829
    24  H   12.145599  11.457641  11.462768   7.244293   5.460659
    25  H   13.448676  12.595652  12.689201   8.697375   6.612506
    26  H   13.461753  12.693900  12.616322   8.711776   6.638803
    27  H   16.307772  15.301544  15.426443  11.755770   9.439146
    28  H    4.830004   3.527591   3.533140   4.339913   3.763307
    29  H    4.294783   3.280793   3.016529   3.556678   3.444088
                   21         22         23         24         25
    21  H    0.000000
    22  H    3.197455   0.000000
    23  H    2.535241   3.215548   0.000000
    24  H    4.581426   4.308424   2.052558   0.000000
    25  H    6.104207   5.058102   3.665648   1.780840   0.000000
    26  H    6.117475   5.138071   3.679637   1.783446   1.209636
    27  H    9.239887   7.617078   6.861224   4.955363   3.213795
    28  H    5.673615   4.912162   7.467586   9.064194   9.969529
    29  H    5.139223   4.913219   7.130039   8.847393   9.908049
                   26         27         28         29
    26  H    0.000000
    27  H    3.557904   0.000000
    28  H    9.979998  12.403338   0.000000
    29  H    9.861262  12.506930   1.003779   0.000000
 Stoichiometry    C11H14N2S2
 Framework group  C1[X(C11H14N2S2)]
 Deg. of freedom    81
 Full point group                 C1      NOp   1
 Largest Abelian subgroup         C1      NOp   1
 Largest concise Abelian subgroup C1      NOp   1
                         Standard orientation:                         
 ---------------------------------------------------------------------
 Center     Atomic      Atomic             Coordinates (Angstroms)
 Number     Number       Type             X           Y           Z
 ---------------------------------------------------------------------
      1          6           0        6.990781    0.224715    0.102132
      2         16           0        4.785777   -0.410518    0.022718
      3          6           0        2.611956    0.591653    0.046388
      4          6           0        2.898590   -0.874031   -0.012177
      5          6           0        1.695313   -0.783509   -0.006356
      6          6           0        0.556893   -1.163800   -0.037558
      7          6           0       -0.558923   -0.522965    0.040306
      8          6           0       -1.734107   -1.028826   -0.015150
      9          7           0       -2.568075    0.477061    0.169624
     10          6           0       -3.456047   -0.478313   -0.099702
     11          6           0       -1.914528    0.848554   -0.227762
     12          6           0       -4.192631    0.148251   -0.060015
     13         16           0       -6.721972    0.260575    0.027190
     14          6           0        0.550046    1.333315   -0.124883
     15          7           0        2.678723    1.715801   -0.084331
     16          1           0        8.021315   -0.365928    0.080725
     17          1           0        7.070469    0.780935    1.026695
     18          1           0        7.099262    0.869445   -0.760473
     19          1           0        3.198881   -1.897666   -0.047076
     20          1           0        1.142141   -0.053209    0.094678
     21          1           0        0.524771   -2.095670   -0.095397
     22          1           0       -0.640483    0.850280    0.337364
     23          1           0       -2.009358   -2.023697   -0.116716
     24          1           0       -4.043275   -1.748740   -0.140781
     25          1           0       -5.412885   -0.816456    0.512216
     26          1           0       -5.412553   -0.749764   -0.695580
     27          1           0       -8.230459    0.665495    0.952186
     28          1           0        4.032273    2.355906    0.170700
     29          1           0        4.180418    1.507847   -0.345460
 ---------------------------------------------------------------------
 Rotational constants (GHZ):           2.9611838           0.1268446           0.1219464
 Standard basis: 6-31G(2df,p) (6D, 7F)
 There are   543 symmetry adapted cartesian basis functions of A   symmetry.
 There are   498 symmetry adapted basis functions of A   symmetry.
   498 basis functions,   806 primitive gaussians,   543 cartesian basis functions
    63 alpha electrons       63 beta electrons
       nuclear repulsion energy      1089.7060476296 Hartrees.
 NAtoms=   29 NActive=   29 NUniq=   29 SFac= 1.00D+00 NAtFMM=   60 NAOKFM=F Big=F
 Integral buffers will be    131072 words long.
 Raffenetti 2 integral format.
 Two-electron integral symmetry is turned on.
 One-electron integrals computed using PRISM.
 PrsmSu:  requested number of processors reduced to:  12 ShMem   1 Linda.
 NBasis=   498 RedAO= T EigKep=  5.07D-05  NBF=   498
 NBsUse=   498 1.00D-06 EigRej= -1.00D+00 NBFU=   498
 ExpMin= 1.17D-01 ExpMax= 2.19D+04 ExpMxC= 3.30D+03 IAcc=3 IRadAn=         5 AccDes= 0.00D+00
 Harris functional with IExCor=  402 and IRadAn=       5 diagonalized for initial guess.
 HarFok:  IExCor=  402 AccDes= 0.00D+00 IRadAn=         5 IDoV= 1 UseB2=F ITyADJ=14
 ICtDFT=  3500011 ScaDFX=  1.000000  1.000000  1.000000  1.000000
 FoFCou: FMM=F IPFlag=           0 FMFlag=      100000 FMFlg1=           0
         NFxFlg=           0 DoJE=T BraDBF=F KetDBF=T FulRan=T
         wScrn=  0.000000 ICntrl=       500 IOpCl=  0 I1Cent=   200000004 NGrid=           0
         NMat0=    1 NMatS0=      1 NMatT0=    0 NMatD0=    1 NMtDS0=    0 NMtDT0=    0
 Petite list used in FoFCou.
 Requested convergence on RMS density matrix=1.00D-08 within 128 cycles.
 Requested convergence on MAX density matrix=1.00D-06.
 Requested convergence on             energy=1.00D-06.
 No special actions if energy rises.
 Integral accuracy reduced to 1.0D-05 until final iterations.
 EnCoef did     6 forward-backward iterations
 EnCoef did   100 forward-backward iterations
 EnCoef did   100 forward-backward iterations
 EnCoef did     2 forward-backward iterations
 EnCoef did   100 forward-backward iterations
 EnCoef did     3 forward-backward iterations
 EnCoef did    10 forward-backward iterations
 EnCoef did    13 forward-backward iterations
 EnCoef did     5 forward-backward iterations
 EnCoef did     1 forward-backward iterations
 EnCoef did     3 forward-backward iterations
 Restarting incremental Fock formation.
 Initial convergence to 1.0D-05 achieved.  Increase integral accuracy.
 SCF Done:  E(RB3LYP) =  -1330.76276162     A.U. after   39 cycles
            NFock= 39  Conv=0.76D-08     -V/T= 1.9972

 **********************************************************************

            Population analysis using the SCF density.

 **********************************************************************

 Orbital symmetries:
       Occupied  (A) (A) (A) (A) (A) (A) (A) (A) (A) (A) (A) (A)
                 (A) (A) (A) (A) (A) (A) (A) (A) (A) (A) (A) (A)
                 (A) (A) (A) (A) (A) (A) (A) (A) (A) (A) (A) (A)
                 (A) (A) (A) (A) (A) (A) (A) (A) (A) (A) (A) (A)
                 (A) (A) (A) (A) (A) (A) (A) (A) (A) (A) (A) (A)
                 (A) (A) (A)
       Virtual   (A) (A) (A) (A) (A) (A) (A) (A) (A) (A) (A) (A)
                 (A) (A) (A) (A) (A) (A) (A) (A) (A) (A) (A) (A)
                 (A) (A) (A) (A) (A) (A) (A) (A) (A) (A) (A) (A)
                 (A) (A) (A) (A) (A) (A) (A) (A) (A) (A) (A) (A)
                 (A) (A) (A) (A) (A) (A) (A) (A) (A) (A) (A) (A)
                 (A) (A) (A) (A) (A) (A) (A) (A) (A) (A) (A) (A)
                 (A) (A) (A) (A) (A) (A) (A) (A) (A) (A) (A) (A)
                 (A) (A) (A) (A) (A) (A) (A) (A) (A) (A) (A) (A)
                 (A) (A) (A) (A) (A) (A) (A) (A) (A) (A) (A) (A)
                 (A) (A) (A) (A) (A) (A) (A) (A) (A) (A) (A) (A)
                 (A) (A) (A) (A) (A) (A) (A) (A) (A) (A) (A) (A)
                 (A) (A) (A) (A) (A) (A) (A) (A) (A) (A) (A) (A)
                 (A) (A) (A) (A) (A) (A) (A) (A) (A) (A) (A) (A)
                 (A) (A) (A) (A) (A) (A) (A) (A) (A) (A) (A) (A)
                 (A) (A) (A) (A) (A) (A) (A) (A) (A) (A) (A) (A)
                 (A) (A) (A) (A) (A) (A) (A) (A) (A) (A) (A) (A)
                 (A) (A) (A) (A) (A) (A) (A) (A) (A) (A) (A) (A)
                 (A) (A) (A) (A) (A) (A) (A) (A) (A) (A) (A) (A)
                 (A) (A) (A) (A) (A) (A) (A) (A) (A) (A) (A) (A)
                 (A) (A) (A) (A) (A) (A) (A) (A) (A) (A) (A) (A)
                 (A) (A) (A) (A) (A) (A) (A) (A) (A) (A) (A) (A)
                 (A) (A) (A) (A) (A) (A) (A) (A) (A) (A) (A) (A)
                 (A) (A) (A) (A) (A) (A) (A) (A) (A) (A) (A) (A)
                 (A) (A) (A) (A) (A) (A) (A) (A) (A) (A) (A) (A)
                 (A) (A) (A) (A) (A) (A) (A) (A) (A) (A) (A) (A)
                 (A) (A) (A) (A) (A) (A) (A) (A) (A) (A) (A) (A)
                 (A) (A) (A) (A) (A) (A) (A) (A) (A) (A) (A) (A)
                 (A) (A) (A) (A) (A) (A) (A) (A) (A) (A) (A) (A)
                 (A) (A) (A) (A) (A) (A) (A) (A) (A) (A) (A) (A)
                 (A) (A) (A) (A) (A) (A) (A) (A) (A) (A) (A) (A)
                 (A) (A) (A) (A) (A) (A) (A) (A) (A) (A) (A) (A)
                 (A) (A) (A) (A) (A) (A) (A) (A) (A) (A) (A) (A)
                 (A) (A) (A) (A) (A) (A) (A) (A) (A) (A) (A) (A)
                 (A) (A) (A) (A) (A) (A) (A) (A) (A) (A) (A) (A)
                 (A) (A) (A) (A) (A) (A) (A) (A) (A) (A) (A) (A)
                 (A) (A) (A) (A) (A) (A) (A) (A) (A) (A) (A) (A)
                 (A) (A) (A)
 The electronic state is 1-A.
 Alpha  occ. eigenvalues --  -88.88490 -88.88188 -14.41746 -14.39885 -10.34195
 Alpha  occ. eigenvalues --  -10.28193 -10.26498 -10.25053 -10.24592 -10.23231
 Alpha  occ. eigenvalues --  -10.23065 -10.22713 -10.22033 -10.20497 -10.19456
 Alpha  occ. eigenvalues --   -7.94686  -7.94416  -5.91218  -5.90999  -5.90606
 Alpha  occ. eigenvalues --   -5.90440  -5.90298  -5.89891  -1.19317  -1.06492
 Alpha  occ. eigenvalues --   -1.00506  -0.97377  -0.91129  -0.84063  -0.74970
 Alpha  occ. eigenvalues --   -0.74284  -0.71357  -0.69466  -0.66534  -0.65843
 Alpha  occ. eigenvalues --   -0.64652  -0.61007  -0.59514  -0.57695  -0.56493
 Alpha  occ. eigenvalues --   -0.55519  -0.50965  -0.50717  -0.47347  -0.46766
 Alpha  occ. eigenvalues --   -0.42814  -0.41388  -0.40206  -0.39354  -0.38361
 Alpha  occ. eigenvalues --   -0.36974  -0.35715  -0.35460  -0.31198  -0.29426
 Alpha  occ. eigenvalues --   -0.28521  -0.26901  -0.26446  -0.24363  -0.23984
 Alpha  occ. eigenvalues --   -0.21628  -0.20955  -0.19477
 Alpha virt. eigenvalues --   -0.17066  -0.14972  -0.10787  -0.08021  -0.05529
 Alpha virt. eigenvalues --   -0.05503  -0.04005  -0.02645  -0.00802   0.00225
 Alpha virt. eigenvalues --    0.02079   0.03745   0.04893   0.07356   0.08634
 Alpha virt. eigenvalues --    0.09117   0.11612   0.12595   0.13087   0.15261
 Alpha virt. eigenvalues --    0.17675   0.18295   0.18641   0.18832   0.19803
 Alpha virt. eigenvalues --    0.21850   0.22316   0.24680   0.26655   0.30919
 Alpha virt. eigenvalues --    0.33021   0.33722   0.34135   0.34692   0.35341
 Alpha virt. eigenvalues --    0.35935   0.36629   0.36947   0.37198   0.38205
 Alpha virt. eigenvalues --    0.38286   0.39138   0.39885   0.40513   0.41506
 Alpha virt. eigenvalues --    0.41973   0.42891   0.43225   0.44874   0.45694
 Alpha virt. eigenvalues --    0.46552   0.47113   0.48091   0.48834   0.49213
 Alpha virt. eigenvalues --    0.50566   0.50940   0.51694   0.52163   0.54496
 Alpha virt. eigenvalues --    0.55072   0.55981   0.56223   0.57108   0.57957
 Alpha virt. eigenvalues --    0.58399   0.58903   0.59095   0.60494   0.61568
 Alpha virt. eigenvalues --    0.62908   0.63200   0.64023   0.64903   0.65965
 Alpha virt. eigenvalues --    0.66667   0.68247   0.68474   0.70268   0.70811
 Alpha virt. eigenvalues --    0.71104   0.71694   0.73482   0.74311   0.74510
 Alpha virt. eigenvalues --    0.75517   0.76345   0.76844   0.78207   0.78742
 Alpha virt. eigenvalues --    0.79441   0.80234   0.80710   0.81426   0.82340
 Alpha virt. eigenvalues --    0.82771   0.82919   0.84335   0.85505   0.86488
 Alpha virt. eigenvalues --    0.88276   0.89282   0.90295   0.91117   0.92454
 Alpha virt. eigenvalues --    0.93005   0.93589   0.94644   0.95652   0.96732
 Alpha virt. eigenvalues --    0.98303   0.99757   1.00861   1.02172   1.03470
 Alpha virt. eigenvalues --    1.03795   1.05940   1.06356   1.09659   1.10498
 Alpha virt. eigenvalues --    1.11613   1.12831   1.16027   1.16847   1.17676
 Alpha virt. eigenvalues --    1.18733   1.19258   1.20888   1.21430   1.22136
 Alpha virt. eigenvalues --    1.24536   1.25990   1.27287   1.28508   1.29524
 Alpha virt. eigenvalues --    1.30224   1.31112   1.31387   1.31661   1.33667
 Alpha virt. eigenvalues --    1.35380   1.36383   1.37535   1.43069   1.43746
 Alpha virt. eigenvalues --    1.44259   1.46164   1.49048   1.49257   1.51103
 Alpha virt. eigenvalues --    1.53114   1.55148   1.56663   1.57213   1.58163
 Alpha virt. eigenvalues --    1.59520   1.60334   1.60613   1.61706   1.62546
 Alpha virt. eigenvalues --    1.63152   1.63461   1.64675   1.65008   1.65832
 Alpha virt. eigenvalues --    1.66032   1.66790   1.68780   1.70983   1.71833
 Alpha virt. eigenvalues --    1.73789   1.74476   1.77137   1.77675   1.78987
 Alpha virt. eigenvalues --    1.80654   1.81841   1.83612   1.84013   1.84452
 Alpha virt. eigenvalues --    1.85300   1.87170   1.87944   1.90348   1.92109
 Alpha virt. eigenvalues --    1.93158   1.94302   1.96070   1.99385   2.00164
 Alpha virt. eigenvalues --    2.00510   2.02591   2.04277   2.06148   2.08068
 Alpha virt. eigenvalues --    2.09284   2.10668   2.11233   2.12179   2.12860
 Alpha virt. eigenvalues --    2.14933   2.16488   2.18679   2.18882   2.19724
 Alpha virt. eigenvalues --    2.21367   2.23089   2.25434   2.25915   2.27049
 Alpha virt. eigenvalues --    2.28077   2.29599   2.30552   2.33093   2.33634
 Alpha virt. eigenvalues --    2.37125   2.37943   2.39634   2.40732   2.41678
 Alpha virt. eigenvalues --    2.44074   2.44741   2.45599   2.46127   2.47671
 Alpha virt. eigenvalues --    2.48696   2.51212   2.53441   2.55132   2.56212
 Alpha virt. eigenvalues --    2.57504   2.59183   2.61027   2.61879   2.65169
 Alpha virt. eigenvalues --    2.67479   2.67713   2.67999   2.69763   2.70875
 Alpha virt. eigenvalues --    2.72756   2.74403   2.75959   2.76662   2.79147
 Alpha virt. eigenvalues --    2.79943   2.81052   2.82467   2.84300   2.84727
 Alpha virt. eigenvalues --    2.86114   2.87616   2.88930   2.91241   2.91904
 Alpha virt. eigenvalues --    2.92478   2.93191   2.93813   2.96093   2.97130
 Alpha virt. eigenvalues --    2.98284   2.99780   3.01197   3.01496   3.05663
 Alpha virt. eigenvalues --    3.06801   3.07799   3.08496   3.10608   3.10938
 Alpha virt. eigenvalues --    3.13250   3.13842   3.15179   3.16914   3.18208
 Alpha virt. eigenvalues --    3.19392   3.19811   3.21912   3.23407   3.24331
 Alpha virt. eigenvalues --    3.25859   3.26884   3.28024   3.29143   3.32284
 Alpha virt. eigenvalues --    3.32718   3.34086   3.34938   3.35551   3.37252
 Alpha virt. eigenvalues --    3.39865   3.41892   3.44310   3.45093   3.47263
 Alpha virt. eigenvalues --    3.48190   3.50539   3.50916   3.52710   3.53452
 Alpha virt. eigenvalues --    3.53740   3.54851   3.56310   3.58721   3.61555
 Alpha virt. eigenvalues --    3.62839   3.65581   3.66191   3.68388   3.69957
 Alpha virt. eigenvalues --    3.74324   3.76766   3.78974   3.80962   3.82886
 Alpha virt. eigenvalues --    3.83479   3.84256   3.85674   3.86857   3.87758
 Alpha virt. eigenvalues --    3.89147   3.91048   3.93123   3.96176   3.97881
 Alpha virt. eigenvalues --    3.98779   4.00616   4.01881   4.03679   4.05472
 Alpha virt. eigenvalues --    4.07254   4.08247   4.09416   4.12577   4.16012
 Alpha virt. eigenvalues --    4.17777   4.19133   4.19688   4.21733   4.25153
 Alpha virt. eigenvalues --    4.25872   4.27959   4.29337   4.29571   4.31110
 Alpha virt. eigenvalues --    4.33368   4.35182   4.35398   4.36609   4.38236
 Alpha virt. eigenvalues --    4.40596   4.41818   4.44093   4.45353   4.46850
 Alpha virt. eigenvalues --    4.48093   4.49603   4.50232   4.53010   4.54124
 Alpha virt. eigenvalues --    4.55923   4.56788   4.58178   4.60473   4.62404
 Alpha virt. eigenvalues --    4.64180   4.66035   4.66294   4.67654   4.70117
 Alpha virt. eigenvalues --    4.71967   4.73366   4.74683   4.76896   4.79547
 Alpha virt. eigenvalues --    4.80137   4.84035   4.87367   4.88922   4.89990
 Alpha virt. eigenvalues --    4.93322   4.95471   4.96653   5.02121   5.05053
 Alpha virt. eigenvalues --    5.07634   5.08866   5.10949   5.18490   5.20761
 Alpha virt. eigenvalues --    5.25478   5.27315   5.29346   5.31272   5.34357
 Alpha virt. eigenvalues --    5.38494   5.40229   5.44508   5.48437   5.59774
 Alpha virt. eigenvalues --    5.62328   5.65461   5.71308   5.75949   5.79899
 Alpha virt. eigenvalues --    5.83243   6.02521   6.03525   6.06403   6.12067
 Alpha virt. eigenvalues --    6.23613   6.34658   6.44367   6.53053   6.57598
 Alpha virt. eigenvalues --    6.64025   6.94969   7.00932   7.35159   8.14392
 Alpha virt. eigenvalues --   10.19688  10.33616  10.52310  10.95023  11.04119
 Alpha virt. eigenvalues --   11.16535  11.26210  11.27694  11.47746  11.69957
 Alpha virt. eigenvalues --   12.02559  12.17743  12.80995  22.47503  28.66678
          Condensed to atoms (all electrons):
               1          2          3          4          5          6
     1  C    5.165980   0.190286   0.002203   0.000196  -0.000167   0.000002
     2  S    0.190286  16.099246  -0.101992   0.012650   0.053277  -0.001183
     3  C    0.002203  -0.101992   4.650960   0.525260   0.010858  -0.106673
     4  C    0.000196   0.012650   0.525260   5.888579   0.251929  -0.318496
     5  C   -0.000167   0.053277   0.010858   0.251929   5.291490  -0.271379
     6  C    0.000002  -0.001183  -0.106673  -0.318496  -0.271379   6.213704
     7  C    0.000000  -0.000036   0.005311   0.020492   0.100281   0.308448
     8  C    0.000000  -0.000001  -0.000092  -0.000695   0.015817  -0.019115
     9  N    0.000000  -0.000000   0.000049   0.000009   0.002163   0.002997
    10  C    0.000000  -0.000000  -0.000003  -0.000002  -0.000538  -0.000332
    11  C    0.000000  -0.000001   0.000609  -0.000033   0.004543   0.003309
    12  C    0.000000  -0.000000  -0.000000  -0.000000  -0.000084  -0.000197
    13  S    0.000000  -0.000000   0.000000  -0.000000  -0.000000  -0.000001
    14  C   -0.000000  -0.000232   0.055242  -0.004528  -0.028792  -0.027377
    15  N   -0.000147  -0.053926   0.711696  -0.042284   0.021848   0.000173
    16  H    0.358694  -0.005534  -0.000007  -0.000015  -0.000000  -0.000000
    17  H    0.377114  -0.021679  -0.000169  -0.000055   0.000003  -0.000000
    18  H    0.376136  -0.022983  -0.000207  -0.000014   0.000004  -0.000000
    19  H    0.001501  -0.119971   0.016292   0.397802  -0.091979  -0.008667
    20  H   -0.000001   0.002076  -0.058127  -0.195052   0.009690   0.332145
    21  H    0.000000  -0.000067   0.009798   0.002179   0.090650   0.167966
    22  H   -0.000000   0.000067  -0.002689   0.000105   0.005599  -0.034520
    23  H    0.000000  -0.000000   0.000029   0.000052   0.004674  -0.005061
    24  H    0.000000  -0.000000   0.000000   0.000000   0.000045   0.000151
    25  H    0.000000   0.000000   0.000000   0.000000   0.000000   0.000002
    26  H    0.000000   0.000000   0.000000   0.000000   0.000000   0.000006
    27  H    0.000000   0.000000   0.000000   0.000000   0.000000   0.000000
    28  H   -0.000826  -0.014097  -0.056142  -0.001292   0.000829   0.000058
    29  H   -0.004989   0.171266  -0.070355  -0.016731  -0.004467  -0.000396
               7          8          9         10         11         12
     1  C    0.000000   0.000000   0.000000   0.000000   0.000000   0.000000
     2  S   -0.000036  -0.000001  -0.000000  -0.000000  -0.000001  -0.000000
     3  C    0.005311  -0.000092   0.000049  -0.000003   0.000609  -0.000000
     4  C    0.020492  -0.000695   0.000009  -0.000002  -0.000033  -0.000000
     5  C    0.100281   0.015817   0.002163  -0.000538   0.004543  -0.000084
     6  C    0.308448  -0.019115   0.002997  -0.000332   0.003309  -0.000197
     7  C    5.419926   0.441751  -0.067242   0.022578  -0.082638  -0.003462
     8  C    0.441751   5.535733  -0.027235   0.221846   0.053834  -0.011104
     9  N   -0.067242  -0.027235   5.871507   0.734629  -0.166524  -0.322165
    10  C    0.022578   0.221846   0.734629   5.201379  -0.346806   0.015002
    11  C   -0.082638   0.053834  -0.166524  -0.346806   7.035774   0.126770
    12  C   -0.003462  -0.011104  -0.322165   0.015002   0.126770   7.065852
    13  S    0.000018   0.000299  -0.001628  -0.092008  -0.000207   0.035798
    14  C    0.097297  -0.009450  -0.011631  -0.000485   0.010758  -0.000141
    15  N    0.001500  -0.000083   0.000006   0.000000   0.000093   0.000000
    16  H    0.000000  -0.000000   0.000000  -0.000000   0.000000  -0.000000
    17  H    0.000000   0.000000   0.000000   0.000000   0.000000  -0.000000
    18  H    0.000000   0.000000   0.000000   0.000000   0.000000   0.000000
    19  H   -0.000340  -0.000007   0.000000  -0.000000   0.000001  -0.000000
    20  H   -0.170537  -0.003531  -0.003386   0.000209  -0.006762   0.000034
    21  H    0.005097  -0.021270  -0.000204  -0.000226  -0.000220  -0.000020
    22  H    0.006298  -0.016542   0.019743   0.006065   0.031888  -0.002100
    23  H   -0.082541   0.308013   0.007250  -0.087038  -0.000510  -0.002381
    24  H   -0.003998  -0.073412   0.034614   0.168750  -0.006965  -0.293161
    25  H   -0.000101  -0.002394   0.005167   0.019294  -0.001502  -0.099082
    26  H   -0.000153  -0.004182   0.008617   0.106156  -0.003852  -0.178388
    27  H   -0.000000   0.000000   0.000001   0.000495  -0.000001   0.001392
    28  H    0.000022  -0.000000   0.000000   0.000000   0.000003   0.000000
    29  H   -0.000024  -0.000001   0.000000  -0.000000   0.000002  -0.000000
              13         14         15         16         17         18
     1  C    0.000000  -0.000000  -0.000147   0.358694   0.377114   0.376136
     2  S   -0.000000  -0.000232  -0.053926  -0.005534  -0.021679  -0.022983
     3  C    0.000000   0.055242   0.711696  -0.000007  -0.000169  -0.000207
     4  C   -0.000000  -0.004528  -0.042284  -0.000015  -0.000055  -0.000014
     5  C   -0.000000  -0.028792   0.021848  -0.000000   0.000003   0.000004
     6  C   -0.000001  -0.027377   0.000173  -0.000000  -0.000000  -0.000000
     7  C    0.000018   0.097297   0.001500   0.000000   0.000000   0.000000
     8  C    0.000299  -0.009450  -0.000083  -0.000000   0.000000   0.000000
     9  N   -0.001628  -0.011631   0.000006   0.000000   0.000000   0.000000
    10  C   -0.092008  -0.000485   0.000000  -0.000000   0.000000   0.000000
    11  C   -0.000207   0.010758   0.000093   0.000000   0.000000   0.000000
    12  C    0.035798  -0.000141   0.000000  -0.000000  -0.000000   0.000000
    13  S   16.157858  -0.000000   0.000000   0.000000   0.000000  -0.000000
    14  C   -0.000000   6.290922  -0.003239   0.000000   0.000000   0.000000
    15  N    0.000000  -0.003239   6.843189  -0.000002   0.000044   0.000021
    16  H    0.000000   0.000000  -0.000002   0.604825  -0.036276  -0.037139
    17  H    0.000000   0.000000   0.000044  -0.036276   0.572043  -0.028681
    18  H   -0.000000   0.000000   0.000021  -0.037139  -0.028681   0.574136
    19  H   -0.000000  -0.000372  -0.000378  -0.000011  -0.000034  -0.000034
    20  H    0.000000  -0.115668   0.002212   0.000000  -0.000000  -0.000000
    21  H    0.000000   0.005736   0.000049  -0.000000   0.000000  -0.000000
    22  H    0.000001   0.067600   0.000290   0.000000  -0.000000   0.000000
    23  H   -0.000306   0.000244   0.000001   0.000000  -0.000000   0.000000
    24  H   -0.039147   0.000005   0.000000   0.000000  -0.000000  -0.000000
    25  H    0.109021  -0.000000   0.000000   0.000000  -0.000000  -0.000000
    26  H   -0.105572   0.000000   0.000000   0.000000   0.000000  -0.000000
    27  H    0.191510   0.000000  -0.000000   0.000000   0.000000   0.000000
    28  H    0.000000   0.003132   0.014058   0.000003   0.000093   0.000681
    29  H    0.000000   0.002143  -0.039666   0.000166   0.000118   0.000302
              19         20         21         22         23         24
     1  C    0.001501  -0.000001   0.000000  -0.000000   0.000000   0.000000
     2  S   -0.119971   0.002076  -0.000067   0.000067  -0.000000  -0.000000
     3  C    0.016292  -0.058127   0.009798  -0.002689   0.000029   0.000000
     4  C    0.397802  -0.195052   0.002179   0.000105   0.000052   0.000000
     5  C   -0.091979   0.009690   0.090650   0.005599   0.004674   0.000045
     6  C   -0.008667   0.332145   0.167966  -0.034520  -0.005061   0.000151
     7  C   -0.000340  -0.170537   0.005097   0.006298  -0.082541  -0.003998
     8  C   -0.000007  -0.003531  -0.021270  -0.016542   0.308013  -0.073412
     9  N    0.000000  -0.003386  -0.000204   0.019743   0.007250   0.034614
    10  C   -0.000000   0.000209  -0.000226   0.006065  -0.087038   0.168750
    11  C    0.000001  -0.006762  -0.000220   0.031888  -0.000510  -0.006965
    12  C   -0.000000   0.000034  -0.000020  -0.002100  -0.002381  -0.293161
    13  S   -0.000000   0.000000   0.000000   0.000001  -0.000306  -0.039147
    14  C   -0.000372  -0.115668   0.005736   0.067600   0.000244   0.000005
    15  N   -0.000378   0.002212   0.000049   0.000290   0.000001   0.000000
    16  H   -0.000011   0.000000  -0.000000   0.000000   0.000000   0.000000
    17  H   -0.000034  -0.000000   0.000000  -0.000000  -0.000000  -0.000000
    18  H   -0.000034  -0.000000  -0.000000   0.000000   0.000000  -0.000000
    19  H    0.582302   0.010051   0.006849   0.000037  -0.000002  -0.000000
    20  H    0.010051   0.873883  -0.012514   0.046769  -0.001758  -0.000024
    21  H    0.006849  -0.012514   0.613144   0.001405   0.002294   0.000020
    22  H    0.000037   0.046769   0.001405   0.582176   0.001809   0.000120
    23  H   -0.000002  -0.001758   0.002294   0.001809   0.706760   0.047067
    24  H   -0.000000  -0.000024   0.000020   0.000120   0.047067   0.954087
    25  H   -0.000000  -0.000000   0.000000   0.000012   0.001044   0.050710
    26  H   -0.000000  -0.000000   0.000000   0.000010   0.002441   0.130435
    27  H    0.000000  -0.000000  -0.000000   0.000000   0.000000   0.000091
    28  H   -0.000014  -0.000872   0.000001  -0.000080   0.000000   0.000000
    29  H    0.000613   0.001459   0.000011  -0.000013  -0.000000   0.000000
              25         26         27         28         29
     1  C    0.000000   0.000000   0.000000  -0.000826  -0.004989
     2  S    0.000000   0.000000   0.000000  -0.014097   0.171266
     3  C    0.000000   0.000000   0.000000  -0.056142  -0.070355
     4  C    0.000000   0.000000   0.000000  -0.001292  -0.016731
     5  C    0.000000   0.000000   0.000000   0.000829  -0.004467
     6  C    0.000002   0.000006   0.000000   0.000058  -0.000396
     7  C   -0.000101  -0.000153  -0.000000   0.000022  -0.000024
     8  C   -0.002394  -0.004182   0.000000  -0.000000  -0.000001
     9  N    0.005167   0.008617   0.000001   0.000000   0.000000
    10  C    0.019294   0.106156   0.000495   0.000000  -0.000000
    11  C   -0.001502  -0.003852  -0.000001   0.000003   0.000002
    12  C   -0.099082  -0.178388   0.001392   0.000000  -0.000000
    13  S    0.109021  -0.105572   0.191510   0.000000   0.000000
    14  C   -0.000000   0.000000   0.000000   0.003132   0.002143
    15  N    0.000000   0.000000  -0.000000   0.014058  -0.039666
    16  H    0.000000   0.000000   0.000000   0.000003   0.000166
    17  H   -0.000000   0.000000   0.000000   0.000093   0.000118
    18  H   -0.000000  -0.000000   0.000000   0.000681   0.000302
    19  H   -0.000000  -0.000000   0.000000  -0.000014   0.000613
    20  H   -0.000000  -0.000000  -0.000000  -0.000872   0.001459
    21  H    0.000000   0.000000  -0.000000   0.000001   0.000011
    22  H    0.000012   0.000010   0.000000  -0.000080  -0.000013
    23  H    0.001044   0.002441   0.000000   0.000000  -0.000000
    24  H    0.050710   0.130435   0.000091   0.000000   0.000000
    25  H    0.638152   0.105658   0.002847   0.000000   0.000000
    26  H    0.105658   0.880829   0.004043   0.000000   0.000000
    27  H    0.002847   0.004043   0.781686  -0.000000  -0.000000
    28  H    0.000000   0.000000  -0.000000   0.686089   0.205447
    29  H    0.000000   0.000000  -0.000000   0.205447   0.636367
 Mulliken charges:
               1
     1  C   -0.465983
     2  S   -0.187169
     3  C    0.408149
     4  C   -0.520056
     5  C    0.533706
     6  C   -0.235563
     7  C   -0.017949
     8  C   -0.388178
     9  N    0.913263
    10  C    0.031034
    11  C   -0.651562
    12  C   -0.332563
    13  S   -0.255637
    14  C   -0.331164
    15  N   -0.455455
    16  H    0.115295
    17  H    0.137479
    18  H    0.137776
    19  H    0.206360
    20  H    0.289706
    21  H    0.129322
    22  H    0.285949
    23  H    0.097919
    24  H    0.030610
    25  H    0.171171
    26  H    0.053951
    27  H    0.017935
    28  H    0.162907
    29  H    0.118747
 Sum of Mulliken charges =  -0.00000
 Mulliken charges with hydrogens summed into heavy atoms:
               1
     1  C   -0.075433
     2  S   -0.187169
     3  C    0.408149
     4  C   -0.313696
     5  C    0.823411
     6  C   -0.106241
     7  C   -0.017949
     8  C   -0.290259
     9  N    0.913263
    10  C    0.061644
    11  C   -0.651562
    12  C   -0.107441
    13  S   -0.237701
    14  C   -0.045216
    15  N   -0.173801
 Electronic spatial extent (au):  <R**2>=           8366.9626
 Charge=             -0.0000 electrons
 Dipole moment (field-independent basis, Debye):
    X=              3.0398    Y=             -2.3542    Z=              1.1783  Tot=              4.0213
 Quadrupole moment (field-independent basis, Debye-Ang):
   XX=           -145.2688   YY=           -104.1921   ZZ=           -109.0381
   XY=              8.5214   XZ=             -1.8970   YZ=              1.4563
 Traceless Quadrupole moment (field-independent basis, Debye-Ang):
   XX=            -25.7691   YY=             15.3076   ZZ=             10.4615
   XY=              8.5214   XZ=             -1.8970   YZ=              1.4563
 Octapole moment (field-independent basis, Debye-Ang**2):
  XXX=            203.1649  YYY=            -14.2884  ZZZ=              2.1421  XYY=             24.6954
  XXY=             21.7539  XXZ=             13.0696  XZZ=              0.3169  YZZ=              1.0177
  YYZ=              2.0614  XYZ=              3.8386
 Hexadecapole moment (field-independent basis, Debye-Ang**3):
 XXXX=         -12917.1380 YYYY=           -579.3087 ZZZZ=           -142.7207 XXXY=            219.0690
 XXXZ=            -99.8292 YYYX=             -8.5514 YYYZ=              4.1046 ZZZX=             -0.1993
 ZZZY=              1.3520 XXYY=          -1929.1837 XXZZ=          -1921.0056 YYZZ=           -128.6246
 XXYZ=              0.8299 YYXZ=             -2.7503 ZZXY=              2.0574
 N-N= 1.089706047630D+03 E-N=-5.315994761810D+03  KE= 1.334530657453D+03
 PrsmSu:  requested number of processors reduced to:  13 ShMem   1 Linda.
 Calling FoFJK, ICntrl=      2127 FMM=F ISym2X=0 I1Cent= 0 IOpClX= 0 NMat=1 NMatS=1 NMatT=0.
 ***** Axes restored to original set *****
 -------------------------------------------------------------------
 Center     Atomic                   Forces (Hartrees/Bohr)
 Number     Number              X              Y              Z
 -------------------------------------------------------------------
      1        6          -0.007156582    0.014356783   -0.019926375
      2       16          -0.140566088    0.034245728   -0.072770254
      3        6           0.134564360    0.097168694   -0.133955342
      4        6          -0.102240977    0.053947608   -0.073694075
      5        6          -0.042126802    0.082202664   -0.062268025
      6        6           0.162986834   -0.027789814    0.028483734
      7        6          -0.010265455   -0.018166166    0.035591140
      8        6           0.133813484    0.058295180   -0.077566400
      9        7           1.644993915    0.506794206    0.974457392
     10        6          -0.129825010    0.733171837   -0.970209448
     11        6          -1.873509173   -0.664021048   -0.812896603
     12        6           0.215842015   -0.699347254    0.966782975
     13       16           0.019176299    0.026876242    0.061313798
     14        6           0.017975821   -0.057404832    0.045480134
     15        7          -0.117945811   -0.127428273    0.120357020
     16        1           0.039798167   -0.017892609    0.026782418
     17        1           0.001282051   -0.002900389    0.011020045
     18        1           0.002097547   -0.010314207    0.007222466
     19        1          -0.012537873    0.018027861   -0.021868008
     20        1          -0.082377317   -0.097084808    0.176518310
     21        1           0.123844782    0.056450594   -0.106573252
     22        1          -0.035291434    0.020357758   -0.005702681
     23        1           0.023792173    0.023404385   -0.033402021
     24        1           0.004172715   -0.018319935    0.006442196
     25        1           0.030965986   -0.039605029    0.025465136
     26        1           0.018143462    0.012156481   -0.007124918
     27        1          -0.015666266   -0.002712883   -0.055338685
     28        1           0.023393276    0.009429171   -0.020120772
     29        1          -0.027334100    0.036102053   -0.012499903
 -------------------------------------------------------------------
 Cartesian Forces:  Max     1.873509173 RMS     0.368311653

 GradGradGradGradGradGradGradGradGradGradGradGradGradGradGradGradGradGrad
 Berny optimization.
 FormGI is forming the generalized inverse of G from B-inverse, IUseBI=4.
 Internal  Forces:  Max     1.819873850 RMS     0.159432491
 Search for a local minimum.
 Step number   1 out of a maximum of  174
 All quantities printed in internal units (Hartrees-Bohrs-Radians)
 Mixed Optimization -- RFO/linear search
 Second derivative matrix not updated -- first step.
 ITU=  0
     Eigenvalues ---    0.00230   0.00230   0.00230   0.00511   0.00729
     Eigenvalues ---    0.01153   0.01353   0.01842   0.01925   0.02116
     Eigenvalues ---    0.02275   0.02323   0.02346   0.02784   0.03034
     Eigenvalues ---    0.03077   0.03239   0.03723   0.03881   0.04024
     Eigenvalues ---    0.04216   0.04579   0.04609   0.05214   0.05515
     Eigenvalues ---    0.06081   0.06371   0.06593   0.06963   0.07431
     Eigenvalues ---    0.07758   0.08156   0.08332   0.08951   0.09718
     Eigenvalues ---    0.09956   0.10071   0.10448   0.10476   0.10491
     Eigenvalues ---    0.10905   0.10938   0.11379   0.11664   0.13365
     Eigenvalues ---    0.13595   0.14952   0.15194   0.15480   0.15888
     Eigenvalues ---    0.15943   0.16000   0.16000   0.16000   0.16000
     Eigenvalues ---    0.16655   0.17312   0.17427   0.17509   0.18045
     Eigenvalues ---    0.18983   0.20149   0.20618   0.22013   0.22435
     Eigenvalues ---    0.25563   0.30226   0.35709   0.35764   0.37568
     Eigenvalues ---    0.38001   0.41699   0.52787   0.61410   0.63874
     Eigenvalues ---    0.65290   0.79749   0.91154   1.46681   1.86809
     Eigenvalues ---   10.39520
 RFO step:  Lambda=-8.60325134D-01 EMin= 2.30000000D-03
 Linear search not attempted -- first point.
 Maximum step size (   0.300) exceeded in Quadratic search.
    -- Step size scaled by   0.561
 Iteration  1 RMS(Cart)=  0.05768281 RMS(Int)=  0.00061981
 Iteration  2 RMS(Cart)=  0.00053710 RMS(Int)=  0.00015828
 Iteration  3 RMS(Cart)=  0.00000048 RMS(Int)=  0.00015828
 Variable       Old X    -DE/DX   Delta X   Delta X   Delta X     New X
                                 (Linear)    (Quad)   (Total)
    R1        4.33892  -0.04537   0.00000  -0.02714  -0.02714   4.31178
    R2        2.24498  -0.04344   0.00000  -0.02184  -0.02184   2.22314
    R3        2.04453   0.00671   0.00000   0.00309   0.00309   2.04762
    R4        2.04539   0.00679   0.00000   0.00313   0.00313   2.04852
    R5        3.67285   0.11542   0.00000   0.06259   0.06259   3.73544
    R6        2.82438  -0.04376   0.00000  -0.02190  -0.02211   2.80226
    R7        3.12468   0.03325   0.00000   0.01309   0.01327   3.13794
    R8        2.14236   0.17049   0.00000   0.04110   0.04110   2.18347
    R9        2.28032   0.24960   0.00000   0.07910   0.07912   2.35944
   R10        2.01699   0.02047   0.00000   0.00929   0.00929   2.02628
   R11        2.26893   0.22061   0.00000   0.07355   0.07371   2.34264
   R12        1.74178   0.19934   0.00000   0.07741   0.07760   1.81938
   R13        2.43604   0.14833   0.00000   0.05069   0.05072   2.48677
   R14        2.38541   0.18378   0.00000   0.06063   0.06042   2.44583
   R15        1.76541   0.17200   0.00000   0.06545   0.06545   1.83086
   R16        2.42005   0.33116   0.00000   0.04176   0.04160   2.46165
   R17        2.65955   0.13642   0.00000   0.05263   0.05249   2.71204
   R18        3.27165   0.16546   0.00000   0.08115   0.08104   3.35269
   R19        3.41998   0.05788   0.00000   0.00752   0.00745   3.42743
   R20        1.96008   0.04232   0.00000   0.01859   0.01859   1.97867
   R21        2.51679   0.02053   0.00000   0.03025   0.03050   2.54730
   R22        1.60688   1.81987   0.00000   0.09057   0.09072   1.69760
   R23        3.16213   0.23013   0.00000   0.06327   0.06339   3.22552
   R24        1.82895   0.54348   0.00000   0.11139   0.11109   1.94005
   R25        2.64596  -0.04794   0.00000  -0.00890  -0.00877   2.63719
   R26        2.63382  -0.07112   0.00000   0.01236   0.01249   2.64631
   R27        3.13212  -0.05182   0.00000   0.00506   0.00499   3.13711
   R28        3.10432  -0.05628   0.00000  -0.00141  -0.00154   3.10278
   R29        3.33201  -0.03860   0.00000  -0.01479  -0.01488   3.31713
   R30        3.41082   0.04906   0.00000   0.01290   0.01298   3.42379
   R31        3.43031  -0.05632   0.00000  -0.03355  -0.03355   3.39677
   R32        2.87911   0.06501   0.00000   0.03346   0.03349   2.91260
   R33        2.58026  -0.03373   0.00000  -0.00860  -0.00870   2.57156
   R34        2.87019  -0.01232   0.00000  -0.00707  -0.00707   2.86312
   R35        2.90706   0.04242   0.00000   0.02476   0.02475   2.93181
   R36        3.36530   0.20279   0.00000   0.04130   0.04152   3.40682
   R37        3.37022   0.12316   0.00000   0.02048   0.02044   3.39067
   R38        2.28588   0.02687   0.00000  -0.00167  -0.00174   2.28415
   R39        1.89687  -0.01559   0.00000  -0.00863  -0.00862   1.88825
    A1        2.33906  -0.03897   0.00000  -0.02146  -0.02148   2.31758
    A2        1.81576   0.00105   0.00000   0.00066   0.00065   1.81642
    A3        1.80646  -0.00119   0.00000  -0.00072  -0.00074   1.80571
    A4        1.77942   0.01992   0.00000   0.01102   0.01101   1.79043
    A5        1.76690   0.02075   0.00000   0.01130   0.01126   1.77816
    A6        1.94704   0.00188   0.00000   0.00111   0.00112   1.94816
    A7        2.84586  -0.06646   0.00000  -0.03014  -0.03060   2.81525
    A8        2.59372  -0.03100   0.00000  -0.00157  -0.00102   2.59269
    A9        1.52242  -0.00275   0.00000  -0.00656  -0.00641   1.51601
   A10        2.82485  -0.03198   0.00000  -0.01166  -0.01181   2.81305
   A11        1.52691  -0.00401   0.00000  -0.00298  -0.00299   1.52392
   A12        1.93120   0.03595   0.00000   0.01464   0.01479   1.94599
   A13        2.48139   0.02534   0.00000   0.01110   0.01118   2.49257
   A14        1.23476   0.06435   0.00000   0.02735   0.02705   1.26181
   A15        2.74295   0.03534   0.00000   0.01256   0.01228   2.75523
   A16        2.28953   0.00354   0.00000   0.00393   0.00382   2.29334
   A17        2.29386   0.03182   0.00000   0.00397   0.00389   2.29774
   A18        1.92853  -0.01495   0.00000  -0.00308  -0.00295   1.92558
   A19        1.52840   0.00839   0.00000  -0.00914  -0.00893   1.51947
   A20        2.05991  -0.01665   0.00000  -0.00083  -0.00089   2.05903
   A21        2.69063   0.00784   0.00000   0.01039   0.01023   2.70086
   A22        2.20846  -0.10306   0.00000  -0.00240  -0.00234   2.20613
   A23        2.15074  -0.08402   0.00000  -0.00310  -0.00311   2.14763
   A24        1.91919   0.18700   0.00000   0.00548   0.00543   1.92462
   A25        1.66477   0.09285   0.00000  -0.00729  -0.00722   1.65755
   A26        2.42643   0.07256   0.00000  -0.00643  -0.00657   2.41986
   A27        2.24803  -0.06925   0.00000  -0.00313  -0.00311   2.24491
   A28        2.37015  -0.02417   0.00000   0.01042   0.01035   2.38050
   A29        1.60550  -0.00284   0.00000   0.00980   0.00993   1.61543
   A30        1.53068  -0.10636   0.00000   0.01248   0.01244   1.54312
   A31        1.85678   0.13035   0.00000   0.00152   0.00145   1.85823
   A32        2.39107  -0.04328   0.00000   0.00193   0.00227   2.39334
   A33        2.44635   0.02757   0.00000   0.00377   0.00397   2.45032
   A34        2.73667  -0.03039   0.00000   0.00780   0.00800   2.74467
   A35        1.69553   0.14576   0.00000   0.01644   0.01600   1.71153
   A36        2.78308   0.19246   0.00000   0.04607   0.04568   2.82876
   A37        1.84358  -0.11043   0.00000  -0.02313  -0.02289   1.82068
   A38        2.11020  -0.23868   0.00000  -0.02026  -0.02024   2.08995
   A39        2.46828  -0.03859   0.00000   0.00003  -0.00008   2.46819
   A40        2.64979  -0.11387   0.00000  -0.01873  -0.01886   2.63093
   A41        1.76977  -0.01336   0.00000  -0.00421  -0.00431   1.76546
   A42        1.76747  -0.02687   0.00000  -0.00680  -0.00691   1.76057
   A43        2.23072  -0.01349   0.00000  -0.00275  -0.00270   2.22803
   A44        2.77012  -0.01104   0.00000  -0.00499  -0.00498   2.76514
   A45        1.53891   0.00838   0.00000   0.01531   0.01515   1.55406
   A46        2.03870  -0.04270   0.00000  -0.02306  -0.02309   2.01561
   A47        1.51379  -0.04780   0.00000  -0.02673  -0.02670   1.48708
   A48        2.78908  -0.00733   0.00000   0.00730   0.00730   2.79639
   A49        2.22107  -0.00682   0.00000  -0.00713  -0.00703   2.21403
   A50        1.53697  -0.02266   0.00000   0.01641   0.01676   1.55373
   A51        1.79589   0.08732   0.00000   0.00313   0.00302   1.79892
   A52        2.29188  -0.19945   0.00000  -0.02178  -0.02176   2.27012
   A53        1.40686   0.06602   0.00000   0.01870   0.01866   1.42552
   A54        1.39275   0.08205   0.00000   0.02135   0.02143   1.41418
   A55        1.66705  -0.03653   0.00000  -0.00179  -0.00167   1.66538
   A56        1.17222   0.03860   0.00000   0.00509   0.00492   1.17713
   A57        2.48145   0.01270   0.00000   0.00676   0.00675   2.48820
   A58        1.64869  -0.06519   0.00000  -0.00921  -0.00908   1.63961
   A59        1.17633   0.05694   0.00000   0.01091   0.01086   1.18719
   A60        2.41279   0.00695   0.00000   0.00105   0.00112   2.41391
   A61        3.10115  -0.01425   0.00000  -0.00924  -0.00924   3.09192
   A62        3.04933  -0.00675   0.00000  -0.00955  -0.00939   3.03993
   A63        3.15617   0.00172   0.00000   0.00143   0.00145   3.15761
   A64        3.13674   0.00129   0.00000  -0.00030  -0.00031   3.13643
    D1       -3.12639   0.00050   0.00000  -0.00029  -0.00030  -3.12669
    D2        3.10302  -0.00106   0.00000  -0.00067  -0.00067   3.10235
    D3        0.01929  -0.00093   0.00000  -0.00015  -0.00015   0.01914
    D4        1.02099   0.00075   0.00000  -0.00009  -0.00010   1.02089
    D5        0.96721  -0.00080   0.00000  -0.00047  -0.00047   0.96674
    D6       -2.11651  -0.00068   0.00000   0.00005   0.00004  -2.11647
    D7       -1.00852   0.00151   0.00000   0.00047   0.00047  -1.00804
    D8       -1.06230  -0.00004   0.00000   0.00009   0.00011  -1.06219
    D9        2.13716   0.00008   0.00000   0.00061   0.00062   2.13778
   D10        0.56839  -0.03869   0.00000  -0.02332  -0.02293   0.54546
   D11       -0.27603  -0.03039   0.00000  -0.01643  -0.01609  -0.29212
   D12       -0.38254  -0.03303   0.00000  -0.01485  -0.01456  -0.39710
   D13       -0.79325   0.01131   0.00000   0.00457   0.00458  -0.78868
   D14       -0.36384  -0.01588   0.00000  -0.01178  -0.01179  -0.37563
   D15       -3.13764  -0.01423   0.00000  -0.00674  -0.00673   3.13882
   D16       -2.70823  -0.04142   0.00000  -0.02309  -0.02309  -2.73132
   D17        3.13553  -0.00150   0.00000  -0.00425  -0.00424   3.13129
   D18       -0.06947  -0.00154   0.00000   0.00215   0.00203  -0.06744
   D19       -0.04535  -0.00315   0.00000  -0.00395  -0.00388  -0.04923
   D20        3.03282  -0.00319   0.00000   0.00246   0.00239   3.03522
   D21       -0.08516   0.00446   0.00000  -0.00377  -0.00375  -0.08891
   D22        3.10371  -0.00063   0.00000  -0.00517  -0.00508   3.09863
   D23        3.11210   0.01033   0.00000   0.00122   0.00114   3.11324
   D24        0.01779   0.00524   0.00000  -0.00018  -0.00020   0.01759
   D25        0.79886  -0.01351   0.00000   0.00287   0.00277   0.80163
   D26        0.89353  -0.01499   0.00000  -0.00201  -0.00195   0.89158
   D27        3.13084   0.01735   0.00000   0.00324   0.00324   3.13408
   D28       -0.12656   0.02792   0.00000   0.00336   0.00337  -0.12319
   D29       -3.13793   0.02522   0.00000   0.00084   0.00081  -3.13712
   D30       -0.11214   0.03579   0.00000   0.00096   0.00094  -0.11120
   D31       -0.06092   0.02291   0.00000   0.00469   0.00463  -0.05630
   D32        2.96486   0.03348   0.00000   0.00482   0.00476   2.96962
   D33       -0.32164   0.00645   0.00000   0.00563   0.00560  -0.31604
   D34        2.95106   0.01446   0.00000   0.00066   0.00056   2.95162
   D35        3.13754  -0.11543   0.00000  -0.00274  -0.00263   3.13491
   D36       -3.01261  -0.09764   0.00000  -0.00819  -0.00825  -3.02086
   D37        0.01653  -0.09105   0.00000  -0.00334  -0.00333   0.01319
   D38        0.09897  -0.11211   0.00000  -0.00243  -0.00233   0.09663
   D39        0.23200  -0.09432   0.00000  -0.00789  -0.00795   0.22405
   D40       -3.02205  -0.08774   0.00000  -0.00303  -0.00304  -3.02508
   D41        2.78925  -0.23110   0.00000  -0.01499  -0.01483   2.77442
   D42        0.48434  -0.03174   0.00000   0.00256   0.00251   0.48686
   D43       -0.45129  -0.23640   0.00000  -0.01526  -0.01508  -0.46637
   D44       -2.75619  -0.03704   0.00000   0.00229   0.00226  -2.75393
   D45        0.53876  -0.03800   0.00000  -0.00451  -0.00470   0.53406
   D46        3.01914  -0.01270   0.00000   0.00540   0.00558   3.02472
   D47       -2.62584  -0.06596   0.00000  -0.00414  -0.00421  -2.63005
   D48       -0.14545  -0.04066   0.00000   0.00576   0.00607  -0.13938
   D49       -0.20272  -0.00667   0.00000   0.00315   0.00327  -0.19945
   D50        3.13011  -0.07266   0.00000  -0.00876  -0.00915   3.12097
   D51        3.02649  -0.00691   0.00000  -0.00038  -0.00031   3.02618
   D52        0.07614  -0.07290   0.00000  -0.01229  -0.01273   0.06341
   D53        1.65529  -0.04063   0.00000  -0.00074  -0.00052   1.65477
   D54       -1.11759   0.05561   0.00000   0.01736   0.01742  -1.10017
   D55       -2.14269   0.21108   0.00000   0.04811   0.04784  -2.09485
   D56       -3.09187  -0.03291   0.00000  -0.00293  -0.00307  -3.09495
   D57        0.97583  -0.12020   0.00000  -0.03108  -0.03145   0.94438
   D58       -0.45106   0.00542   0.00000  -0.00998  -0.01030  -0.46136
   D59        2.83796  -0.10775   0.00000  -0.00536  -0.00550   2.83247
   D60        1.41108   0.01787   0.00000   0.01574   0.01565   1.42673
   D61       -2.57406  -0.04376   0.00000  -0.00848  -0.00866  -2.58272
   D62        2.94291  -0.06390   0.00000  -0.00650  -0.00667   2.93624
   D63        0.37042   0.03413   0.00000   0.00551   0.00568   0.37610
   D64       -0.39579   0.01399   0.00000   0.00749   0.00767  -0.38812
   D65        2.72241   0.02245   0.00000   0.00627   0.00617   2.72858
[...]
 HarFok:  IExCor=  402 AccDes= 0.00D+00 IRadAn=         4 IDoV= 1 UseB2=F ITyADJ=14
 ICtDFT=  3500011 ScaDFX=  1.000000  1.000000  1.000000  1.000000
 FoFCou: FMM=F IPFlag=           0 FMFlag=      100000 FMFlg1=           0
         NFxFlg=           0 DoJE=T BraDBF=F KetDBF=T FulRan=T
         wScrn=  0.000000 ICntrl=       500 IOpCl=  0 I1Cent=   200000004 NGrid=           0
         NMat0=    1 NMatS0=      1 NMatT0=    0 NMatD0=    1 NMtDS0=    0 NMtDT0=    0
 Petite list used in FoFCou.
 Requested convergence on RMS density matrix=1.00D-08 within 128 cycles.
 Requested convergence on MAX density matrix=1.00D-06.
 Requested convergence on             energy=1.00D-06.
 No special actions if energy rises.
 Integral accuracy reduced to 1.0D-05 until final iterations.
 Initial convergence to 1.0D-05 achieved.  Increase integral accuracy.
 SCF Done:  E(RB3LYP) =  -1332.62051809     A.U. after   16 cycles
            NFock= 16  Conv=0.72D-08     -V/T= 2.0047
 PrsmSu:  requested number of processors reduced to:  13 ShMem   1 Linda.
 Calling FoFJK, ICntrl=      2127 FMM=F ISym2X=0 I1Cent= 0 IOpClX= 0 NMat=1 NMatS=1 NMatT=0.
 ***** Axes restored to original set *****
 -------------------------------------------------------------------
 Center     Atomic                   Forces (Hartrees/Bohr)
 Number     Number              X              Y              Z
 -------------------------------------------------------------------
      1        6           0.003692392    0.004237921   -0.007763078
      2       16          -0.016539474    0.008680451   -0.009986636
      3        6           0.000411415    0.010423019   -0.044375558
      4        6           0.052805170   -0.020686246    0.043170279
      5        6           0.007267643    0.003687010    0.000639067
      6        6           0.002121913    0.008861259   -0.006344551
      7        6          -0.011043489   -0.016117545   -0.022402149
      8        6           0.029051249   -0.024928652    0.029651731
      9        7          -0.071780582   -0.027709273   -0.007809533
     10        6          -0.052759006   -0.001020100   -0.017145267
     11        6           0.035129154    0.008119842    0.003573434
     12        6           0.073678529    0.031864646   -0.084518215
     13       16           0.001692476   -0.008379496    0.008036208
     14        6           0.051518419   -0.007960840   -0.017552932
     15        7          -0.003901921   -0.001189406    0.024511627
     16        1          -0.003865691   -0.001888543    0.002799277
     17        1          -0.000931083    0.000842237   -0.000075630
     18        1          -0.001298446   -0.000277214    0.000380097
     19        1          -0.011386902    0.002069136   -0.002523029
     20        1          -0.047355407   -0.011534522   -0.004672618
     21        1           0.003319851    0.000408730    0.003451903
     22        1          -0.016741173    0.049016919    0.045486968
     23        1          -0.000441480    0.004842509   -0.001665765
     24        1           0.018745367   -0.017711581    0.031922479
     25        1           0.043118162    0.007404755    0.041174835
     26        1          -0.068261120   -0.007962327    0.000723419
     27        1          -0.003795931    0.014009653   -0.008330757
     28        1          -0.005873423   -0.017757745    0.013365493
     29        1          -0.006576613    0.010655402   -0.013721096
 -------------------------------------------------------------------
 Cartesian Forces:  Max     0.084518215 RMS     0.025685312

 GradGradGradGradGradGradGradGradGradGradGradGradGradGradGradGradGradGrad
 Berny optimization.
 Using GEDIIS/GDIIS optimizer.
 FormGI is forming the generalized inverse of G from B-inverse, IUseBI=4.
 Internal  Forces:  Max     0.043591001 RMS     0.010210239
 Search for a local minimum.
 Step number  15 out of a maximum of  174
 All quantities printed in internal units (Hartrees-Bohrs-Radians)
 Mixed Optimization -- RFO/linear search
 Update second derivatives using D2CorX and points   14   15
 DE= -9.10D-02 DEPred=-8.93D-02 R= 1.02D+00
 TightC=F SS=  1.41D+00  RLast= 3.23D+00 DXNew= 1.0091D+00 9.7009D+00
 Trust test= 1.02D+00 RLast= 3.23D+00 DXMaxT set to 1.01D+00
 ITU=  1  0  0  1  0 -1 -1  0  1  0  1  0  0  1  0
 Use linear search instead of GDIIS.
 Linear search step of   1.340 exceeds DXMaxT=   1.009 but not scaled.
 Quartic linear search produced a step of  1.95830.
 Iteration  1 RMS(Cart)=  0.01826937 RMS(Int)=  0.34569265
 Iteration  2 RMS(Cart)=  0.05169377 RMS(Int)=  0.33738076
 Iteration  3 RMS(Cart)=  0.10370537 RMS(Int)=  0.33459048
 Iteration  4 RMS(Cart)=  0.01238674 RMS(Int)=  0.32404385
 Iteration  5 RMS(Cart)=  0.00064008 RMS(Int)=  0.30069123
 Iteration  6 RMS(Cart)=  0.00010550 RMS(Int)=  0.27645250
 Iteration  7 RMS(Cart)=  0.00016994 RMS(Int)=  0.25391421
 Iteration  8 RMS(Cart)=  0.00019960 RMS(Int)=  0.23525426
 Iteration  9 RMS(Cart)=  0.00015168 RMS(Int)=  0.22339645
 Iteration 10 RMS(Cart)=  0.00008312 RMS(Int)=  0.21738497
 Iteration 11 RMS(Cart)=  0.00004996 RMS(Int)=  0.21397871
 Iteration 12 RMS(Cart)=  0.00003803 RMS(Int)=  0.21144875
 Iteration 13 RMS(Cart)=  0.00003309 RMS(Int)=  0.20920295
 Iteration 14 RMS(Cart)=  0.00003054 RMS(Int)=  0.20710758
 Iteration 15 RMS(Cart)=  0.00002899 RMS(Int)=  0.20509471
 Iteration 16 RMS(Cart)=  0.00002783 RMS(Int)=  0.20312493
 Iteration 17 RMS(Cart)=  0.00002746 RMS(Int)=  0.20117508
 Iteration 18 RMS(Cart)=  0.00002652 RMS(Int)=  0.19922329
 Iteration 19 RMS(Cart)=  0.00002590 RMS(Int)=  0.19725048
 Iteration 20 RMS(Cart)=  0.00002588 RMS(Int)=  0.19522507
 Iteration 21 RMS(Cart)=  0.00002563 RMS(Int)=  0.19310141
 Iteration 22 RMS(Cart)=  0.00002543 RMS(Int)=  0.19077453
 Iteration 23 RMS(Cart)=  0.00003722 RMS(Int)=  0.18577176
 Iteration 24 RMS(Cart)=  0.00001586 RMS(Int)=  0.18353723
 Iteration 25 RMS(Cart)=  0.00018607 RMS(Int)=  0.18037853
 Iteration 26 RMS(Cart)=  0.00037332 RMS(Int)=  0.17642556
 Iteration 27 RMS(Cart)=  0.00088699 RMS(Int)=  0.15776111
 Iteration 28 RMS(Cart)=  0.00172481 RMS(Int)=  0.15114212
 Iteration 29 RMS(Cart)=  0.00038099 RMS(Int)=  0.13955385
 Iteration 30 RMS(Cart)=  0.00020691 RMS(Int)=  0.13777106
 New curvilinear step failed, DQL= 4.98D+00 SP=-9.96D-01.
 ITry= 1 IFail=1 DXMaxC= 9.99D-01 DCOld= 1.00D+10 DXMaxT= 1.01D+00 DXLimC= 3.00D+00 Rises=F
 Iteration  1 RMS(Cart)=  0.01826937 RMS(Int)=  0.34569265
 Iteration  2 RMS(Cart)=  0.05169377 RMS(Int)=  0.33738076
 Iteration  3 RMS(Cart)=  0.10370537 RMS(Int)=  0.33459048
 Iteration  4 RMS(Cart)=  0.01238674 RMS(Int)=  0.32404385
 Iteration  5 RMS(Cart)=  0.00064008 RMS(Int)=  0.30069123
 Iteration  6 RMS(Cart)=  0.00010550 RMS(Int)=  0.27645250
 Iteration  7 RMS(Cart)=  0.00016994 RMS(Int)=  0.25391421
 Iteration  8 RMS(Cart)=  0.00019960 RMS(Int)=  0.23525426
 Iteration  9 RMS(Cart)=  0.00015168 RMS(Int)=  0.22339645
 Iteration 10 RMS(Cart)=  0.00008312 RMS(Int)=  0.21738497
 Iteration 11 RMS(Cart)=  0.00004996 RMS(Int)=  0.21397871
 Iteration 12 RMS(Cart)=  0.00003803 RMS(Int)=  0.21144875
 Iteration 13 RMS(Cart)=  0.00003309 RMS(Int)=  0.20920295
 Iteration 14 RMS(Cart)=  0.00003054 RMS(Int)=  0.20710758
 Iteration 15 RMS(Cart)=  0.00002899 RMS(Int)=  0.20509471
 Iteration 16 RMS(Cart)=  0.00002783 RMS(Int)=  0.20312493
 Iteration 17 RMS(Cart)=  0.00002746 RMS(Int)=  0.20117508
 Iteration 18 RMS(Cart)=  0.00002652 RMS(Int)=  0.19922329
 Iteration 19 RMS(Cart)=  0.00002590 RMS(Int)=  0.19725048
 Iteration 20 RMS(Cart)=  0.00002588 RMS(Int)=  0.19522507
 Iteration 21 RMS(Cart)=  0.00002563 RMS(Int)=  0.19310141
 Iteration 22 RMS(Cart)=  0.00002543 RMS(Int)=  0.19077453
 Iteration 23 RMS(Cart)=  0.00003722 RMS(Int)=  0.18577176
 Iteration 24 RMS(Cart)=  0.00001586 RMS(Int)=  0.18353723
 Iteration 25 RMS(Cart)=  0.00018607 RMS(Int)=  0.18037853
 Iteration 26 RMS(Cart)=  0.00037332 RMS(Int)=  0.17642556
 Iteration 27 RMS(Cart)=  0.00088699 RMS(Int)=  0.15776111
 Iteration 28 RMS(Cart)=  0.00172481 RMS(Int)=  0.15114212
 Iteration 29 RMS(Cart)=  0.00038099 RMS(Int)=  0.13955385
 Iteration 30 RMS(Cart)=  0.00020691 RMS(Int)=  0.13777106
 New curvilinear step failed, DQL= 4.98D+00 SP=-9.96D-01.
 ITry= 2 IFail=1 DXMaxC= 9.99D-01 DCOld= 1.00D+10 DXMaxT= 1.01D+00 DXLimC= 3.00D+00 Rises=F
 Iteration  1 RMS(Cart)=  0.01826937 RMS(Int)=  0.34569265
 Iteration  2 RMS(Cart)=  0.05169377 RMS(Int)=  0.33738076
 Iteration  3 RMS(Cart)=  0.10370537 RMS(Int)=  0.33459048
 Iteration  4 RMS(Cart)=  0.01238674 RMS(Int)=  0.32404385
 Iteration  5 RMS(Cart)=  0.00064008 RMS(Int)=  0.30069123
 Iteration  6 RMS(Cart)=  0.00010550 RMS(Int)=  0.27645250
 Iteration  7 RMS(Cart)=  0.00016994 RMS(Int)=  0.25391421
 Iteration  8 RMS(Cart)=  0.00019960 RMS(Int)=  0.23525426
 Iteration  9 RMS(Cart)=  0.00015168 RMS(Int)=  0.22339645
 Iteration 10 RMS(Cart)=  0.00008312 RMS(Int)=  0.21738497
 Iteration 11 RMS(Cart)=  0.00004996 RMS(Int)=  0.21397871
 Iteration 12 RMS(Cart)=  0.00003803 RMS(Int)=  0.21144875
 Iteration 13 RMS(Cart)=  0.00003309 RMS(Int)=  0.20920295
 Iteration 14 RMS(Cart)=  0.00003054 RMS(Int)=  0.20710758
 Iteration 15 RMS(Cart)=  0.00002899 RMS(Int)=  0.20509471
 Iteration 16 RMS(Cart)=  0.00002783 RMS(Int)=  0.20312493
 Iteration 17 RMS(Cart)=  0.00002746 RMS(Int)=  0.20117508
 Iteration 18 RMS(Cart)=  0.00002652 RMS(Int)=  0.19922329
 Iteration 19 RMS(Cart)=  0.00002590 RMS(Int)=  0.19725048
 Iteration 20 RMS(Cart)=  0.00002588 RMS(Int)=  0.19522507
 Iteration 21 RMS(Cart)=  0.00002563 RMS(Int)=  0.19310141
 Iteration 22 RMS(Cart)=  0.00002543 RMS(Int)=  0.19077453
 Iteration 23 RMS(Cart)=  0.00003722 RMS(Int)=  0.18577176
 Iteration 24 RMS(Cart)=  0.00001586 RMS(Int)=  0.18353723
 Iteration 25 RMS(Cart)=  0.00018607 RMS(Int)=  0.18037853
 Iteration 26 RMS(Cart)=  0.00037332 RMS(Int)=  0.17642556
 Iteration 27 RMS(Cart)=  0.00088699 RMS(Int)=  0.15776111
 Iteration 28 RMS(Cart)=  0.00172481 RMS(Int)=  0.15114212
 Iteration 29 RMS(Cart)=  0.00038099 RMS(Int)=  0.13955385
 Iteration 30 RMS(Cart)=  0.00020691 RMS(Int)=  0.13777106
 New curvilinear step failed, DQL= 4.98D+00 SP=-9.96D-01.
 ITry= 3 IFail=1 DXMaxC= 9.99D-01 DCOld= 1.00D+10 DXMaxT= 1.01D+00 DXLimC= 3.00D+00 Rises=F
 Iteration  1 RMS(Cart)=  0.01826937 RMS(Int)=  0.34569265
 Iteration  2 RMS(Cart)=  0.05169377 RMS(Int)=  0.33738076
 Iteration  3 RMS(Cart)=  0.10370537 RMS(Int)=  0.33459048
 Iteration  4 RMS(Cart)=  0.01238674 RMS(Int)=  0.32404385
 Iteration  5 RMS(Cart)=  0.00064008 RMS(Int)=  0.30069123
 Iteration  6 RMS(Cart)=  0.00010550 RMS(Int)=  0.27645250
 Iteration  7 RMS(Cart)=  0.00016994 RMS(Int)=  0.25391421
 Iteration  8 RMS(Cart)=  0.00019960 RMS(Int)=  0.23525426
 Iteration  9 RMS(Cart)=  0.00015168 RMS(Int)=  0.22339645
 Iteration 10 RMS(Cart)=  0.00008312 RMS(Int)=  0.21738497
 Iteration 11 RMS(Cart)=  0.00004996 RMS(Int)=  0.21397871
 Iteration 12 RMS(Cart)=  0.00003803 RMS(Int)=  0.21144875
 Iteration 13 RMS(Cart)=  0.00003309 RMS(Int)=  0.20920295
 Iteration 14 RMS(Cart)=  0.00003054 RMS(Int)=  0.20710758
 Iteration 15 RMS(Cart)=  0.00002899 RMS(Int)=  0.20509471
 Iteration 16 RMS(Cart)=  0.00002783 RMS(Int)=  0.20312493
 Iteration 17 RMS(Cart)=  0.00002746 RMS(Int)=  0.20117508
 Iteration 18 RMS(Cart)=  0.00002652 RMS(Int)=  0.19922329
 Iteration 19 RMS(Cart)=  0.00002590 RMS(Int)=  0.19725048
 Iteration 20 RMS(Cart)=  0.00002588 RMS(Int)=  0.19522507
 Iteration 21 RMS(Cart)=  0.00002563 RMS(Int)=  0.19310141
 Iteration 22 RMS(Cart)=  0.00002543 RMS(Int)=  0.19077453
 Iteration 23 RMS(Cart)=  0.00003722 RMS(Int)=  0.18577176
 Iteration 24 RMS(Cart)=  0.00001586 RMS(Int)=  0.18353723
 Iteration 25 RMS(Cart)=  0.00018607 RMS(Int)=  0.18037853
 Iteration 26 RMS(Cart)=  0.00037332 RMS(Int)=  0.17642556
 Iteration 27 RMS(Cart)=  0.00088699 RMS(Int)=  0.15776111
 Iteration 28 RMS(Cart)=  0.00172481 RMS(Int)=  0.15114212
 Iteration 29 RMS(Cart)=  0.00038099 RMS(Int)=  0.13955385
 Iteration 30 RMS(Cart)=  0.00020691 RMS(Int)=  0.13777106
 New curvilinear step failed, DQL= 4.98D+00 SP=-9.96D-01.
 ITry= 4 IFail=1 DXMaxC= 9.99D-01 DCOld= 1.00D+10 DXMaxT= 1.01D+00 DXLimC= 3.00D+00 Rises=F
 Iteration  1 RMS(Cart)=  0.01826937 RMS(Int)=  0.34569265
 Iteration  2 RMS(Cart)=  0.05169377 RMS(Int)=  0.33738076
 Iteration  3 RMS(Cart)=  0.10370537 RMS(Int)=  0.33459048
 Iteration  4 RMS(Cart)=  0.01238674 RMS(Int)=  0.32404385
 Iteration  5 RMS(Cart)=  0.00064008 RMS(Int)=  0.30069123
 Iteration  6 RMS(Cart)=  0.00010550 RMS(Int)=  0.27645250
 Iteration  7 RMS(Cart)=  0.00016994 RMS(Int)=  0.25391421
 Iteration  8 RMS(Cart)=  0.00019960 RMS(Int)=  0.23525426
 Iteration  9 RMS(Cart)=  0.00015168 RMS(Int)=  0.22339645
 Iteration 10 RMS(Cart)=  0.00008312 RMS(Int)=  0.21738497
 Iteration 11 RMS(Cart)=  0.00004996 RMS(Int)=  0.21397871
 Iteration 12 RMS(Cart)=  0.00003803 RMS(Int)=  0.21144875
 Iteration 13 RMS(Cart)=  0.00003309 RMS(Int)=  0.20920295
 Iteration 14 RMS(Cart)=  0.00003054 RMS(Int)=  0.20710758
 Iteration 15 RMS(Cart)=  0.00002899 RMS(Int)=  0.20509471
 Iteration 16 RMS(Cart)=  0.00002783 RMS(Int)=  0.20312493
 Iteration 17 RMS(Cart)=  0.00002746 RMS(Int)=  0.20117508
 Iteration 18 RMS(Cart)=  0.00002652 RMS(Int)=  0.19922329
 Iteration 19 RMS(Cart)=  0.00002590 RMS(Int)=  0.19725048
 Iteration 20 RMS(Cart)=  0.00002588 RMS(Int)=  0.19522507
 Iteration 21 RMS(Cart)=  0.00002563 RMS(Int)=  0.19310141
 Iteration 22 RMS(Cart)=  0.00002543 RMS(Int)=  0.19077453
 Iteration 23 RMS(Cart)=  0.00003722 RMS(Int)=  0.18577176
 Iteration 24 RMS(Cart)=  0.00001586 RMS(Int)=  0.18353723
 Iteration 25 RMS(Cart)=  0.00018607 RMS(Int)=  0.18037853
 Iteration 26 RMS(Cart)=  0.00037332 RMS(Int)=  0.17642556
 Iteration 27 RMS(Cart)=  0.00088699 RMS(Int)=  0.15776111
 Iteration 28 RMS(Cart)=  0.00172481 RMS(Int)=  0.15114212
 Iteration 29 RMS(Cart)=  0.00038099 RMS(Int)=  0.13955385
 Iteration 30 RMS(Cart)=  0.00020691 RMS(Int)=  0.13777106
 New curvilinear step failed, DQL= 4.98D+00 SP=-9.96D-01.
 ITry= 5 IFail=1 DXMaxC= 9.99D-01 DCOld= 1.00D+10 DXMaxT= 1.01D+00 DXLimC= 3.00D+00 Rises=F
 Iteration  1 RMS(Cart)=  0.01826937 RMS(Int)=  0.34569265
 Iteration  2 RMS(Cart)=  0.05169377 RMS(Int)=  0.33738076
 Iteration  3 RMS(Cart)=  0.10370537 RMS(Int)=  0.33459048
 Iteration  4 RMS(Cart)=  0.01238674 RMS(Int)=  0.32404385
 Iteration  5 RMS(Cart)=  0.00064008 RMS(Int)=  0.30069123
 Iteration  6 RMS(Cart)=  0.00010550 RMS(Int)=  0.27645250
 Iteration  7 RMS(Cart)=  0.00016994 RMS(Int)=  0.25391421
 Iteration  8 RMS(Cart)=  0.00019960 RMS(Int)=  0.23525426
 Iteration  9 RMS(Cart)=  0.00015168 RMS(Int)=  0.22339645
 Iteration 10 RMS(Cart)=  0.00008312 RMS(Int)=  0.21738497
 Iteration 11 RMS(Cart)=  0.00004996 RMS(Int)=  0.21397871
 Iteration 12 RMS(Cart)=  0.00003803 RMS(Int)=  0.21144875
 Iteration 13 RMS(Cart)=  0.00003309 RMS(Int)=  0.20920295
 Iteration 14 RMS(Cart)=  0.00003054 RMS(Int)=  0.20710758
 Iteration 15 RMS(Cart)=  0.00002899 RMS(Int)=  0.20509471
 Iteration 16 RMS(Cart)=  0.00002783 RMS(Int)=  0.20312493
 Iteration 17 RMS(Cart)=  0.00002746 RMS(Int)=  0.20117508
 Iteration 18 RMS(Cart)=  0.00002652 RMS(Int)=  0.19922329
 Iteration 19 RMS(Cart)=  0.00002590 RMS(Int)=  0.19725048
 Iteration 20 RMS(Cart)=  0.00002588 RMS(Int)=  0.19522507
 Iteration 21 RMS(Cart)=  0.00002563 RMS(Int)=  0.19310141
 Iteration 22 RMS(Cart)=  0.00002543 RMS(Int)=  0.19077453
 Iteration 23 RMS(Cart)=  0.00003722 RMS(Int)=  0.18577176
 Iteration 24 RMS(Cart)=  0.00001586 RMS(Int)=  0.18353723
 Iteration 25 RMS(Cart)=  0.00018607 RMS(Int)=  0.18037853
 Iteration 26 RMS(Cart)=  0.00037332 RMS(Int)=  0.17642556
 Iteration 27 RMS(Cart)=  0.00088699 RMS(Int)=  0.15776111
 Iteration 28 RMS(Cart)=  0.00172481 RMS(Int)=  0.15114212
 Iteration 29 RMS(Cart)=  0.00038099 RMS(Int)=  0.13955385
 Iteration 30 RMS(Cart)=  0.00020691 RMS(Int)=  0.13777106
 New curvilinear step failed, DQL= 4.98D+00 SP=-9.96D-01.
 ITry= 6 IFail=1 DXMaxC= 9.99D-01 DCOld= 1.00D+10 DXMaxT= 1.01D+00 DXLimC= 3.00D+00 Rises=F
 Iteration  1 RMS(Cart)=  0.01826937 RMS(Int)=  0.34569265
 Iteration  2 RMS(Cart)=  0.05169377 RMS(Int)=  0.33738076
 Iteration  3 RMS(Cart)=  0.10370537 RMS(Int)=  0.33459048
 Iteration  4 RMS(Cart)=  0.01238674 RMS(Int)=  0.32404385
 Iteration  5 RMS(Cart)=  0.00064008 RMS(Int)=  0.30069123
 Iteration  6 RMS(Cart)=  0.00010550 RMS(Int)=  0.27645250
 Iteration  7 RMS(Cart)=  0.00016994 RMS(Int)=  0.25391421
 Iteration  8 RMS(Cart)=  0.00019960 RMS(Int)=  0.23525426
 Iteration  9 RMS(Cart)=  0.00015168 RMS(Int)=  0.22339645
 Iteration 10 RMS(Cart)=  0.00008312 RMS(Int)=  0.21738497
 Iteration 11 RMS(Cart)=  0.00004996 RMS(Int)=  0.21397871
 Iteration 12 RMS(Cart)=  0.00003803 RMS(Int)=  0.21144875
 Iteration 13 RMS(Cart)=  0.00003309 RMS(Int)=  0.20920295
 Iteration 14 RMS(Cart)=  0.00003054 RMS(Int)=  0.20710758
 Iteration 15 RMS(Cart)=  0.00002899 RMS(Int)=  0.20509471
 Iteration 16 RMS(Cart)=  0.00002783 RMS(Int)=  0.20312493
 Iteration 17 RMS(Cart)=  0.00002746 RMS(Int)=  0.20117508
 Iteration 18 RMS(Cart)=  0.00002652 RMS(Int)=  0.19922329
 Iteration 19 RMS(Cart)=  0.00002590 RMS(Int)=  0.19725048
 Iteration 20 RMS(Cart)=  0.00002588 RMS(Int)=  0.19522507
 Iteration 21 RMS(Cart)=  0.00002563 RMS(Int)=  0.19310141
 Iteration 22 RMS(Cart)=  0.00002543 RMS(Int)=  0.19077453
 Iteration 23 RMS(Cart)=  0.00003722 RMS(Int)=  0.18577176
 Iteration 24 RMS(Cart)=  0.00001586 RMS(Int)=  0.18353723
 Iteration 25 RMS(Cart)=  0.00018607 RMS(Int)=  0.18037853
 Iteration 26 RMS(Cart)=  0.00037332 RMS(Int)=  0.17642556
 Iteration 27 RMS(Cart)=  0.00088699 RMS(Int)=  0.15776111
 Iteration 28 RMS(Cart)=  0.00172481 RMS(Int)=  0.15114212
 Iteration 29 RMS(Cart)=  0.00038099 RMS(Int)=  0.13955385
 Iteration 30 RMS(Cart)=  0.00020691 RMS(Int)=  0.13777106
 New curvilinear step failed, DQL= 4.98D+00 SP=-9.96D-01.
 ITry= 7 IFail=1 DXMaxC= 9.99D-01 DCOld= 1.00D+10 DXMaxT= 1.01D+00 DXLimC= 3.00D+00 Rises=F
 Iteration  1 RMS(Cart)=  0.01826937 RMS(Int)=  0.34569265
 Iteration  2 RMS(Cart)=  0.05169377 RMS(Int)=  0.33738076
 Iteration  3 RMS(Cart)=  0.10370537 RMS(Int)=  0.33459048
 Iteration  4 RMS(Cart)=  0.01238674 RMS(Int)=  0.32404385
 Iteration  5 RMS(Cart)=  0.00064008 RMS(Int)=  0.30069123
 Iteration  6 RMS(Cart)=  0.00010550 RMS(Int)=  0.27645250
 Iteration  7 RMS(Cart)=  0.00016994 RMS(Int)=  0.25391421
 Iteration  8 RMS(Cart)=  0.00019960 RMS(Int)=  0.23525426
 Iteration  9 RMS(Cart)=  0.00015168 RMS(Int)=  0.22339645
 Iteration 10 RMS(Cart)=  0.00008312 RMS(Int)=  0.21738497
 Iteration 11 RMS(Cart)=  0.00004996 RMS(Int)=  0.21397871
 Iteration 12 RMS(Cart)=  0.00003803 RMS(Int)=  0.21144875
 Iteration 13 RMS(Cart)=  0.00003309 RMS(Int)=  0.20920295
 Iteration 14 RMS(Cart)=  0.00003054 RMS(Int)=  0.20710758
 Iteration 15 RMS(Cart)=  0.00002899 RMS(Int)=  0.20509471
 Iteration 16 RMS(Cart)=  0.00002783 RMS(Int)=  0.20312493
 Iteration 17 RMS(Cart)=  0.00002746 RMS(Int)=  0.20117508
 Iteration 18 RMS(Cart)=  0.00002652 RMS(Int)=  0.19922329
 Iteration 19 RMS(Cart)=  0.00002590 RMS(Int)=  0.19725048
 Iteration 20 RMS(Cart)=  0.00002588 RMS(Int)=  0.19522507
 Iteration 21 RMS(Cart)=  0.00002563 RMS(Int)=  0.19310141
 Iteration 22 RMS(Cart)=  0.00002543 RMS(Int)=  0.19077453
 Iteration 23 RMS(Cart)=  0.00003722 RMS(Int)=  0.18577176
 Iteration 24 RMS(Cart)=  0.00001586 RMS(Int)=  0.18353723
 Iteration 25 RMS(Cart)=  0.00018607 RMS(Int)=  0.18037853
 Iteration 26 RMS(Cart)=  0.00037332 RMS(Int)=  0.17642556
 Iteration 27 RMS(Cart)=  0.00088699 RMS(Int)=  0.15776111
 Iteration 28 RMS(Cart)=  0.00172481 RMS(Int)=  0.15114212
 Iteration 29 RMS(Cart)=  0.00038099 RMS(Int)=  0.13955385
 Iteration 30 RMS(Cart)=  0.00020691 RMS(Int)=  0.13777106
 New curvilinear step failed, DQL= 4.98D+00 SP=-9.96D-01.
 ITry= 8 IFail=1 DXMaxC= 9.99D-01 DCOld= 1.00D+10 DXMaxT= 1.01D+00 DXLimC= 3.00D+00 Rises=F
slurmstepd: error: *** JOB 27447016 ON lewis4-r630-hpc4rc-node353 CANCELLED AT 2023-05-17T19:53:00 DUE TO TIME LIMIT ***
