### Starting Gaussian ###
 Entering Gaussian System, Link 0=g16
 Initial command:
 /cluster/software/gaussian/gaussian-16-A.03/avx2/g16/l1.exe "/local/scratch/cz9n3/Gau-13659.inp" -scrdir="/local/scratch/cz9n3/"
 Entering Link 1 = /cluster/software/gaussian/gaussian-16-A.03/avx2/g16/l1.exe PID=     13660.
  
 Copyright (c) 1988,1990,1992,1993,1995,1998,2003,2009,2016,
            Gaussian, Inc.  All Rights Reserved.
  
 This is part of the Gaussian(R) 16 program.  It is based on
 the Gaussian(R) 09 system (copyright 2009, Gaussian, Inc.),
 the Gaussian(R) 03 system (copyright 2003, Gaussian, Inc.),
 the Gaussian(R) 98 system (copyright 1998, Gaussian, Inc.),
 the Gaussian(R) 94 system (copyright 1995, Gaussian, Inc.),
 the Gaussian 92(TM) system (copyright 1992, Gaussian, Inc.),
 the Gaussian 90(TM) system (copyright 1990, Gaussian, Inc.),
 the Gaussian 88(TM) system (copyright 1988, Gaussian, Inc.),
 the Gaussian 86(TM) system (copyright 1986, Carnegie Mellon
 University), and the Gaussian 82(TM) system (copyright 1983,
 Carnegie Mellon University). Gaussian is a federally registered
 trademark of Gaussian, Inc.
  
 This software contains proprietary and confidential information,
 including trade secrets, belonging to Gaussian, Inc.
  
 This software is provided under written license and may be
 used, copied, transmitted, or stored only in accord with that
 written license.
  
 The following legend is applicable only to US Government
 contracts under FAR:
  
                    RESTRICTED RIGHTS LEGEND
  
 Use, reproduction and disclosure by the US Government is
 subject to restrictions as set forth in subparagraphs (a)
 and (c) of the Commercial Computer Software - Restricted
 Rights clause in FAR 52.227-19.
  
 Gaussian, Inc.
 340 Quinnipiac St., Bldg. 40, Wallingford CT 06492
  
  
 ---------------------------------------------------------------
 Warning -- This program may not be used in any manner that
 competes with the business of Gaussian, Inc. or will provide
 assistance to any competitor of Gaussian, Inc.  The licensee
 of this program is prohibited from giving any competitor of
 Gaussian, Inc. access to this program.  By using this program,
 the user acknowledges that Gaussian, Inc. is engaged in the
 business of creating and licensing software in the field of
 computational chemistry and represents and warrants to the
 licensee that it is not a competitor of Gaussian, Inc. and that
 it will not use this program in any manner prohibited above.
 ---------------------------------------------------------------
  

 Cite this work as:
 Gaussian 16, Revision A.03,
 M. J. Frisch, G. W. Trucks, H. B. Schlegel, G. E. Scuseria, 
 M. A. Robb, J. R. Cheeseman, G. Scalmani, V. Barone, 
 G. A. Petersson, H. Nakatsuji, X. Li, M. Caricato, A. V. Marenich, 
 J. Bloino, B. G. Janesko, R. Gomperts, B. Mennucci, H. P. Hratchian, 
 J. V. Ortiz, A. F. Izmaylov, J. L. Sonnenberg, D. Williams-Young, 
 F. Ding, F. Lipparini, F. Egidi, J. Goings, B. Peng, A. Petrone, 
 T. Henderson, D. Ranasinghe, V. G. Zakrzewski, J. Gao, N. Rega, 
 G. Zheng, W. Liang, M. Hada, M. Ehara, K. Toyota, R. Fukuda, 
 J. Hasegawa, M. Ishida, T. Nakajima, Y. Honda, O. Kitao, H. Nakai, 
 T. Vreven, K. Throssell, J. A. Montgomery, Jr., J. E. Peralta, 
 F. Ogliaro, M. J. Bearpark, J. J. Heyd, E. N. Brothers, K. N. Kudin, 
 V. N. Staroverov, T. A. Keith, R. Kobayashi, J. Normand, 
 K. Raghavachari, A. P. Rendell, J. C. Burant, S. S. Iyengar, 
 J. Tomasi, M. Cossi, J. M. Millam, M. Klene, C. Adamo, R. Cammi, 
 J. W. Ochterski, R. L. Martin, K. Morokuma, O. Farkas, 
 J. B. Foresman, and D. J. Fox, Gaussian, Inc., Wallingford CT, 2016.
 
 ******************************************
 Gaussian 16:  ES64L-G16RevA.03 25-Dec-2016
                17-May-2023 
 ******************************************
 %chk=CSC1dc2ccccc2dNNdS2CdC12.chk
 %NProcShared=20
 Will use up to   20 processors via shared memory.
 -----------------------------
 # opt freq b3lyp/6-31g(2df,p)
 -----------------------------
 1/18=20,19=15,26=3,38=1/1,3;
 2/9=110,12=2,17=6,18=5,40=1/2;
 3/5=1,6=6,7=104,11=2,25=1,30=1,71=1,74=-5/1,2,3;
 4//1;
 5/5=2,38=5/2;
 6/7=2,8=2,9=2,10=2,28=1/1;
 7//1,2,3,16;
 1/18=20,19=15,26=3/3(2);
 2/9=110/2;
 99//99;
 2/9=110/2;
 3/5=1,6=6,7=104,11=2,25=1,30=1,71=1,74=-5/1,2,3;
 4/5=5,16=3,69=1/1;
 5/5=2,38=5/2;
 7//1,2,3,16;
 1/18=20,19=15,26=3/3(-5);
 2/9=110/2;
 6/7=2,8=2,9=2,10=2,19=2,28=1/1;
 99/9=1/99;
 -------------------
 Title Card Required
 -------------------
 Symbolic Z-matrix:
 Charge =  0 Multiplicity = 1
 C                     0.52567   0.31305   0.40444 
 S                     1.9926    1.09739   1.07575 
 C                     3.34469   0.01236   0.75148 
 C                     4.55996   0.36618   1.29732 
 C                     4.87986   1.15078   2.53921 
 C                     6.13252   1.56176   2.837 
 C                     7.25695   1.17163   2.01649 
 C                     7.09455   0.43083   0.93733 
 C                     5.74424   0.213     0.34217 
 N                     5.78374   0.1182   -0.95746 
 N                     4.62495   0.20823  -1.62543 
 S                     4.17234  -1.20557  -1.8612 
 C                     2.50057  -1.06726  -1.45884 
 C                     3.22265  -0.95237  -0.3561 
 H                     0.50805  -0.10221  -0.59965 
 H                    -0.23112   1.09498   0.35033 
 H                     0.22993  -0.4777    1.09032 
 H                     4.10524   1.3853    3.26658 
 H                     6.38013   2.15282   3.71817 
 H                     8.2569    1.50427   2.30315 
 H                     7.9137    0.13495   0.2875 
 H                     1.59608  -0.78767  -1.95218 
 

 GradGradGradGradGradGradGradGradGradGradGradGradGradGradGradGradGradGrad
 Berny optimization.
 Initialization pass.
                           ----------------------------
                           !    Initial Parameters    !
                           ! (Angstroms and Degrees)  !
 --------------------------                            --------------------------
 ! Name  Definition              Value          Derivative Info.                !
 --------------------------------------------------------------------------------
 ! R1    R(1,2)                  1.7938         estimate D2E/DX2                !
 ! R2    R(1,15)                 1.0867         estimate D2E/DX2                !
 ! R3    R(1,16)                 1.0895         estimate D2E/DX2                !
 ! R4    R(1,17)                 1.0877         estimate D2E/DX2                !
 ! R5    R(2,3)                  1.7637         estimate D2E/DX2                !
 ! R6    R(3,4)                  1.3784         estimate D2E/DX2                !
 ! R7    R(3,14)                 1.4739         estimate D2E/DX2                !
 ! R8    R(4,5)                  1.5034         estimate D2E/DX2                !
 ! R9    R(4,9)                  1.5291         estimate D2E/DX2                !
 ! R10   R(5,6)                  1.3516         estimate D2E/DX2                !
 ! R11   R(5,18)                 1.0882         estimate D2E/DX2                !
 ! R12   R(6,7)                  1.4456         estimate D2E/DX2                !
 ! R13   R(6,19)                 1.0896         estimate D2E/DX2                !
 ! R14   R(7,8)                  1.319          estimate D2E/DX2                !
 ! R15   R(7,20)                 1.0921         estimate D2E/DX2                !
 ! R16   R(8,9)                  1.4916         estimate D2E/DX2                !
 ! R17   R(8,21)                 1.0867         estimate D2E/DX2                !
 ! R18   R(9,10)                 1.3037         estimate D2E/DX2                !
 ! R19   R(10,11)                1.3406         estimate D2E/DX2                !
 ! R20   R(11,12)                1.5031         estimate D2E/DX2                !
 ! R21   R(12,13)                1.7251         estimate D2E/DX2                !
 ! R22   R(12,14)                1.7976         estimate D2E/DX2                !
 ! R23   R(13,14)                1.3231         estimate D2E/DX2                !
 ! R24   R(13,22)                1.0675         estimate D2E/DX2                !
 ! A1    A(2,1,15)             121.7442         estimate D2E/DX2                !
 ! A2    A(2,1,16)             105.8317         estimate D2E/DX2                !
 ! A3    A(2,1,17)             107.7118         estimate D2E/DX2                !
 ! A4    A(15,1,16)            102.5383         estimate D2E/DX2                !
 ! A5    A(15,1,17)            107.4824         estimate D2E/DX2                !
 ! A6    A(16,1,17)            111.3578         estimate D2E/DX2                !
 ! A7    A(1,2,3)              106.8055         estimate D2E/DX2                !
 ! A8    A(2,3,4)              116.4344         estimate D2E/DX2                !
 ! A9    A(2,3,14)             118.5138         estimate D2E/DX2                !
 ! A10   A(4,3,14)             122.5879         estimate D2E/DX2                !
 ! A11   A(3,4,5)              130.4415         estimate D2E/DX2                !
 ! A12   A(3,4,9)              114.189          estimate D2E/DX2                !
 ! A13   A(5,4,9)              113.7946         estimate D2E/DX2                !
 ! A14   A(4,5,6)              122.5413         estimate D2E/DX2                !
 ! A15   A(4,5,18)             120.875          estimate D2E/DX2                !
 ! A16   A(6,5,18)             116.5484         estimate D2E/DX2                !
 ! A17   A(5,6,7)              120.9163         estimate D2E/DX2                !
 ! A18   A(5,6,19)             123.6262         estimate D2E/DX2                !
 ! A19   A(7,6,19)             115.383          estimate D2E/DX2                !
 ! A20   A(6,7,8)              121.3447         estimate D2E/DX2                !
 ! A21   A(6,7,20)             118.7508         estimate D2E/DX2                !
 ! A22   A(8,7,20)             119.9043         estimate D2E/DX2                !
 ! A23   A(7,8,9)              121.3271         estimate D2E/DX2                !
 ! A24   A(7,8,21)             123.3246         estimate D2E/DX2                !
 ! A25   A(9,8,21)             113.8306         estimate D2E/DX2                !
 ! A26   A(4,9,8)              115.9276         estimate D2E/DX2                !
 ! A27   A(4,9,10)             130.8013         estimate D2E/DX2                !
 ! A28   A(8,9,10)             112.3924         estimate D2E/DX2                !
 ! A29   A(9,10,11)            117.7527         estimate D2E/DX2                !
 ! A30   A(10,11,12)           105.9788         estimate D2E/DX2                !
 ! A31   A(11,12,13)           100.3591         estimate D2E/DX2                !
 ! A32   A(11,12,14)            83.988          estimate D2E/DX2                !
 ! A33   A(12,13,22)           137.2478         estimate D2E/DX2                !
 ! A34   A(14,13,22)           145.568          estimate D2E/DX2                !
 ! A35   A(3,14,12)            132.66           estimate D2E/DX2                !
 ! A36   A(3,14,13)            136.7468         estimate D2E/DX2                !
 ! D1    D(15,1,2,3)           -48.0074         estimate D2E/DX2                !
 ! D2    D(16,1,2,3)          -164.1613         estimate D2E/DX2                !
 ! D3    D(17,1,2,3)            76.6328         estimate D2E/DX2                !
 ! D4    D(1,2,3,4)           -174.1333         estimate D2E/DX2                !
 ! D5    D(1,2,3,14)            23.1983         estimate D2E/DX2                !
 ! D6    D(2,3,4,5)             28.5568         estimate D2E/DX2                !
 ! D7    D(2,3,4,9)           -136.0221         estimate D2E/DX2                !
 ! D8    D(14,3,4,5)          -169.5433         estimate D2E/DX2                !
 ! D9    D(14,3,4,9)            25.8778         estimate D2E/DX2                !
 ! D10   D(2,3,14,12)          119.9011         estimate D2E/DX2                !
 ! D11   D(2,3,14,13)           21.7077         estimate D2E/DX2                !
 ! D12   D(4,3,14,12)          -41.6416         estimate D2E/DX2                !
 ! D13   D(4,3,14,13)         -139.8351         estimate D2E/DX2                !
 ! D14   D(3,4,5,6)           -170.8967         estimate D2E/DX2                !
 ! D15   D(3,4,5,18)            11.3383         estimate D2E/DX2                !
 ! D16   D(9,4,5,6)             -6.2695         estimate D2E/DX2                !
 ! D17   D(9,4,5,18)           175.9655         estimate D2E/DX2                !
 ! D18   D(3,4,9,8)           -173.0982         estimate D2E/DX2                !
 ! D19   D(3,4,9,10)            18.5976         estimate D2E/DX2                !
 ! D20   D(5,4,9,8)             19.68           estimate D2E/DX2                !
 ! D21   D(5,4,9,10)          -148.6242         estimate D2E/DX2                !
 ! D22   D(4,5,6,7)             -4.9247         estimate D2E/DX2                !
 ! D23   D(4,5,6,19)           178.3604         estimate D2E/DX2                !
 ! D24   D(18,5,6,7)           172.9309         estimate D2E/DX2                !
 ! D25   D(18,5,6,19)           -3.7839         estimate D2E/DX2                !
 ! D26   D(5,6,7,8)              1.5938         estimate D2E/DX2                !
 ! D27   D(5,6,7,20)          -178.5608         estimate D2E/DX2                !
 ! D28   D(19,6,7,8)           178.5663         estimate D2E/DX2                !
 ! D29   D(19,6,7,20)           -1.5883         estimate D2E/DX2                !
 ! D30   D(6,7,8,9)             13.727          estimate D2E/DX2                !
 ! D31   D(6,7,8,21)           178.7998         estimate D2E/DX2                !
 ! D32   D(20,7,8,9)          -166.1166         estimate D2E/DX2                !
 ! D33   D(20,7,8,21)           -1.0438         estimate D2E/DX2                !
 ! D34   D(7,8,9,4)            -24.4599         estimate D2E/DX2                !
 ! D35   D(7,8,9,10)           145.9867         estimate D2E/DX2                !
 ! D36   D(21,8,9,4)           169.1492         estimate D2E/DX2                !
 ! D37   D(21,8,9,10)          -20.4042         estimate D2E/DX2                !
 ! D38   D(4,9,10,11)            2.5727         estimate D2E/DX2                !
 ! D39   D(8,9,10,11)         -166.0552         estimate D2E/DX2                !
 ! D40   D(9,10,11,12)         -95.9003         estimate D2E/DX2                !
 ! D41   D(10,11,12,13)        135.7473         estimate D2E/DX2                !
 ! D42   D(10,11,12,14)         94.6657         estimate D2E/DX2                !
 ! D43   D(11,12,13,22)         85.6399         estimate D2E/DX2                !
 ! D44   D(11,12,14,3)         -19.9398         estimate D2E/DX2                !
 ! D45   D(12,13,14,22)        150.3209         estimate D2E/DX2                !
 ! D46   D(22,13,14,3)         -23.7158         estimate D2E/DX2                !
 --------------------------------------------------------------------------------
 Trust Radius=3.00D-01 FncErr=1.00D-07 GrdErr=1.00D-06 EigMax=2.50D+02 EigMin=1.00D-04
 Number of steps in this run=    116 maximum allowed number of steps=    132.
 GradGradGradGradGradGradGradGradGradGradGradGradGradGradGradGradGradGrad

                          Input orientation:                          
 ---------------------------------------------------------------------
 Center     Atomic      Atomic             Coordinates (Angstroms)
 Number     Number       Type             X           Y           Z
 ---------------------------------------------------------------------
      1          6           0        0.525670    0.313050    0.404440
      2         16           0        1.992600    1.097390    1.075750
      3          6           0        3.344690    0.012360    0.751480
      4          6           0        4.559960    0.366180    1.297320
      5          6           0        4.879860    1.150780    2.539210
      6          6           0        6.132520    1.561760    2.837000
      7          6           0        7.256950    1.171630    2.016490
      8          6           0        7.094550    0.430830    0.937330
      9          6           0        5.744240    0.213000    0.342170
     10          7           0        5.783740    0.118200   -0.957460
     11          7           0        4.624950    0.208230   -1.625430
     12         16           0        4.172340   -1.205570   -1.861200
     13          6           0        2.500570   -1.067260   -1.458840
     14          6           0        3.222650   -0.952370   -0.356100
     15          1           0        0.508050   -0.102210   -0.599650
     16          1           0       -0.231120    1.094980    0.350330
     17          1           0        0.229930   -0.477700    1.090320
     18          1           0        4.105240    1.385300    3.266580
     19          1           0        6.380130    2.152820    3.718170
     20          1           0        8.256900    1.504270    2.303150
     21          1           0        7.913700    0.134950    0.287500
     22          1           0        1.596080   -0.787670   -1.952180
 ---------------------------------------------------------------------
                    Distance matrix (angstroms):
                    1          2          3          4          5
     1  C    0.000000
     2  S    1.793803   0.000000
     3  C    2.856173   1.763686   0.000000
     4  C    4.132258   2.678637   1.378409   0.000000
     5  C    4.921179   3.237412   2.617007   1.503404   0.000000
     6  C    6.238060   4.522895   3.810778   2.504590   1.351570
     7  C    6.974668   5.348260   4.271994   2.905118   2.433974
     8  C    6.591512   5.147170   3.777712   2.560843   2.826517
     9  C    5.219900   3.923657   2.442464   1.529148   2.540388
    10  N    5.435075   4.411972   2.980041   2.577434   3.756318
    11  N    4.575528   3.875080   2.706868   2.927736   4.277570
    12  S    4.553848   4.322102   2.999076   3.549211   5.041486
    13  C    3.045866   3.371630   2.600698   3.727232   5.154137
    14  C    3.074640   2.786527   1.473883   2.502153   3.943654
    15  H    1.086714   2.539664   3.144075   4.498429   5.525862
    16  H    1.089529   2.339053   3.757580   4.937852   5.560254
    17  H    1.087740   2.363922   3.171230   4.416349   5.135473
    18  H    4.706898   3.057103   2.964646   2.263484   1.088165
    19  H    6.974257   5.229411   4.753600   3.516478   2.155189
    20  H    8.049598   6.396367   5.363141   3.996787   3.403686
    21  H    7.391102   6.050376   4.594144   3.510096   3.912326
    22  H    2.812654   3.588738   3.317750   4.547000   5.891806
                    6          7          8          9         10
     6  C    0.000000
     7  C    1.445607   0.000000
     8  C    2.411068   1.318994   0.000000
     9  C    2.862532   2.451655   1.491644   0.000000
    10  N    4.074732   3.482017   2.325121   1.303681   0.000000
    11  N    4.900826   4.595557   3.565980   2.263688   1.340553
    12  S    5.794265   5.495669   4.364503   3.055822   2.272823
    13  C    6.209432   6.301880   5.393566   3.924805   3.526458
    14  C    4.998408   5.139663   4.310199   2.864277   2.840235
    15  H    6.798090   7.349456   6.784425   5.329547   5.292401
    16  H    6.848162   7.671581   7.379099   6.040106   6.232412
    17  H    6.484663   7.277162   6.926171   5.607532   5.949227
    18  H    2.079794   3.397301   3.907991   3.551448   4.718625
    19  H    1.089552   2.151107   3.347942   3.945204   5.133895
    20  H    2.191185   1.092119   2.090166   3.438936   4.320797
    21  H    3.421745   2.120243   1.086660   2.171552   2.467172
    22  H    7.002525   7.185725   6.329864   4.844854   4.398473
                   11         12         13         14         15
    11  N    0.000000
    12  S    1.503088   0.000000
    13  C    2.483469   1.725062   0.000000
    14  C    2.219152   1.797595   1.323116   0.000000
    15  H    4.254111   4.029384   2.374798   2.855020   0.000000
    16  H    5.317083   5.438185   3.925622   4.076667   1.697674
    17  H    5.211717   4.978339   3.464333   3.357650   1.753380
    18  H    5.058394   5.745541   5.560540   4.400850   5.486365
    19  H    5.951147   6.876226   7.226433   6.017604   7.629551
    20  H    5.504954   6.431848   7.341708   6.200836   8.429217
    21  H    3.805331   4.517929   5.813518   4.858234   7.462368
    22  H    3.205095   2.611519   1.067547   2.284804   1.866280
                   16         17         18         19         20
    16  H    0.000000
    17  H    1.798186   0.000000
    18  H    5.233815   4.819222   0.000000
    19  H    7.494665   7.186807   2.442979   0.000000
    20  H    8.719375   8.356519   4.263641   2.438271   0.000000
    21  H    8.201445   7.749850   4.994263   4.265341   2.460827
    22  H    3.490642   3.349515   6.184912   7.980381   8.229663
                   21         22
    21  H    0.000000
    22  H    6.766071   0.000000
 Stoichiometry    C10H8N2S2
 Framework group  C1[X(C10H8N2S2)]
 Deg. of freedom    60
 Full point group                 C1      NOp   1
 Largest Abelian subgroup         C1      NOp   1
 Largest concise Abelian subgroup C1      NOp   1
                         Standard orientation:                         
 ---------------------------------------------------------------------
 Center     Atomic      Atomic             Coordinates (Angstroms)
 Number     Number       Type             X           Y           Z
 ---------------------------------------------------------------------
      1          6           0        3.049312    1.943620    0.018415
      2         16           0        1.296429    2.039871    0.387016
      3          6           0        0.532946    0.659437   -0.401706
      4          6           0       -0.843536    0.607536   -0.350590
      5          6           0       -1.858489    1.713045   -0.261451
      6          6           0       -3.171127    1.478796   -0.040432
      7          6           0       -3.685143    0.128927    0.018077
      8          6           0       -2.888837   -0.914661   -0.110627
      9          6           0       -1.406546   -0.775067   -0.019348
     10          7           0       -0.842204   -1.816647    0.524909
     11          7           0        0.432936   -1.699747    0.921691
     12         16           0        1.268045   -2.241462   -0.204547
     13          6           0        2.500554   -1.037112   -0.283915
     14          6           0        1.360791   -0.519674   -0.712674
     15          1           0        3.609086    1.020029    0.139163
     16          1           0        3.539052    2.611322    0.726512
     17          1           0        3.190956    2.279989   -1.006267
     18          1           0       -1.567968    2.751139   -0.409980
     19          1           0       -3.917350    2.267180    0.052984
     20          1           0       -4.755750   -0.019168    0.174892
     21          1           0       -3.237422   -1.942283   -0.053089
     22          1           0        3.433140   -0.837082    0.195593
 ---------------------------------------------------------------------
 Rotational constants (GHZ):           0.8488223           0.5480484           0.3492119
 Standard basis: 6-31G(2df,p) (6D, 7F)
 There are   482 symmetry adapted cartesian basis functions of A   symmetry.
 There are   440 symmetry adapted basis functions of A   symmetry.
   440 basis functions,   720 primitive gaussians,   482 cartesian basis functions
    57 alpha electrons       57 beta electrons
       nuclear repulsion energy      1068.3620561596 Hartrees.
 NAtoms=   22 NActive=   22 NUniq=   22 SFac= 1.00D+00 NAtFMM=   60 NAOKFM=F Big=F
 Integral buffers will be    131072 words long.
 Raffenetti 2 integral format.
 Two-electron integral symmetry is turned on.
 One-electron integrals computed using PRISM.
 PrsmSu:  requested number of processors reduced to:  12 ShMem   1 Linda.
 NBasis=   440 RedAO= T EigKep=  1.60D-04  NBF=   440
 NBsUse=   440 1.00D-06 EigRej= -1.00D+00 NBFU=   440
 ExpMin= 1.17D-01 ExpMax= 2.19D+04 ExpMxC= 3.30D+03 IAcc=3 IRadAn=         5 AccDes= 0.00D+00
 Harris functional with IExCor=  402 and IRadAn=       5 diagonalized for initial guess.
 HarFok:  IExCor=  402 AccDes= 0.00D+00 IRadAn=         5 IDoV= 1 UseB2=F ITyADJ=14
 ICtDFT=  3500011 ScaDFX=  1.000000  1.000000  1.000000  1.000000
 FoFCou: FMM=F IPFlag=           0 FMFlag=      100000 FMFlg1=           0
         NFxFlg=           0 DoJE=T BraDBF=F KetDBF=T FulRan=T
         wScrn=  0.000000 ICntrl=       500 IOpCl=  0 I1Cent=   200000004 NGrid=           0
         NMat0=    1 NMatS0=      1 NMatT0=    0 NMatD0=    1 NMtDS0=    0 NMtDT0=    0
 Petite list used in FoFCou.
 Requested convergence on RMS density matrix=1.00D-08 within 128 cycles.
 Requested convergence on MAX density matrix=1.00D-06.
 Requested convergence on             energy=1.00D-06.
 No special actions if energy rises.
 Integral accuracy reduced to 1.0D-05 until final iterations.
 Problem detected with inexpensive integrals.
 Switching to full accuracy and repeating last cycle.
 EnCoef did     2 forward-backward iterations
 EnCoef did     7 forward-backward iterations
 EnCoef did     2 forward-backward iterations
 SCF Done:  E(RB3LYP) =  -1291.46788343     A.U. after   24 cycles
            NFock= 24  Conv=0.59D-08     -V/T= 2.0045

 **********************************************************************

            Population analysis using the SCF density.

 **********************************************************************

 Orbital symmetries:
       Occupied  (A) (A) (A) (A) (A) (A) (A) (A) (A) (A) (A) (A)
                 (A) (A) (A) (A) (A) (A) (A) (A) (A) (A) (A) (A)
                 (A) (A) (A) (A) (A) (A) (A) (A) (A) (A) (A) (A)
                 (A) (A) (A) (A) (A) (A) (A) (A) (A) (A) (A) (A)
                 (A) (A) (A) (A) (A) (A) (A) (A) (A)
       Virtual   (A) (A) (A) (A) (A) (A) (A) (A) (A) (A) (A) (A)
                 (A) (A) (A) (A) (A) (A) (A) (A) (A) (A) (A) (A)
                 (A) (A) (A) (A) (A) (A) (A) (A) (A) (A) (A) (A)
                 (A) (A) (A) (A) (A) (A) (A) (A) (A) (A) (A) (A)
                 (A) (A) (A) (A) (A) (A) (A) (A) (A) (A) (A) (A)
                 (A) (A) (A) (A) (A) (A) (A) (A) (A) (A) (A) (A)
                 (A) (A) (A) (A) (A) (A) (A) (A) (A) (A) (A) (A)
                 (A) (A) (A) (A) (A) (A) (A) (A) (A) (A) (A) (A)
                 (A) (A) (A) (A) (A) (A) (A) (A) (A) (A) (A) (A)
                 (A) (A) (A) (A) (A) (A) (A) (A) (A) (A) (A) (A)
                 (A) (A) (A) (A) (A) (A) (A) (A) (A) (A) (A) (A)
                 (A) (A) (A) (A) (A) (A) (A) (A) (A) (A) (A) (A)
                 (A) (A) (A) (A) (A) (A) (A) (A) (A) (A) (A) (A)
                 (A) (A) (A) (A) (A) (A) (A) (A) (A) (A) (A) (A)
                 (A) (A) (A) (A) (A) (A) (A) (A) (A) (A) (A) (A)
                 (A) (A) (A) (A) (A) (A) (A) (A) (A) (A) (A) (A)
                 (A) (A) (A) (A) (A) (A) (A) (A) (A) (A) (A) (A)
                 (A) (A) (A) (A) (A) (A) (A) (A) (A) (A) (A) (A)
                 (A) (A) (A) (A) (A) (A) (A) (A) (A) (A) (A) (A)
                 (A) (A) (A) (A) (A) (A) (A) (A) (A) (A) (A) (A)
                 (A) (A) (A) (A) (A) (A) (A) (A) (A) (A) (A) (A)
                 (A) (A) (A) (A) (A) (A) (A) (A) (A) (A) (A) (A)
                 (A) (A) (A) (A) (A) (A) (A) (A) (A) (A) (A) (A)
                 (A) (A) (A) (A) (A) (A) (A) (A) (A) (A) (A) (A)
                 (A) (A) (A) (A) (A) (A) (A) (A) (A) (A) (A) (A)
                 (A) (A) (A) (A) (A) (A) (A) (A) (A) (A) (A) (A)
                 (A) (A) (A) (A) (A) (A) (A) (A) (A) (A) (A) (A)
                 (A) (A) (A) (A) (A) (A) (A) (A) (A) (A) (A) (A)
                 (A) (A) (A) (A) (A) (A) (A) (A) (A) (A) (A) (A)
                 (A) (A) (A) (A) (A) (A) (A) (A) (A) (A) (A) (A)
                 (A) (A) (A) (A) (A) (A) (A) (A) (A) (A) (A) (A)
                 (A) (A) (A) (A) (A) (A) (A) (A) (A) (A) (A)
 The electronic state is 1-A.
 Alpha  occ. eigenvalues --  -88.98346 -88.89854 -14.34876 -14.31202 -10.25269
 Alpha  occ. eigenvalues --  -10.24641 -10.22935 -10.22400 -10.22208 -10.22015
 Alpha  occ. eigenvalues --  -10.20072 -10.19558 -10.18478 -10.18363  -8.03530
 Alpha  occ. eigenvalues --   -7.96091  -5.99952  -5.99635  -5.99406  -5.92584
 Alpha  occ. eigenvalues --   -5.92188  -5.91660  -1.04034  -0.91953  -0.86469
 Alpha  occ. eigenvalues --   -0.82420  -0.79362  -0.77142  -0.72501  -0.69483
 Alpha  occ. eigenvalues --   -0.65191  -0.61423  -0.59815  -0.56867  -0.55969
 Alpha  occ. eigenvalues --   -0.50437  -0.49910  -0.48177  -0.46565  -0.45010
 Alpha  occ. eigenvalues --   -0.44436  -0.43952  -0.42445  -0.40500  -0.39708
 Alpha  occ. eigenvalues --   -0.37867  -0.37016  -0.35508  -0.35090  -0.34144
 Alpha  occ. eigenvalues --   -0.31590  -0.28536  -0.28217  -0.25586  -0.24943
 Alpha  occ. eigenvalues --   -0.19584  -0.16745
 Alpha virt. eigenvalues --   -0.09476  -0.06406  -0.01094   0.01549   0.02707
 Alpha virt. eigenvalues --    0.03798   0.05658   0.08118   0.09991   0.10483
 Alpha virt. eigenvalues --    0.11497   0.12404   0.13672   0.14202   0.14378
 Alpha virt. eigenvalues --    0.17217   0.18578   0.18725   0.19868   0.22074
 Alpha virt. eigenvalues --    0.23659   0.24011   0.25231   0.26427   0.27709
 Alpha virt. eigenvalues --    0.29890   0.30474   0.31497   0.32737   0.33426
 Alpha virt. eigenvalues --    0.34260   0.36333   0.37050   0.39170   0.39697
 Alpha virt. eigenvalues --    0.41008   0.41306   0.42207   0.43180   0.44720
 Alpha virt. eigenvalues --    0.46187   0.46966   0.48605   0.49102   0.49788
 Alpha virt. eigenvalues --    0.50427   0.50691   0.52160   0.52491   0.53499
 Alpha virt. eigenvalues --    0.54370   0.55430   0.55641   0.55902   0.57522
 Alpha virt. eigenvalues --    0.58276   0.59860   0.61167   0.61568   0.61811
 Alpha virt. eigenvalues --    0.63680   0.64024   0.66438   0.67920   0.69215
 Alpha virt. eigenvalues --    0.70074   0.70760   0.71380   0.72164   0.73596
 Alpha virt. eigenvalues --    0.73934   0.74187   0.74730   0.75913   0.76924
 Alpha virt. eigenvalues --    0.77464   0.78717   0.79601   0.80169   0.81569
 Alpha virt. eigenvalues --    0.81703   0.83186   0.84260   0.84898   0.85747
 Alpha virt. eigenvalues --    0.86472   0.86904   0.88304   0.89817   0.90725
 Alpha virt. eigenvalues --    0.91434   0.92212   0.93173   0.93614   0.96147
 Alpha virt. eigenvalues --    0.97624   0.98664   1.00379   1.01046   1.01671
 Alpha virt. eigenvalues --    1.04623   1.04976   1.08033   1.10386   1.11733
 Alpha virt. eigenvalues --    1.12082   1.13540   1.15496   1.17235   1.19269
 Alpha virt. eigenvalues --    1.20904   1.22990   1.25941   1.26688   1.27770
 Alpha virt. eigenvalues --    1.28031   1.30017   1.30739   1.32961   1.33602
 Alpha virt. eigenvalues --    1.35662   1.37714   1.39069   1.39296   1.40750
 Alpha virt. eigenvalues --    1.43609   1.44038   1.46556   1.47019   1.47929
 Alpha virt. eigenvalues --    1.49148   1.50579   1.51028   1.52679   1.53875
 Alpha virt. eigenvalues --    1.55441   1.57709   1.58095   1.60675   1.61693
 Alpha virt. eigenvalues --    1.62108   1.63154   1.64641   1.66866   1.67474
 Alpha virt. eigenvalues --    1.69479   1.71832   1.73401   1.74697   1.75450
 Alpha virt. eigenvalues --    1.78984   1.80082   1.80591   1.82795   1.83939
 Alpha virt. eigenvalues --    1.85061   1.85710   1.86895   1.88324   1.90235
 Alpha virt. eigenvalues --    1.91148   1.92681   1.93338   1.94657   1.94998
 Alpha virt. eigenvalues --    1.98624   1.99868   2.01497   2.03654   2.04185
 Alpha virt. eigenvalues --    2.06053   2.09245   2.10781   2.13427   2.14008
 Alpha virt. eigenvalues --    2.14738   2.17627   2.19604   2.21367   2.23105
 Alpha virt. eigenvalues --    2.23892   2.26541   2.26902   2.28453   2.30463
 Alpha virt. eigenvalues --    2.32904   2.33648   2.36071   2.37096   2.38680
 Alpha virt. eigenvalues --    2.41091   2.43344   2.46340   2.47060   2.51279
 Alpha virt. eigenvalues --    2.52458   2.54952   2.55911   2.58153   2.62608
 Alpha virt. eigenvalues --    2.63557   2.64544   2.66730   2.68292   2.72039
 Alpha virt. eigenvalues --    2.74736   2.78781   2.79420   2.80434   2.82851
 Alpha virt. eigenvalues --    2.84771   2.85751   2.87971   2.89094   2.89382
 Alpha virt. eigenvalues --    2.91376   2.92233   2.94388   2.97514   2.97933
 Alpha virt. eigenvalues --    3.00431   3.01918   3.04630   3.05358   3.05593
 Alpha virt. eigenvalues --    3.06695   3.09299   3.11098   3.11570   3.12342
 Alpha virt. eigenvalues --    3.13248   3.14969   3.16510   3.17854   3.19329
 Alpha virt. eigenvalues --    3.20353   3.21849   3.22260   3.23745   3.25361
 Alpha virt. eigenvalues --    3.26793   3.27891   3.28125   3.30799   3.33028
 Alpha virt. eigenvalues --    3.33855   3.36453   3.36687   3.39359   3.40042
 Alpha virt. eigenvalues --    3.41798   3.44137   3.45323   3.47635   3.48528
 Alpha virt. eigenvalues --    3.50898   3.52235   3.52991   3.57595   3.58229
 Alpha virt. eigenvalues --    3.59800   3.61382   3.63472   3.64097   3.65901
 Alpha virt. eigenvalues --    3.66390   3.68613   3.69323   3.73869   3.75316
 Alpha virt. eigenvalues --    3.76667   3.79887   3.80699   3.81208   3.83673
 Alpha virt. eigenvalues --    3.86554   3.89720   3.90659   3.93934   3.95376
 Alpha virt. eigenvalues --    3.96274   3.97966   4.00225   4.02370   4.02960
 Alpha virt. eigenvalues --    4.05212   4.05885   4.09655   4.10381   4.11820
 Alpha virt. eigenvalues --    4.13712   4.19333   4.20939   4.24798   4.27348
 Alpha virt. eigenvalues --    4.29383   4.31038   4.32393   4.34777   4.36326
 Alpha virt. eigenvalues --    4.38130   4.39099   4.40275   4.41755   4.43254
 Alpha virt. eigenvalues --    4.46404   4.47552   4.48055   4.48822   4.49875
 Alpha virt. eigenvalues --    4.51011   4.53755   4.54773   4.55012   4.55933
 Alpha virt. eigenvalues --    4.56280   4.59793   4.60989   4.62294   4.63419
 Alpha virt. eigenvalues --    4.64538   4.66089   4.67152   4.68149   4.70325
 Alpha virt. eigenvalues --    4.73213   4.75223   4.76685   4.76903   4.79418
 Alpha virt. eigenvalues --    4.79657   4.81904   4.83206   4.83864   4.85530
 Alpha virt. eigenvalues --    4.87810   4.92761   4.94810   4.99400   5.00501
 Alpha virt. eigenvalues --    5.01775   5.04894   5.08426   5.10251   5.13850
 Alpha virt. eigenvalues --    5.17457   5.19539   5.20906   5.23404   5.26612
 Alpha virt. eigenvalues --    5.30345   5.32115   5.37068   5.40791   5.41504
 Alpha virt. eigenvalues --    5.45364   5.47699   5.51135   5.54089   5.59283
 Alpha virt. eigenvalues --    5.64819   5.66464   5.74154   5.77140   5.81508
 Alpha virt. eigenvalues --    5.96274   6.03275   6.06344   7.11910   9.68543
 Alpha virt. eigenvalues --   10.43487  10.59956  10.69327  10.88218  11.24399
 Alpha virt. eigenvalues --   11.37291  11.49077  11.61200  11.68829  11.71980
 Alpha virt. eigenvalues --   12.07829  12.45685  18.99291
          Condensed to atoms (all electrons):
               1          2          3          4          5          6
     1  C    5.000649   0.295346  -0.010536   0.000939   0.000099  -0.000002
     2  S    0.295346  15.685068   0.287960  -0.044652  -0.004445   0.000666
     3  C   -0.010536   0.287960   4.903213   0.519998  -0.054631   0.001426
     4  C    0.000939  -0.044652   0.519998   4.766876   0.421377   0.010090
     5  C    0.000099  -0.004445  -0.054631   0.421377   4.929270   0.606722
     6  C   -0.000002   0.000666   0.001426   0.010090   0.606722   4.742412
     7  C    0.000000  -0.000073   0.001116  -0.027775   0.006203   0.469684
     8  C   -0.000000  -0.000167   0.005275  -0.029609  -0.035499   0.002452
     9  C   -0.000041   0.003792  -0.050094   0.390457  -0.025344  -0.029207
    10  N    0.000002   0.000499  -0.033064  -0.039285   0.003433   0.000132
    11  N   -0.000242  -0.000077   0.030954  -0.016219  -0.000484  -0.000012
    12  S    0.000850   0.008424  -0.029530  -0.004073  -0.000031   0.000029
    13  C   -0.007408   0.000968  -0.037895   0.002841  -0.000073   0.000002
    14  C   -0.002592  -0.059071   0.446414  -0.011996   0.005346  -0.000098
    15  H    0.373330  -0.033255  -0.002588   0.000013   0.000003   0.000000
    16  H    0.370454  -0.030254   0.001497  -0.000042  -0.000002   0.000000
    17  H    0.384403  -0.051125  -0.000164   0.000127  -0.000001  -0.000000
    18  H   -0.000019   0.004732  -0.006900  -0.034872   0.361251  -0.041668
    19  H   -0.000000   0.000007  -0.000092   0.003739  -0.040695   0.369667
    20  H    0.000000  -0.000001   0.000007   0.000593   0.003895  -0.046913
    21  H   -0.000000   0.000006  -0.000086   0.004206   0.000936   0.004399
    22  H   -0.005144   0.001800  -0.003279   0.000184   0.000002  -0.000000
               7          8          9         10         11         12
     1  C    0.000000  -0.000000  -0.000041   0.000002  -0.000242   0.000850
     2  S   -0.000073  -0.000167   0.003792   0.000499  -0.000077   0.008424
     3  C    0.001116   0.005275  -0.050094  -0.033064   0.030954  -0.029530
     4  C   -0.027775  -0.029609   0.390457  -0.039285  -0.016219  -0.004073
     5  C    0.006203  -0.035499  -0.025344   0.003433  -0.000484  -0.000031
     6  C    0.469684   0.002452  -0.029207   0.000132  -0.000012   0.000029
     7  C    4.733585   0.628355  -0.001248  -0.001761  -0.000056   0.000042
     8  C    0.628355   4.853557   0.413488  -0.039143   0.003702  -0.002011
     9  C   -0.001248   0.413488   4.607817   0.585679  -0.084614   0.011752
    10  N   -0.001761  -0.039143   0.585679   6.504207   0.345921  -0.090696
    11  N   -0.000056   0.003702  -0.084614   0.345921   6.723322   0.401066
    12  S    0.000042  -0.002011   0.011752  -0.090696   0.401066  15.130879
    13  C    0.000001  -0.000083   0.000047   0.003983  -0.111823   0.280384
    14  C    0.000015  -0.000718  -0.011327   0.008201  -0.107480   0.199566
    15  H   -0.000000   0.000000   0.000001  -0.000003   0.000140  -0.000077
    16  H   -0.000000  -0.000000   0.000001  -0.000000   0.000007  -0.000040
    17  H    0.000000  -0.000000  -0.000001   0.000000  -0.000003   0.000027
    18  H    0.003182   0.001224   0.002263  -0.000063   0.000005  -0.000002
    19  H   -0.046781   0.004020   0.000584  -0.000003   0.000000   0.000000
    20  H    0.365486  -0.040407   0.004158  -0.000069   0.000002  -0.000003
    21  H   -0.039928   0.351179  -0.037383   0.004694  -0.000282   0.000054
    22  H    0.000000  -0.000001  -0.000019  -0.000077  -0.005646  -0.028415
              13         14         15         16         17         18
     1  C   -0.007408  -0.002592   0.373330   0.370454   0.384403  -0.000019
     2  S    0.000968  -0.059071  -0.033255  -0.030254  -0.051125   0.004732
     3  C   -0.037895   0.446414  -0.002588   0.001497  -0.000164  -0.006900
     4  C    0.002841  -0.011996   0.000013  -0.000042   0.000127  -0.034872
     5  C   -0.000073   0.005346   0.000003  -0.000002  -0.000001   0.361251
     6  C    0.000002  -0.000098   0.000000   0.000000  -0.000000  -0.041668
     7  C    0.000001   0.000015  -0.000000  -0.000000   0.000000   0.003182
     8  C   -0.000083  -0.000718   0.000000  -0.000000  -0.000000   0.001224
     9  C    0.000047  -0.011327   0.000001   0.000001  -0.000001   0.002263
    10  N    0.003983   0.008201  -0.000003  -0.000000   0.000000  -0.000063
    11  N   -0.111823  -0.107480   0.000140   0.000007  -0.000003   0.000005
    12  S    0.280384   0.199566  -0.000077  -0.000040   0.000027  -0.000002
    13  C    5.132966   0.560199  -0.000522  -0.000013   0.000858  -0.000001
    14  C    0.560199   4.971491   0.000007   0.000263   0.000144  -0.000042
    15  H   -0.000522   0.000007   0.582657  -0.029695  -0.040236   0.000001
    16  H   -0.000013   0.000263  -0.029695   0.554009  -0.022885   0.000002
    17  H    0.000858   0.000144  -0.040236  -0.022885   0.572806  -0.000003
    18  H   -0.000001  -0.000042   0.000001   0.000002  -0.000003   0.603400
    19  H   -0.000000   0.000001   0.000000   0.000000  -0.000000  -0.007330
    20  H   -0.000000   0.000000   0.000000  -0.000000  -0.000000  -0.000244
    21  H   -0.000002  -0.000081   0.000000   0.000000  -0.000000   0.000027
    22  H    0.359746  -0.044662   0.003353   0.000074   0.000077  -0.000000
              19         20         21         22
     1  C   -0.000000   0.000000  -0.000000  -0.005144
     2  S    0.000007  -0.000001   0.000006   0.001800
     3  C   -0.000092   0.000007  -0.000086  -0.003279
     4  C    0.003739   0.000593   0.004206   0.000184
     5  C   -0.040695   0.003895   0.000936   0.000002
     6  C    0.369667  -0.046913   0.004399  -0.000000
     7  C   -0.046781   0.365486  -0.039928   0.000000
     8  C    0.004020  -0.040407   0.351179  -0.000001
     9  C    0.000584   0.004158  -0.037383  -0.000019
    10  N   -0.000003  -0.000069   0.004694  -0.000077
    11  N    0.000000   0.000002  -0.000282  -0.005646
    12  S    0.000000  -0.000003   0.000054  -0.028415
    13  C   -0.000000  -0.000000  -0.000002   0.359746
    14  C    0.000001   0.000000  -0.000081  -0.044662
    15  H    0.000000   0.000000   0.000000   0.003353
    16  H    0.000000  -0.000000   0.000000   0.000074
    17  H   -0.000000  -0.000000  -0.000000   0.000077
    18  H   -0.007330  -0.000244   0.000027  -0.000000
    19  H    0.617852  -0.005630  -0.000210  -0.000000
    20  H   -0.005630   0.629794  -0.008912  -0.000000
    21  H   -0.000210  -0.008912   0.610363  -0.000000
    22  H   -0.000000  -0.000000  -0.000000   0.562260
 Mulliken charges:
               1
     1  C   -0.400088
     2  S   -0.066148
     3  C    0.030997
     4  C    0.087082
     5  C   -0.177331
     6  C   -0.089781
     7  C   -0.090049
     8  C   -0.115614
     9  C    0.219244
    10  N   -0.252588
    11  N   -0.178181
    12  S    0.121802
    13  C   -0.184176
    14  C    0.046420
    15  H    0.146870
    16  H    0.156624
    17  H    0.155977
    18  H    0.115057
    19  H    0.104871
    20  H    0.098243
    21  H    0.111020
    22  H    0.159748
 Sum of Mulliken charges =  -0.00000
 Mulliken charges with hydrogens summed into heavy atoms:
               1
     1  C    0.059384
     2  S   -0.066148
     3  C    0.030997
     4  C    0.087082
     5  C   -0.062274
     6  C    0.015090
     7  C    0.008194
     8  C   -0.004594
     9  C    0.219244
    10  N   -0.252588
    11  N   -0.178181
    12  S    0.121802
    13  C   -0.024428
    14  C    0.046420
 Electronic spatial extent (au):  <R**2>=           3077.2469
 Charge=             -0.0000 electrons
 Dipole moment (field-independent basis, Debye):
    X=              2.1417    Y=              1.7170    Z=             -1.2455  Tot=              3.0144
 Quadrupole moment (field-independent basis, Debye-Ang):
   XX=            -75.0323   YY=            -92.6798   ZZ=            -98.8665
   XY=             -1.1099   XZ=              0.7594   YZ=              1.9672
 Traceless Quadrupole moment (field-independent basis, Debye-Ang):
   XX=             13.8272   YY=             -3.8202   ZZ=            -10.0070
   XY=             -1.1099   XZ=              0.7594   YZ=              1.9672
 Octapole moment (field-independent basis, Debye-Ang**2):
  XXX=             15.6179  YYY=              1.0980  ZZZ=              0.7289  XYY=              9.1397
  XXY=             14.4382  XXZ=             12.1133  XZZ=              7.1065  YZZ=              2.0944
  YYZ=             -2.6976  XYZ=             -2.6191
 Hexadecapole moment (field-independent basis, Debye-Ang**3):
 XXXX=          -2196.5507 YYYY=          -1490.4952 ZZZZ=           -200.3103 XXXY=             16.1918
 XXXZ=             12.2956 YYYX=            -15.7090 YYYZ=              8.8301 ZZZX=             -2.5466
 ZZZY=              2.1874 XXYY=           -600.3523 XXZZ=           -470.6576 YYZZ=           -294.6388
 XXYZ=              1.6374 YYXZ=             14.3943 ZZXY=             10.3963
 N-N= 1.068362056160D+03 E-N=-5.178262328462D+03  KE= 1.285684236233D+03
 PrsmSu:  requested number of processors reduced to:  13 ShMem   1 Linda.
 Calling FoFJK, ICntrl=      2127 FMM=F ISym2X=0 I1Cent= 0 IOpClX= 0 NMat=1 NMatS=1 NMatT=0.
 ***** Axes restored to original set *****
 -------------------------------------------------------------------
 Center     Atomic                   Forces (Hartrees/Bohr)
 Number     Number              X              Y              Z
 -------------------------------------------------------------------
      1        6          -0.016765443   -0.007819877    0.005250603
      2       16           0.000859402    0.002731096   -0.000095946
      3        6          -0.006310011   -0.014817929   -0.004451684
      4        6           0.039486556    0.014843883   -0.004576578
      5        6          -0.023055042   -0.009560694   -0.019990594
      6        6           0.015153061   -0.002818600   -0.007004588
      7        6           0.008364131    0.016861329    0.028146555
      8        6          -0.018435899   -0.015700087   -0.043308013
      9        6           0.018039812   -0.006646812    0.044512695
     10        7           0.032153847    0.022500902    0.004502470
     11        7           0.044750614    0.105420918   -0.031535601
     12       16          -0.025268107   -0.096029172    0.003452048
     13        6          -0.025929652   -0.025446183    0.003513789
     14        6          -0.029743004    0.011936131    0.022267737
     15        1           0.013042275    0.002647600    0.000056646
     16        1          -0.002556537    0.002592267    0.009164647
     17        1          -0.007797528   -0.000839228    0.000824787
     18        1          -0.005129636   -0.002210146   -0.006996246
     19        1          -0.008549018   -0.003357839    0.000351561
     20        1          -0.003689322   -0.003757009    0.001960947
     21        1           0.000342263    0.000934929    0.002251789
     22        1           0.001037238    0.008534521   -0.008297024
 -------------------------------------------------------------------
 Cartesian Forces:  Max     0.105420918 RMS     0.024248138

 GradGradGradGradGradGradGradGradGradGradGradGradGradGradGradGradGradGrad
 Berny optimization.
 FormGI is forming the generalized inverse of G from B-inverse, IUseBI=4.
 Internal  Forces:  Max     0.122280544 RMS     0.018476371
 Search for a local minimum.
 Step number   1 out of a maximum of  116
 All quantities printed in internal units (Hartrees-Bohrs-Radians)
 Mixed Optimization -- RFO/linear search
 Second derivative matrix not updated -- first step.
 ITU=  0
     Eigenvalues ---    0.00452   0.00851   0.01111   0.01172   0.01439
     Eigenvalues ---    0.01623   0.01668   0.01902   0.02052   0.02255
     Eigenvalues ---    0.02282   0.02567   0.02616   0.02962   0.03315
     Eigenvalues ---    0.05330   0.08553   0.08593   0.10267   0.12009
     Eigenvalues ---    0.15534   0.15976   0.15991   0.16000   0.16000
     Eigenvalues ---    0.16000   0.16000   0.17389   0.21101   0.21564
     Eigenvalues ---    0.22068   0.22383   0.23362   0.24119   0.24245
     Eigenvalues ---    0.24715   0.25000   0.26611   0.28325   0.29200
     Eigenvalues ---    0.30850   0.31249   0.32581   0.34357   0.34569
     Eigenvalues ---    0.34864   0.34867   0.35026   0.35075   0.35195
     Eigenvalues ---    0.35201   0.37542   0.37875   0.47633   0.52732
     Eigenvalues ---    0.55321   0.56956   0.60049   0.63835   0.72138
 RFO step:  Lambda=-9.27852791D-02 EMin= 4.52273069D-03
 Linear search not attempted -- first point.
 Maximum step size (   0.300) exceeded in Quadratic search.
    -- Step size scaled by   0.732
 Iteration  1 RMS(Cart)=  0.17114682 RMS(Int)=  0.00633067
 Iteration  2 RMS(Cart)=  0.01373055 RMS(Int)=  0.00098883
 Iteration  3 RMS(Cart)=  0.00006848 RMS(Int)=  0.00098839
 Iteration  4 RMS(Cart)=  0.00000011 RMS(Int)=  0.00098839
 Variable       Old X    -DE/DX   Delta X   Delta X   Delta X     New X
                                 (Linear)    (Quad)   (Total)
    R1        3.38980   0.00728   0.00000   0.01486   0.01486   3.40466
    R2        2.05359  -0.00127   0.00000  -0.00210  -0.00210   2.05149
    R3        2.05891   0.00318   0.00000   0.00528   0.00528   2.06419
    R4        2.05553   0.00325   0.00000   0.00537   0.00537   2.06090
    R5        3.33288   0.01250   0.00000   0.02380   0.02380   3.35668
    R6        2.60482   0.01920   0.00000   0.01713   0.01753   2.62234
    R7        2.78524  -0.01312   0.00000  -0.03406  -0.03498   2.75026
    R8        2.84102  -0.03805   0.00000  -0.07017  -0.07010   2.77092
    R9        2.88967   0.00145   0.00000   0.00148   0.00230   2.89197
   R10        2.55410   0.00328   0.00000   0.00261   0.00262   2.55672
   R11        2.05633  -0.00150   0.00000  -0.00248  -0.00248   2.05385
   R12        2.73180  -0.00294   0.00000  -0.00403  -0.00414   2.72766
   R13        2.05895  -0.00348   0.00000  -0.00577  -0.00577   2.05318
   R14        2.49254   0.02894   0.00000   0.03105   0.03095   2.52349
   R15        2.06381  -0.00401   0.00000  -0.00669  -0.00669   2.05711
   R16        2.81880  -0.01845   0.00000  -0.02885  -0.02869   2.79011
   R17        2.05349  -0.00134   0.00000  -0.00221  -0.00221   2.05128
   R18        2.46360   0.01630   0.00000   0.01826   0.01849   2.48209
   R19        2.53328   0.03238   0.00000   0.03871   0.03796   2.57124
   R20        2.84042   0.12228   0.00000   0.11372   0.11473   2.95516
   R21        3.25989   0.02446   0.00000   0.04888   0.04970   3.30959
   R22        3.39696   0.01007   0.00000   0.01430   0.01295   3.40991
   R23        2.50033   0.00984   0.00000   0.00743   0.00712   2.50745
   R24        2.01737   0.00519   0.00000   0.00812   0.00812   2.02549
    A1        2.12484  -0.01918   0.00000  -0.05475  -0.05464   2.07020
    A2        1.84711  -0.00299   0.00000  -0.00942  -0.00947   1.83764
    A3        1.87992   0.01199   0.00000   0.03473   0.03498   1.91490
    A4        1.78963   0.01131   0.00000   0.03298   0.03282   1.82245
    A5        1.87592   0.00443   0.00000   0.01410   0.01442   1.89034
    A6        1.94356  -0.00643   0.00000  -0.02057  -0.02049   1.92307
    A7        1.86411   0.02743   0.00000   0.05859   0.05859   1.92270
    A8        2.03216  -0.01671   0.00000  -0.02283  -0.02305   2.00911
    A9        2.06846   0.02413   0.00000   0.05990   0.05935   2.12781
   A10        2.13956  -0.00457   0.00000  -0.02262  -0.02322   2.11634
   A11        2.27663  -0.04652   0.00000  -0.10127  -0.10252   2.17411
   A12        1.99297   0.04437   0.00000   0.09703   0.09819   2.09117
   A13        1.98609   0.00233   0.00000   0.00751   0.00768   1.99377
   A14        2.13875   0.00367   0.00000   0.00332   0.00334   2.14209
   A15        2.10967  -0.01053   0.00000  -0.02711  -0.02719   2.08248
   A16        2.03415   0.00672   0.00000   0.02323   0.02317   2.05733
   A17        2.11039   0.00274   0.00000   0.00616   0.00612   2.11651
   A18        2.15768  -0.00999   0.00000  -0.02815  -0.02813   2.12955
   A19        2.01381   0.00716   0.00000   0.02168   0.02168   2.03550
   A20        2.11786  -0.00820   0.00000  -0.01357  -0.01370   2.10416
   A21        2.07259   0.00286   0.00000   0.00321   0.00328   2.07587
   A22        2.09272   0.00533   0.00000   0.01036   0.01043   2.10315
   A23        2.11756  -0.00773   0.00000  -0.00642  -0.00602   2.11154
   A24        2.15242   0.00152   0.00000  -0.00040  -0.00052   2.15190
   A25        1.98672   0.00659   0.00000   0.01186   0.01146   1.99818
   A26        2.02332   0.00692   0.00000   0.00740   0.00699   2.03031
   A27        2.28291  -0.00476   0.00000   0.00269   0.00288   2.28580
   A28        1.96162  -0.00220   0.00000  -0.00880  -0.00850   1.95312
   A29        2.05517  -0.01429   0.00000   0.00106  -0.00056   2.05462
   A30        1.84968   0.01118   0.00000   0.03938   0.03637   1.88605
   A31        1.75160   0.04028   0.00000   0.09403   0.09337   1.84496
   A32        1.46587   0.03253   0.00000   0.10827   0.10710   1.57297
   A33        2.39543  -0.00262   0.00000  -0.01627  -0.01579   2.37964
   A34        2.54064   0.00618   0.00000   0.02333   0.02340   2.56404
   A35        2.31535  -0.00967   0.00000  -0.02572  -0.02851   2.28684
   A36        2.38668   0.01403   0.00000   0.04140   0.04267   2.42935
    D1       -0.83789  -0.00246   0.00000  -0.01667  -0.01631  -0.85419
    D2       -2.86516  -0.00313   0.00000  -0.01878  -0.01898  -2.88413
    D3        1.33750  -0.00010   0.00000  -0.00737  -0.00753   1.32996
    D4       -3.03920   0.01852   0.00000   0.12467   0.12470  -2.91450
    D5        0.40489   0.00975   0.00000   0.07974   0.07971   0.48459
    D6        0.49841  -0.00249   0.00000  -0.03549  -0.03672   0.46169
    D7       -2.37403  -0.00624   0.00000  -0.05778  -0.05769  -2.43173
    D8       -2.95909   0.01193   0.00000   0.02693   0.02353  -2.93556
    D9        0.45165   0.00818   0.00000   0.00464   0.00256   0.45422
   D10        2.09267   0.02703   0.00000   0.13921   0.13788   2.23054
   D11        0.37887   0.01272   0.00000   0.09753   0.09783   0.47670
   D12       -0.72678   0.01946   0.00000   0.09011   0.08886  -0.63792
   D13       -2.44058   0.00514   0.00000   0.04843   0.04882  -2.39176
   D14       -2.98271  -0.01244   0.00000  -0.05036  -0.04889  -3.03160
   D15        0.19789  -0.00825   0.00000  -0.03295  -0.03229   0.16560
   D16       -0.10942  -0.00351   0.00000  -0.01707  -0.01649  -0.12592
   D17        3.07118   0.00068   0.00000   0.00034   0.00011   3.07128
   D18       -3.02113  -0.00072   0.00000   0.00354   0.00373  -3.01740
   D19        0.32459  -0.00044   0.00000  -0.00408  -0.00476   0.31983
   D20        0.34348   0.00543   0.00000   0.00554   0.00440   0.34788
   D21       -2.59398   0.00571   0.00000  -0.00209  -0.00410  -2.59808
   D22       -0.08595   0.00175   0.00000   0.01396   0.01399  -0.07196
   D23        3.11298   0.00358   0.00000   0.02015   0.01991   3.13288
   D24        3.01821  -0.00263   0.00000  -0.00378  -0.00343   3.01478
   D25       -0.06604  -0.00080   0.00000   0.00240   0.00248  -0.06356
   D26        0.02782   0.00214   0.00000   0.00756   0.00719   0.03501
   D27       -3.11647   0.00177   0.00000   0.01012   0.01015  -3.10632
   D28        3.11657  -0.00008   0.00000   0.00033   0.00004   3.11661
   D29       -0.02772  -0.00044   0.00000   0.00288   0.00300  -0.02472
   D30        0.23958  -0.00444   0.00000  -0.02464  -0.02438   0.21521
   D31        3.12064  -0.00171   0.00000   0.00141   0.00215   3.12279
   D32       -2.89928  -0.00406   0.00000  -0.02721  -0.02738  -2.92666
   D33       -0.01822  -0.00133   0.00000  -0.00117  -0.00085  -0.01907
   D34       -0.42691   0.00094   0.00000   0.01870   0.01951  -0.40740
   D35        2.54795   0.00017   0.00000   0.02590   0.02738   2.57533
   D36        2.95221  -0.00107   0.00000  -0.00362  -0.00340   2.94881
   D37       -0.35612  -0.00184   0.00000   0.00358   0.00447  -0.35165
   D38        0.04490   0.00945   0.00000  -0.01281  -0.01557   0.02934
   D39       -2.89821   0.00887   0.00000  -0.02168  -0.02514  -2.92335
   D40       -1.67378   0.04939   0.00000   0.16517   0.16379  -1.50998
   D41        2.36924  -0.00975   0.00000  -0.03097  -0.03091   2.33833
   D42        1.65223  -0.00698   0.00000  -0.03425  -0.03771   1.61452
   D43        1.49470  -0.00329   0.00000  -0.05009  -0.04983   1.44487
   D44       -0.34801   0.00229   0.00000  -0.04290  -0.04288  -0.39089
   D45        2.62359  -0.00724   0.00000  -0.02308  -0.02408   2.59952
   D46       -0.41392   0.00173   0.00000   0.00884   0.00818  -0.40574
         Item               Value     Threshold  Converged?
 Maximum Force            0.122281     0.000450     NO 
 RMS     Force            0.018476     0.000300     NO 
 Maximum Displacement     0.637152     0.001800     NO 
 RMS     Displacement     0.177362     0.001200     NO 
 Predicted change in Energy=-5.209705D-02
 GradGradGradGradGradGradGradGradGradGradGradGradGradGradGradGradGradGrad

                          Input orientation:                          
 ---------------------------------------------------------------------
 Center     Atomic      Atomic             Coordinates (Angstroms)
 Number     Number       Type             X           Y           Z
 ---------------------------------------------------------------------
      1          6           0        0.443351    0.379340    0.648886
      2         16           0        2.031479    1.124537    1.059417
      3          6           0        3.355179    0.021369    0.628137
      4          6           0        4.596294    0.358522    1.149319
      5          6           0        4.800341    1.129988    2.379469
      6          6           0        6.021390    1.544483    2.789008
      7          6           0        7.218156    1.171276    2.073528
      8          6           0        7.142813    0.436290    0.961172
      9          6           0        5.850016    0.212987    0.283863
     10          7           0        5.990422    0.108498   -1.017887
     11          7           0        4.865909    0.161776   -1.782069
     12         16           0        4.275075   -1.283022   -1.876688
     13          6           0        2.557311   -1.113186   -1.580540
     14          6           0        3.226356   -0.952092   -0.446058
     15          1           0        0.310855   -0.051073   -0.338901
     16          1           0       -0.277893    1.198780    0.687496
     17          1           0        0.190539   -0.379691    1.390048
     18          1           0        3.950015    1.340607    3.022768
     19          1           0        6.158256    2.122525    3.698740
     20          1           0        8.183694    1.498352    2.455311
     21          1           0        8.011741    0.144974    0.379460
     22          1           0        1.692902   -0.852291   -2.158101
 ---------------------------------------------------------------------
                    Distance matrix (angstroms):
                    1          2          3          4          5
     1  C    0.000000
     2  S    1.801667   0.000000
     3  C    2.933822   1.776278   0.000000
     4  C    4.183037   2.678271   1.387685   0.000000
     5  C    4.747815   3.067436   2.526795   1.466310   0.000000
     6  C    6.087052   4.368893   3.754720   2.475072   1.352956
     7  C    6.968124   5.285095   4.281826   2.896359   2.437445
     8  C    6.706978   5.158398   3.824820   2.554645   2.824883
     9  C    5.421526   4.001704   2.525759   1.530364   2.516798
    10  N    5.798404   4.584840   3.108295   2.588994   3.741894
    11  N    5.051326   4.127341   2.848001   2.950328   4.273188
    12  S    4.880992   4.410304   2.970151   3.457538   4.920712
    13  C    3.415670   3.500468   2.608076   3.711536   5.073922
    14  C    3.273641   2.829589   1.455375   2.477835   3.846569
    15  H    1.085604   2.509562   3.195046   4.554949   5.379585
    16  H    1.092321   2.340307   3.819559   4.967596   5.353127
    17  H    1.090579   2.400225   3.279680   4.473655   4.950592
    18  H    4.342354   2.753582   2.797941   2.211782   1.086852
    19  H    6.708236   4.999229   4.658401   3.471452   2.137647
    20  H    8.026722   6.319652   5.369786   3.984252   3.404192
    21  H    7.576809   6.097984   4.664835   3.507643   3.909397
    22  H    3.310207   3.791425   3.359995   4.564513   5.845952
                    6          7          8          9         10
     6  C    0.000000
     7  C    1.443414   0.000000
     8  C    2.413849   1.335372   0.000000
     9  C    2.842182   2.448065   1.476460   0.000000
    10  N    4.068841   3.491945   2.313467   1.313464   0.000000
    11  N    4.913427   4.627935   3.575615   2.288923   1.360640
    12  S    5.728274   5.503591   4.385591   3.063735   2.369870
    13  C    6.177054   6.347791   5.466992   4.009569   3.687186
    14  C    4.950834   5.176048   4.387088   2.962059   3.015278
    15  H    6.703718   7.417868   6.971612   5.580312   5.722235
    16  H    6.649574   7.623162   7.464796   6.219806   6.587020
    17  H    6.297488   7.229111   7.013122   5.796947   6.298820
    18  H    2.094470   3.407415   3.906652   3.518967   4.691295
    19  H    1.086497   2.160921   3.362591   3.924631   5.131379
    20  H    2.188387   1.088577   2.108047   3.437062   4.336501
    21  H    3.424331   2.133762   1.085490   2.164906   2.457568
    22  H    6.996730   7.247754   6.410292   4.937571   4.548833
                   11         12         13         14         15
    11  N    0.000000
    12  S    1.563803   0.000000
    13  C    2.644951   1.751360   0.000000
    14  C    2.390348   1.804448   1.326884   0.000000
    15  H    4.782944   4.426910   2.777826   3.053435   0.000000
    16  H    5.799382   5.784800   4.304365   4.265086   1.721119
    17  H    5.675790   5.307637   3.868335   3.593760   1.764010
    18  H    5.031397   5.567205   5.399182   4.220533   5.145977
    19  H    5.962714   6.799229   7.162920   5.935373   7.430960
    20  H    5.545225   6.463711   7.400298   6.244823   8.496466
    21  H    3.816903   4.592608   5.930882   4.978448   7.736803
    22  H    3.352269   2.632934   1.071843   2.300551   2.421052
                   16         17         18         19         20
    16  H    0.000000
    17  H    1.790134   0.000000
    18  H    4.832061   4.445094   0.000000
    19  H    7.165536   6.870574   2.438168   0.000000
    20  H    8.649472   8.279635   4.274450   2.457255   0.000000
    21  H    8.362023   7.903655   4.991416   4.285293   2.484021
    22  H    4.023475   3.881985   6.061746   7.943016   8.302980
                   21         22
    21  H    0.000000
    22  H    6.881968   0.000000
 Stoichiometry    C10H8N2S2
 Framework group  C1[X(C10H8N2S2)]
 Deg. of freedom    60
 Full point group                 C1      NOp   1
 Largest Abelian subgroup         C1      NOp   1
 Largest concise Abelian subgroup C1      NOp   1
                         Standard orientation:                         
 ---------------------------------------------------------------------
 Center     Atomic      Atomic             Coordinates (Angstroms)
 Number     Number       Type             X           Y           Z
 ---------------------------------------------------------------------
      1          6           0        3.148718    2.053839   -0.036665
      2         16           0        1.404982    1.986980    0.411572
      3          6           0        0.633267    0.574776   -0.340293
      4          6           0       -0.753883    0.571555   -0.301881
      5          6           0       -1.586983    1.776121   -0.230960
      6          6           0       -2.929548    1.728669   -0.070466
      7          6           0       -3.637210    0.470857   -0.046582
      8          6           0       -2.973221   -0.683684   -0.143382
      9          6           0       -1.503864   -0.729233   -0.006089
     10          7           0       -1.097278   -1.852692    0.539543
     11          7           0        0.194833   -1.920602    0.960468
     12         16           0        1.077601   -2.360654   -0.253021
     13          6           0        2.459593   -1.284856   -0.248852
     14          6           0        1.382572   -0.630235   -0.663722
     15          1           0        3.748088    1.155149    0.071260
     16          1           0        3.597983    2.765637    0.659519
     17          1           0        3.251728    2.413355   -1.061116
     18          1           0       -1.124949    2.751172   -0.361522
     19          1           0       -3.534762    2.629062   -0.011452
     20          1           0       -4.721345    0.478207    0.051385
     21          1           0       -3.458218   -1.654335   -0.113340
     22          1           0        3.400609   -1.233256    0.261711
 ---------------------------------------------------------------------
 Rotational constants (GHZ):           0.7839554           0.5597254           0.3423825
 Standard basis: 6-31G(2df,p) (6D, 7F)
 There are   482 symmetry adapted cartesian basis functions of A   symmetry.
 There are   440 symmetry adapted basis functions of A   symmetry.
   440 basis functions,   720 primitive gaussians,   482 cartesian basis functions
    57 alpha electrons       57 beta electrons
       nuclear repulsion energy      1056.9368336308 Hartrees.
 NAtoms=   22 NActive=   22 NUniq=   22 SFac= 1.00D+00 NAtFMM=   60 NAOKFM=F Big=F
 Integral buffers will be    131072 words long.
 Raffenetti 2 integral format.
 Two-electron integral symmetry is turned on.
 One-electron integrals computed using PRISM.
 PrsmSu:  requested number of processors reduced to:  13 ShMem   1 Linda.
 NBasis=   440 RedAO= T EigKep=  1.62D-04  NBF=   440
 NBsUse=   440 1.00D-06 EigRej= -1.00D+00 NBFU=   440
 Initial guess from the checkpoint file:  "CSC1dc2ccccc2dNNdS2CdC12.chk"
 B after Tr=     0.000000    0.000000    0.000000
         Rot=    0.999364   -0.002580    0.004230    0.035318 Ang=  -4.09 deg.
 ExpMin= 1.17D-01 ExpMax= 2.19D+04 ExpMxC= 3.30D+03 IAcc=2 IRadAn=         4 AccDes= 0.00D+00
 Harris functional with IExCor=  402 and IRadAn=       4 diagonalized for initial guess.
 HarFok:  IExCor=  402 AccDes= 0.00D+00 IRadAn=         4 IDoV= 1 UseB2=F ITyADJ=14
 ICtDFT=  3500011 ScaDFX=  1.000000  1.000000  1.000000  1.000000
 FoFCou: FMM=F IPFlag=           0 FMFlag=      100000 FMFlg1=           0
         NFxFlg=           0 DoJE=T BraDBF=F KetDBF=T FulRan=T
         wScrn=  0.000000 ICntrl=       500 IOpCl=  0 I1Cent=   200000004 NGrid=           0
         NMat0=    1 NMatS0=      1 NMatT0=    0 NMatD0=    1 NMtDS0=    0 NMtDT0=    0
 Petite list used in FoFCou.
 Requested convergence on RMS density matrix=1.00D-08 within 128 cycles.
 Requested convergence on MAX density matrix=1.00D-06.
 Requested convergence on             energy=1.00D-06.
 No special actions if energy rises.
 Integral accuracy reduced to 1.0D-05 until final iterations.
 Initial convergence to 1.0D-05 achieved.  Increase integral accuracy.
 SCF Done:  E(RB3LYP) =  -1291.51657515     A.U. after   17 cycles
            NFock= 17  Conv=0.92D-08     -V/T= 2.0048
 PrsmSu:  requested number of processors reduced to:  13 ShMem   1 Linda.
 Calling FoFJK, ICntrl=      2127 FMM=F ISym2X=0 I1Cent= 0 IOpClX= 0 NMat=1 NMatS=1 NMatT=0.
 ***** Axes restored to original set *****
 -------------------------------------------------------------------
 Center     Atomic                   Forces (Hartrees/Bohr)
 Number     Number              X              Y              Z
 -------------------------------------------------------------------
      1        6          -0.008870107   -0.008276537    0.004690726
      2       16           0.000340257    0.001704894   -0.000352682
      3        6          -0.001463470   -0.020536151   -0.009791150
      4        6           0.031322649    0.012733385   -0.006672945
      5        6          -0.013829871   -0.006563696   -0.011754808
      6        6           0.016666915   -0.001340080   -0.003004028
      7        6          -0.000095503    0.008352155    0.017916544
      8        6          -0.012416727   -0.004402926   -0.025974309
      9        6           0.004168301   -0.010610534    0.035226376
     10        7           0.009628262    0.016120856   -0.001033075
     11        7           0.026329578    0.040581965   -0.029857491
     12       16          -0.010789371   -0.042086514    0.020784964
     13        6          -0.011940711   -0.014292250    0.006721067
     14        6          -0.027703188    0.024900098    0.007540601
     15        1           0.009757758   -0.001268868   -0.005582673
     16        1           0.000892670    0.001544303    0.005834937
     17        1          -0.003732807    0.000159044    0.000609575
     18        1          -0.001782923   -0.000970523   -0.004676538
     19        1          -0.005019009   -0.001789172    0.000488505
     20        1          -0.001890791   -0.003105918    0.001351406
     21        1           0.000111305    0.001495880    0.001532802
     22        1           0.000316781    0.007650586   -0.003997804
 -------------------------------------------------------------------
 Cartesian Forces:  Max     0.042086514 RMS     0.014153160

 GradGradGradGradGradGradGradGradGradGradGradGradGradGradGradGradGradGrad
 Berny optimization.
 Using GEDIIS/GDIIS optimizer.
 FormGI is forming the generalized inverse of G from B-inverse, IUseBI=4.
 Internal  Forces:  Max     0.053961011 RMS     0.009560056
 Search for a local minimum.
 Step number   2 out of a maximum of  116
 All quantities printed in internal units (Hartrees-Bohrs-Radians)
 Mixed Optimization -- RFO/linear search
 Update second derivatives using D2CorX and points    1    2
 DE= -4.87D-02 DEPred=-5.21D-02 R= 9.35D-01
 TightC=F SS=  1.41D+00  RLast= 4.45D-01 DXNew= 5.0454D-01 1.3351D+00
 Trust test= 9.35D-01 RLast= 4.45D-01 DXMaxT set to 5.05D-01
 ITU=  1  0
 Use linear search instead of GDIIS.
 Linear search step of   0.601 exceeds DXMaxT=   0.505 but not scaled.
 Quartic linear search produced a step of  2.00000.
 Iteration  1 RMS(Cart)=  0.30944063 RMS(Int)=  0.02537262
 Iteration  2 RMS(Cart)=  0.06951697 RMS(Int)=  0.00555818
 Iteration  3 RMS(Cart)=  0.00199097 RMS(Int)=  0.00543975
 Iteration  4 RMS(Cart)=  0.00000834 RMS(Int)=  0.00543975
 Iteration  5 RMS(Cart)=  0.00000008 RMS(Int)=  0.00543975
 Variable       Old X    -DE/DX   Delta X   Delta X   Delta X     New X
                                 (Linear)    (Quad)   (Total)
    R1        3.40466   0.00370   0.02972   0.00000   0.02972   3.43438
    R2        2.05149   0.00439  -0.00420   0.00000  -0.00420   2.04730
    R3        2.06419   0.00078   0.01055   0.00000   0.01055   2.07474
    R4        2.06090   0.00117   0.01073   0.00000   0.01073   2.07163
    R5        3.35668  -0.00135   0.04759   0.00000   0.04759   3.40427
    R6        2.62234   0.01432   0.03506   0.00000   0.03792   2.66026
    R7        2.75026  -0.02480  -0.06995   0.00000  -0.07376   2.67650
    R8        2.77092  -0.01906  -0.14020   0.00000  -0.13968   2.63125
    R9        2.89197  -0.00812   0.00459   0.00000   0.00861   2.90058
   R10        2.55672   0.00541   0.00524   0.00000   0.00518   2.56190
   R11        2.05385  -0.00156  -0.00496   0.00000  -0.00496   2.04889
   R12        2.72766  -0.00655  -0.00829   0.00000  -0.00903   2.71863
   R13        2.05318  -0.00118  -0.01155   0.00000  -0.01155   2.04164
   R14        2.52349   0.01542   0.06190   0.00000   0.06137   2.58486
   R15        2.05711  -0.00214  -0.01339   0.00000  -0.01339   2.04373
   R16        2.79011  -0.01196  -0.05739   0.00000  -0.05659   2.73351
   R17        2.05128  -0.00113  -0.00442   0.00000  -0.00442   2.04685
   R18        2.48209   0.01490   0.03697   0.00000   0.03770   2.51979
   R19        2.57124   0.01420   0.07592   0.00000   0.07216   2.64340
   R20        2.95516   0.05396   0.22947   0.00000   0.23348   3.18864
   R21        3.30959   0.01421   0.09939   0.00000   0.10337   3.41296
   R22        3.40991  -0.00133   0.02590   0.00000   0.01984   3.42975
   R23        2.50745  -0.00133   0.01424   0.00000   0.01163   2.51908
   R24        2.02549   0.00376   0.01624   0.00000   0.01624   2.04172
    A1        2.07020  -0.01469  -0.10928   0.00000  -0.10857   1.96163
    A2        1.83764  -0.00236  -0.01895   0.00000  -0.01920   1.81844
    A3        1.91490   0.00715   0.06995   0.00000   0.07129   1.98619
    A4        1.82245   0.00890   0.06563   0.00000   0.06459   1.88703
    A5        1.89034   0.00362   0.02884   0.00000   0.03069   1.92103
    A6        1.92307  -0.00257  -0.04098   0.00000  -0.04047   1.88260
    A7        1.92270  -0.01783   0.11718   0.00000   0.11718   2.03987
    A8        2.00911   0.00601  -0.04610   0.00000  -0.04740   1.96171
    A9        2.12781  -0.00762   0.11871   0.00000   0.11606   2.24386
   A10        2.11634   0.00300  -0.04644   0.00000  -0.04996   2.06639
   A11        2.17411  -0.02076  -0.20505   0.00000  -0.21065   1.96346
   A12        2.09117   0.01814   0.19638   0.00000   0.20178   2.29294
   A13        1.99377   0.00309   0.01536   0.00000   0.01540   2.00917
   A14        2.14209   0.00167   0.00669   0.00000   0.00726   2.14935
   A15        2.08248  -0.00548  -0.05437   0.00000  -0.05503   2.02745
   A16        2.05733   0.00369   0.04635   0.00000   0.04593   2.10325
   A17        2.11651  -0.00078   0.01225   0.00000   0.01200   2.12851
   A18        2.12955  -0.00485  -0.05626   0.00000  -0.05613   2.07343
   A19        2.03550   0.00559   0.04337   0.00000   0.04345   2.07895
   A20        2.10416  -0.00471  -0.02741   0.00000  -0.02814   2.07602
   A21        2.07587   0.00189   0.00656   0.00000   0.00691   2.08278
   A22        2.10315   0.00283   0.02085   0.00000   0.02121   2.12436
   A23        2.11154  -0.00105  -0.01204   0.00000  -0.01038   2.10116
   A24        2.15190  -0.00109  -0.00104   0.00000  -0.00189   2.15001
   A25        1.99818   0.00267   0.02292   0.00000   0.02107   2.01924
   A26        2.03031   0.00246   0.01399   0.00000   0.01248   2.04279
   A27        2.28580  -0.00333   0.00577   0.00000   0.00614   2.29194
   A28        1.95312   0.00075  -0.01699   0.00000  -0.01555   1.93758
   A29        2.05462  -0.00258  -0.00111   0.00000  -0.01095   2.04367
   A30        1.88605   0.00160   0.07274   0.00000   0.05403   1.94008
   A31        1.84496   0.01589   0.18673   0.00000   0.18064   2.02561
   A32        1.57297   0.01769   0.21420   0.00000   0.20647   1.77944
   A33        2.37964   0.00048  -0.03158   0.00000  -0.02908   2.35056
   A34        2.56404   0.00431   0.04680   0.00000   0.04742   2.61147
   A35        2.28684  -0.00558  -0.05702   0.00000  -0.07076   2.21609
   A36        2.42935   0.00585   0.08535   0.00000   0.09343   2.52279
    D1       -0.85419  -0.00008  -0.03261   0.00000  -0.03038  -0.88458
    D2       -2.88413  -0.00123  -0.03795   0.00000  -0.03926  -2.92339
    D3        1.32996  -0.00051  -0.01507   0.00000  -0.01599   1.31397
    D4       -2.91450   0.00764   0.24939   0.00000   0.25054  -2.66396
    D5        0.48459   0.00118   0.15941   0.00000   0.15826   0.64285
    D6        0.46169   0.00090  -0.07345   0.00000  -0.08116   0.38052
    D7       -2.43173  -0.00217  -0.11538   0.00000  -0.11490  -2.54662
    D8       -2.93556   0.00560   0.04706   0.00000   0.02778  -2.90778
    D9        0.45422   0.00253   0.00512   0.00000  -0.00596   0.44826
   D10        2.23054   0.02032   0.27575   0.00000   0.26723   2.49778
   D11        0.47670   0.00889   0.19566   0.00000   0.19724   0.67394
   D12       -0.63792   0.01316   0.17773   0.00000   0.16783  -0.47009
   D13       -2.39176   0.00173   0.09764   0.00000   0.09784  -2.29393
   D14       -3.03160  -0.00722  -0.09778   0.00000  -0.08923  -3.12083
   D15        0.16560  -0.00464  -0.06458   0.00000  -0.06021   0.10539
   D16       -0.12592  -0.00215  -0.03299   0.00000  -0.03061  -0.15653
   D17        3.07128   0.00043   0.00021   0.00000  -0.00159   3.06969
   D18       -3.01740   0.00011   0.00747   0.00000   0.00797  -3.00943
   D19        0.31983   0.00079  -0.00953   0.00000  -0.01337   0.30645
   D20        0.34788   0.00092   0.00880   0.00000   0.00317   0.35105
   D21       -2.59808   0.00161  -0.00820   0.00000  -0.01817  -2.61625
   D22       -0.07196   0.00189   0.02798   0.00000   0.02853  -0.04344
   D23        3.13288   0.00262   0.03981   0.00000   0.03872  -3.11158
   D24        3.01478  -0.00092  -0.00687   0.00000  -0.00480   3.00998
   D25       -0.06356  -0.00019   0.00497   0.00000   0.00540  -0.05816
   D26        0.03501   0.00107   0.01438   0.00000   0.01249   0.04750
   D27       -3.10632   0.00107   0.02031   0.00000   0.02030  -3.08602
   D28        3.11661   0.00003   0.00008   0.00000  -0.00120   3.11541
   D29       -0.02472   0.00003   0.00600   0.00000   0.00662  -0.01810
   D30        0.21521  -0.00391  -0.04875   0.00000  -0.04766   0.16755
   D31        3.12279  -0.00069   0.00430   0.00000   0.00781   3.13060
   D32       -2.92666  -0.00391  -0.05475   0.00000  -0.05567  -2.98232
   D33       -0.01907  -0.00069  -0.00170   0.00000  -0.00020  -0.01927
   D34       -0.40740   0.00295   0.03902   0.00000   0.04314  -0.36426
   D35        2.57533   0.00188   0.05476   0.00000   0.06203   2.63736
   D36        2.94881   0.00042  -0.00680   0.00000  -0.00579   2.94302
   D37       -0.35165  -0.00064   0.00893   0.00000   0.01311  -0.33854
   D38        0.02934   0.00266  -0.03113   0.00000  -0.04607  -0.01674
   D39       -2.92335   0.00314  -0.05029   0.00000  -0.06876  -2.99212
   D40       -1.50998   0.02934   0.32759   0.00000   0.31795  -1.19203
   D41        2.33833  -0.00687  -0.06182   0.00000  -0.05814   2.28019
   D42        1.61452  -0.00739  -0.07542   0.00000  -0.09279   1.52173
   D43        1.44487  -0.00689  -0.09965   0.00000  -0.09861   1.34626
   D44       -0.39089  -0.00695  -0.08576   0.00000  -0.08447  -0.47536
   D45        2.59952  -0.00223  -0.04816   0.00000  -0.05219   2.54732
   D46       -0.40574   0.00252   0.01635   0.00000   0.01375  -0.39199
         Item               Value     Threshold  Converged?
 Maximum Force            0.053961     0.000450     NO 
 RMS     Force            0.009560     0.000300     NO 
 Maximum Displacement     1.250548     0.001800     NO 
 RMS     Displacement     0.360102     0.001200     NO 
 Predicted change in Energy=-5.380389D-03
 GradGradGradGradGradGradGradGradGradGradGradGradGradGradGradGradGradGrad

                          Input orientation:                          
 ---------------------------------------------------------------------
 Center     Atomic      Atomic             Coordinates (Angstroms)
 Number     Number       Type             X           Y           Z
 ---------------------------------------------------------------------
      1          6           0        0.413327    0.525753    1.162581
      2         16           0        2.108433    1.166243    1.023609
      3          6           0        3.354291    0.038821    0.373975
      4          6           0        4.646128    0.336299    0.847714
      5          6           0        4.623891    1.070119    2.030835
      6          6           0        5.746664    1.492686    2.662291
      7          6           0        7.061347    1.165617    2.178232
      8          6           0        7.180910    0.453506    1.016506
      9          6           0        6.023775    0.215508    0.181765
     10          7           0        6.374937    0.093066   -1.098740
     11          7           0        5.341995    0.043768   -2.040714
     12         16           0        4.454340   -1.384026   -1.897040
     13          6           0        2.659191   -1.198567   -1.827075
     14          6           0        3.218512   -0.934127   -0.646302
     15          1           0        0.068454    0.067904    0.243259
     16          1           0       -0.197354    1.418847    1.349258
     17          1           0        0.268069   -0.162721    2.003227
     18          1           0        3.648897    1.224984    2.479110
     19          1           0        5.648436    2.033816    3.592219
     20          1           0        7.927728    1.481010    2.743510
     21          1           0        8.135703    0.178863    0.585052
     22          1           0        1.886526   -1.004418   -2.556892
 ---------------------------------------------------------------------
                    Distance matrix (angstroms):
                    1          2          3          4          5
[...]
   D14        3.12011   0.00067   0.00075   0.00237   0.00306   3.12317
   D15       -0.02942   0.00053  -0.00038   0.00711   0.00426  -0.02516
   D16       -0.02401   0.00083   0.00103  -0.00348  -0.00035  -0.02437
   D17        3.10964   0.00069  -0.00010   0.00126   0.00085   3.11049
   D18       -3.12519  -0.00044  -0.00102   0.00105  -0.00145  -3.12664
   D19       -0.01416  -0.00115  -0.00521   0.02909   0.00652  -0.00764
   D20        0.01893  -0.00061  -0.00130   0.00678   0.00198   0.02091
   D21        3.12997  -0.00132  -0.00549   0.03481   0.00995   3.13991
   D22        0.01454  -0.00055  -0.00008  -0.00194  -0.00149   0.01305
   D23       -3.13503  -0.00036  -0.00010  -0.00118  -0.00110  -3.13613
   D24       -3.11879  -0.00041   0.00110  -0.00690  -0.00275  -3.12154
   D25        0.01482  -0.00022   0.00108  -0.00613  -0.00236   0.01246
   D26        0.00189  -0.00001  -0.00064   0.00437   0.00162   0.00351
   D27       -3.14143   0.00022   0.00022  -0.00046   0.00013  -3.14130
   D28       -3.13169  -0.00020  -0.00062   0.00360   0.00122  -3.13047
   D29        0.00817   0.00004   0.00023  -0.00124  -0.00026   0.00791
   D30       -0.00677   0.00019   0.00036  -0.00140   0.00000  -0.00676
   D31        3.14083   0.00038   0.00063  -0.00455  -0.00104   3.13979
   D32        3.13655  -0.00004  -0.00049   0.00341   0.00148   3.13803
   D33        0.00096   0.00014  -0.00023   0.00026   0.00044   0.00140
   D34       -0.00417   0.00014   0.00064  -0.00432  -0.00185  -0.00602
   D35       -3.11833   0.00097   0.00442  -0.02682  -0.00900  -3.12733
   D36        3.13162  -0.00004   0.00039  -0.00127  -0.00084   3.13077
   D37        0.01745   0.00079   0.00417  -0.02377  -0.00799   0.00946
   D38        0.05949   0.00098   0.01580  -0.01017   0.01171   0.07119
   D39       -3.11017   0.00028   0.01200   0.01495   0.01896  -3.09121
   D40       -0.24411   0.00127  -0.02022   0.04771   0.00840  -0.23571
   D41        0.79171   0.00082   0.01132  -0.10106  -0.03003   0.76168
   D42        0.36035  -0.00292   0.00953  -0.09408  -0.02588   0.33447
   D43        1.89043   0.00209  -0.00501   0.03315   0.01482   1.90525
   D44       -1.36815   0.00374  -0.00900   0.05172   0.02645  -1.34170
   D45        3.06106  -0.00151  -0.00768   0.03663   0.01525   3.07630
   D46        2.40813   0.00093   0.00509  -0.02785  -0.01081   2.39732
         Item               Value     Threshold  Converged?
 Maximum Force            0.023359     0.000450     NO 
 RMS     Force            0.003956     0.000300     NO 
 Maximum Displacement     0.089910     0.001800     NO 
 RMS     Displacement     0.015915     0.001200     NO 
 Predicted change in Energy=-3.918515D-05
 GradGradGradGradGradGradGradGradGradGradGradGradGradGradGradGradGradGrad

                          Input orientation:                          
 ---------------------------------------------------------------------
 Center     Atomic      Atomic             Coordinates (Angstroms)
 Number     Number       Type             X           Y           Z
 ---------------------------------------------------------------------
      1          6           0        1.183819   -0.040757    1.835627
      2         16           0        1.523794    1.304215    0.637747
      3          6           0        3.085371    0.732373   -0.097167
      4          6           0        4.315719    0.851514    0.683062
      5          6           0        4.422840    1.710847    1.794825
      6          6           0        5.578767    1.811253    2.549506
      7          6           0        6.721894    1.065010    2.233355
      8          6           0        6.679522    0.221022    1.142585
      9          6           0        5.495769    0.113986    0.371288
     10          7           0        5.603362   -0.778786   -0.670018
     11          7           0        5.692844   -1.521275   -1.536037
     12         16           0        3.170819   -2.026162   -2.706000
     13          6           0        3.154206   -0.330460   -2.495925
     14          6           0        3.137146    0.211335   -1.313523
     15          1           0        1.107092   -0.994850    1.315127
     16          1           0        0.227689    0.187511    2.311701
     17          1           0        1.962439   -0.088062    2.600107
     18          1           0        3.549825    2.306943    2.037464
     19          1           0        5.599680    2.488377    3.399512
     20          1           0        7.624071    1.148128    2.828805
     21          1           0        7.536792   -0.376860    0.854278
     22          1           0        3.220741    0.327648   -3.369943
 ---------------------------------------------------------------------
                    Distance matrix (angstroms):
                    1          2          3          4          5
     1  C    0.000000
     2  S    1.832880   0.000000
     3  C    2.819454   1.818137   0.000000
     4  C    3.454468   2.828751   1.461748   0.000000
     5  C    3.682532   3.147800   2.515127   1.409235   0.000000
     6  C    4.822357   4.511620   3.792872   2.449490   1.384121
     7  C    5.661376   5.442740   4.332006   2.870308   2.427975
     8  C    5.545411   5.292419   3.836194   2.489227   2.781655
     9  C    4.556440   4.155024   2.532167   1.426068   2.393240
    10  N    5.133742   4.763614   2.991996   2.479260   3.696938
    11  N    5.821629   5.485409   3.734729   3.528598   4.811877
    12  S    5.340073   4.998474   3.797740   4.591030   5.982492
    13  C    4.767462   3.892339   2.624575   3.584987   4.918017
    14  C    3.714322   2.757670   1.324268   2.405247   3.682848
    15  H    1.089542   2.432732   2.981856   3.755510   4.306402
    16  H    1.092217   2.393541   3.777018   4.450321   4.492996
    17  H    1.092207   2.445751   3.034696   3.177388   3.152480
    18  H    3.339224   2.658847   2.692886   2.130556   1.084602
    19  H    5.323728   5.063836   4.651028   3.421546   2.136476
    20  H    6.623949   6.483709   5.416084   3.954414   3.410813
    21  H    6.437101   6.247322   4.685167   3.451598   3.865209
    22  H    5.602029   4.460369   3.300484   4.230870   5.480247
                    6          7          8          9         10
     6  C    0.000000
     7  C    1.401274   0.000000
     8  C    2.391636   1.379816   0.000000
     9  C    2.762650   2.423866   1.416908   0.000000
    10  N    4.132098   3.616666   2.333080   1.375840   0.000000
    11  N    5.273558   4.685737   3.344271   2.520081   1.144241
    12  S    6.938610   6.823687   5.672075   4.410819   3.408583
    13  C    5.993480   6.086199   5.096149   3.728452   3.087604
    14  C    4.841926   5.114638   4.310567   2.900201   2.734349
    15  H    5.421604   6.050799   5.706146   4.623942   4.919749
    16  H    5.597064   6.553689   6.556989   5.614559   6.222720
    17  H    4.085069   4.910855   4.946795   4.182449   4.942382
    18  H    2.150466   3.412154   3.866119   3.372225   4.590119
    19  H    1.086943   2.155286   3.376489   3.849503   5.218759
    20  H    2.168182   1.084156   2.143604   3.411526   4.476385
    21  H    3.390501   2.155204   1.084203   2.154062   2.494628
    22  H    6.542266   6.648212   5.686602   4.383858   3.767052
                   11         12         13         14         15
    11  N    0.000000
    12  S    2.825657   0.000000
    13  C    2.963800   1.708746   0.000000
    14  C    3.095650   2.635625   1.300733   0.000000
    15  H    5.425439   4.635950   4.376780   3.533526   0.000000
    16  H    6.898766   6.224121   5.652085   4.648415   1.778901
    17  H    5.751323   5.776780   5.239142   4.097082   1.790267
    18  H    5.658418   6.435829   5.259660   3.973788   4.170198
    19  H    6.359689   7.972309   6.977275   5.784609   6.054823
    20  H    5.468747   7.780851   7.107648   6.178104   7.025283
    21  H    3.228534   5.870050   5.516617   4.939860   6.475750
    22  H    3.590686   2.446167   1.096102   2.061402   5.307202
                   16         17         18         19         20
    16  H    0.000000
    17  H    1.780021   0.000000
    18  H    3.950162   2.927868   0.000000
    19  H    5.944376   4.528423   2.467793   0.000000
    20  H    7.476407   5.799530   4.309125   2.494020   0.000000
    21  H    7.474328   5.848481   4.949610   4.294206   2.496391
    22  H    6.423323   6.115361   5.767665   7.493572   7.647678
                   21         22
    21  H    0.000000
    22  H    6.080186   0.000000
 Stoichiometry    C10H8N2S2
 Framework group  C1[X(C10H8N2S2)]
 Deg. of freedom    60
 Full point group                 C1      NOp   1
 Largest Abelian subgroup         C1      NOp   1
 Largest concise Abelian subgroup C1      NOp   1
                         Standard orientation:                         
 ---------------------------------------------------------------------
 Center     Atomic      Atomic             Coordinates (Angstroms)
 Number     Number       Type             X           Y           Z
 ---------------------------------------------------------------------
      1          6           0       -0.284972    2.946047   -1.430946
      2         16           0       -0.109609    2.711606    0.378400
      3          6           0        0.142051    0.913613    0.475934
      4          6           0       -1.005386    0.030392    0.275897
      5          6           0       -2.334677    0.485028    0.386507
      6          6           0       -3.424329   -0.342379    0.177105
      7          6           0       -3.259419   -1.696145   -0.144905
      8          6           0       -1.978973   -2.199957   -0.247478
      9          6           0       -0.862310   -1.353464   -0.037377
     10          7           0        0.344498   -1.995929   -0.191612
     11          7           0        1.348160   -2.530247   -0.319885
     12         16           0        3.484964   -0.681835   -0.362102
     13          6           0        2.517764   -0.107826    0.924309
     14          6           0        1.331698    0.385504    0.719911
     15          1           0        0.610380    2.594068   -1.942372
     16          1           0       -0.401653    4.017823   -1.605925
     17          1           0       -1.166672    2.423363   -1.808203
     18          1           0       -2.474033    1.526989    0.653449
     19          1           0       -4.426733    0.067081    0.271834
     20          1           0       -4.117222   -2.338784   -0.307948
     21          1           0       -1.796603   -3.240263   -0.492427
     22          1           0        2.869580   -0.208261    1.957546
 ---------------------------------------------------------------------
 Rotational constants (GHZ):           0.6735493           0.4837056           0.3063031
 Standard basis: 6-31G(2df,p) (6D, 7F)
 There are   482 symmetry adapted cartesian basis functions of A   symmetry.
 There are   440 symmetry adapted basis functions of A   symmetry.
   440 basis functions,   720 primitive gaussians,   482 cartesian basis functions
    57 alpha electrons       57 beta electrons
       nuclear repulsion energy       997.7976907819 Hartrees.
 NAtoms=   22 NActive=   22 NUniq=   22 SFac= 1.00D+00 NAtFMM=   60 NAOKFM=F Big=F
 Integral buffers will be    131072 words long.
 Raffenetti 2 integral format.
 Two-electron integral symmetry is turned on.
 One-electron integrals computed using PRISM.
 PrsmSu:  requested number of processors reduced to:  13 ShMem   1 Linda.
 NBasis=   440 RedAO= T EigKep=  1.09D-04  NBF=   440
 NBsUse=   440 1.00D-06 EigRej= -1.00D+00 NBFU=   440
 Initial guess from the checkpoint file:  "CSC1dc2ccccc2dNNdS2CdC12.chk"
 B after Tr=     0.000000    0.000000   -0.000000
         Rot=    0.999989   -0.000191   -0.000047   -0.004762 Ang=  -0.55 deg.
 ExpMin= 1.17D-01 ExpMax= 2.19D+04 ExpMxC= 3.30D+03 IAcc=2 IRadAn=         4 AccDes= 0.00D+00
 Harris functional with IExCor=  402 and IRadAn=       4 diagonalized for initial guess.
 HarFok:  IExCor=  402 AccDes= 0.00D+00 IRadAn=         4 IDoV= 1 UseB2=F ITyADJ=14
 ICtDFT=  3500011 ScaDFX=  1.000000  1.000000  1.000000  1.000000
 FoFCou: FMM=F IPFlag=           0 FMFlag=      100000 FMFlg1=           0
         NFxFlg=           0 DoJE=T BraDBF=F KetDBF=T FulRan=T
         wScrn=  0.000000 ICntrl=       500 IOpCl=  0 I1Cent=   200000004 NGrid=           0
         NMat0=    1 NMatS0=      1 NMatT0=    0 NMatD0=    1 NMtDS0=    0 NMtDT0=    0
 Petite list used in FoFCou.
 Requested convergence on RMS density matrix=1.00D-08 within 128 cycles.
 Requested convergence on MAX density matrix=1.00D-06.
 Requested convergence on             energy=1.00D-06.
 No special actions if energy rises.
 Integral accuracy reduced to 1.0D-05 until final iterations.
 Initial convergence to 1.0D-05 achieved.  Increase integral accuracy.
 SCF Done:  E(RB3LYP) =  -1291.65437267     A.U. after   15 cycles
            NFock= 15  Conv=0.32D-08     -V/T= 2.0050
 PrsmSu:  requested number of processors reduced to:  13 ShMem   1 Linda.
 Calling FoFJK, ICntrl=      2127 FMM=F ISym2X=0 I1Cent= 0 IOpClX= 0 NMat=1 NMatS=1 NMatT=0.
 ***** Axes restored to original set *****
 -------------------------------------------------------------------
 Center     Atomic                   Forces (Hartrees/Bohr)
 Number     Number              X              Y              Z
 -------------------------------------------------------------------
      1        6           0.002136357    0.000386866   -0.000667512
      2       16           0.001766612   -0.001743808   -0.003660151
      3        6          -0.000229784   -0.005156336   -0.004307197
      4        6           0.003949652    0.001589069    0.002166501
      5        6          -0.001252571   -0.001236419   -0.001003755
      6        6           0.001210718    0.001187808    0.000754408
      7        6          -0.000361737   -0.001031708   -0.000797500
      8        6          -0.002416842    0.001303486   -0.000632131
      9        6           0.011558546    0.000000907    0.008247695
     10        7          -0.019398920   -0.008589174   -0.027421747
     11        7           0.001316204    0.007511463    0.019980442
     12       16           0.009084096   -0.008654129    0.001375686
     13        6          -0.003237266    0.005388210   -0.016416479
     14        6          -0.004037240    0.011440742    0.022341067
     15        1           0.000012174   -0.000815112   -0.000529238
     16        1           0.000144992    0.001268944   -0.000561116
     17        1          -0.000280560   -0.000340076    0.000280363
     18        1           0.000638752   -0.001006751    0.000718340
     19        1          -0.000073489   -0.000551523   -0.001131450
     20        1          -0.000595778   -0.000255400   -0.000443389
     21        1          -0.000161857    0.000454101    0.000236632
     22        1           0.000227939   -0.001151160    0.001470529
 -------------------------------------------------------------------
 Cartesian Forces:  Max     0.027421747 RMS     0.006849974

 GradGradGradGradGradGradGradGradGradGradGradGradGradGradGradGradGradGrad
 Berny optimization.
 Using GEDIIS/GDIIS optimizer.
 FormGI is forming the generalized inverse of G from B-inverse, IUseBI=4.
 Internal  Forces:  Max     0.023205503 RMS     0.004041757
 Search for a local minimum.
 Step number  22 out of a maximum of  116
 All quantities printed in internal units (Hartrees-Bohrs-Radians)
 Mixed Optimization -- RFO/linear search
 Update second derivatives using D2CorX and points   20   21   22
 DE= -4.31D-05 DEPred=-3.92D-05 R= 1.10D+00
 TightC=F SS=  1.41D+00  RLast= 7.78D-02 DXNew= 4.2426D+00 2.3336D-01
 Trust test= 1.10D+00 RLast= 7.78D-02 DXMaxT set to 2.52D+00
 ITU=  1  1  1 -1  1  1  1  1  1  1  1  1  1  1  1  1  1  1  1  0
 ITU=  1  0
 Use linear search instead of GDIIS.
     Eigenvalues ---    0.00048   0.00430   0.00509   0.01142   0.01405
     Eigenvalues ---    0.01440   0.01586   0.01677   0.01812   0.01947
     Eigenvalues ---    0.02126   0.02154   0.02282   0.02426   0.02733
     Eigenvalues ---    0.02981   0.03213   0.03755   0.07237   0.09527
     Eigenvalues ---    0.10102   0.10289   0.14459   0.15249   0.15945
     Eigenvalues ---    0.15995   0.16012   0.16042   0.16434   0.17069
     Eigenvalues ---    0.19823   0.21447   0.21923   0.22276   0.23006
     Eigenvalues ---    0.25282   0.26531   0.27240   0.29260   0.30564
     Eigenvalues ---    0.31322   0.33422   0.34582   0.34694   0.34878
     Eigenvalues ---    0.34960   0.35115   0.35225   0.35332   0.36996
     Eigenvalues ---    0.37788   0.40680   0.40969   0.51806   0.52640
     Eigenvalues ---    0.58245   0.59750   0.62999   0.75728   1.19824
 RFO step:  Lambda=-1.04006518D-02 EMin= 4.84007542D-04
 Quartic linear search produced a step of -0.18634.
 Iteration  1 RMS(Cart)=  0.00041089 RMS(Int)=  0.03941598
 SLEqS3 Cycle:    75 Max:0.317185     RMS: 7415.55     Conv:0.357097E-01
 Iteration  2 RMS(Cart)=  0.01005934 RMS(Int)=  0.03908541
 Iteration  3 RMS(Cart)=  0.00001260 RMS(Int)=  0.52946552
 New curvilinear step failed, DQL= 5.39D+00 SP=-4.96D-01.
 ITry= 1 IFail=1 DXMaxC= 5.30D-02 DCOld= 1.00D+10 DXMaxT= 2.52D+00 DXLimC= 3.00D+00 Rises=F
 Iteration  1 RMS(Cart)=  0.00036109 RMS(Int)=  0.03545885
 SLEqS3 Cycle:    60 Max:0.279573     RMS: 4917.64     Conv:0.236723E-01
 Iteration  2 RMS(Cart)=  0.00898843 RMS(Int)=  0.03517892
 SLEqS3 Cycle:    15 Max:0.250945     RMS: 3282.84     Conv:0.157616E-01
 Iteration  3 RMS(Cart)=  0.00068804 RMS(Int)=  0.03517437
 SLEqS3 Cycle:    15 Max:0.278456     RMS: 1242.47     Conv:0.596885E-02
 Iteration  4 RMS(Cart)=  0.00041380 RMS(Int)=  0.03517312
 SLEqS3 Cycle:   661 Max:0.184435E-01 RMS:0.331740E-02 Conv:0.453445E-03
 SLEqS3 Cycle:    60 Max:0.301558     RMS: 94.3594     Conv:0.453445E-03
 Iteration  5 RMS(Cart)=  0.00034570 RMS(Int)=  0.03517250
 SLEqS3 Cycle:    15 Max:0.262669     RMS: 126.197     Conv:0.606518E-03
 Iteration  6 RMS(Cart)=  0.00005286 RMS(Int)=  0.03517237
 SLEqS3 Cycle:    30 Max:0.278400     RMS: 75.1141     Conv:0.361034E-03
 Iteration  7 RMS(Cart)=  0.00009323 RMS(Int)=  0.03517260
 SLEqS3 Cycle:    15 Max:0.278567     RMS: 62.5568     Conv:0.300565E-03
 Iteration  8 RMS(Cart)=  0.00021206 RMS(Int)=  0.03517212
 SLEqS3 Cycle:    15 Max:0.301515     RMS: 201.088     Conv:0.966410E-03
 Iteration  9 RMS(Cart)=  0.00031796 RMS(Int)=  0.03517171
 SLEqS3 Cycle:   661 Max:0.454285E-01 RMS:0.637548E-02 Conv:0.660102E-03
 SLEqS3 Cycle:    60 Max:0.278096     RMS: 137.362     Conv:0.660102E-03
 Iteration 10 RMS(Cart)=  0.00012576 RMS(Int)=  0.03517163
 SLEqS3 Cycle:   661 Max:0.594902E-01 RMS:0.113580E-01 Conv:0.594166E-04
 SLEqS3 Cycle:    74 Max:0.262398     RMS:0.428613E-01 Conv:0.594166E-04
 Iteration 11 RMS(Cart)=  0.00007389 RMS(Int)=  0.03517158
 SLEqS3 Cycle:    15 Max:0.278208     RMS: 114.795     Conv:0.551699E-03
 Iteration 12 RMS(Cart)=  0.00002363 RMS(Int)=  0.03517156
 SLEqS3 Cycle:    15 Max:0.262338     RMS: 26.5858     Conv:0.127840E-03
 Iteration 13 RMS(Cart)=  0.00001797 RMS(Int)=  0.03517155
 SLEqS3 Cycle:    15 Max:0.277990     RMS: 38.5293     Conv:0.185249E-03
 Iteration 14 RMS(Cart)=  0.00009340 RMS(Int)=  0.03517162
 SLEqS3 Cycle:    15 Max:0.301516     RMS: 90.8025     Conv:0.436370E-03
 Iteration 15 RMS(Cart)=  0.00001539 RMS(Int)=  0.03517161
 SLEqS3 Cycle:   661 Max:0.633714E-01 RMS:0.932191E-02 Conv:0.222084E-03
 SLEqS3 Cycle:    74 Max:0.301416     RMS:0.491998E-01 Conv:0.222084E-03
 Iteration 16 RMS(Cart)=  0.00006533 RMS(Int)=  0.03517157
 SLEqS3 Cycle:   661 Max:0.191407E-01 RMS:0.365749E-02 Conv:0.274536E-03
 SLEqS3 Cycle:    74 Max:0.301405     RMS:0.492014E-01 Conv:0.274536E-03
 Iteration 17 RMS(Cart)=  0.00005211 RMS(Int)=  0.03517154
slurmstepd: error: *** JOB 27447256 ON lewis4-r630-hpc4-node229 CANCELLED AT 2023-05-18T06:04:39 DUE TO TIME LIMIT ***
