### Starting Gaussian ###
 Entering Gaussian System, Link 0=g16
 Initial command:
 /cluster/software/gaussian/gaussian-16-A.03/avx2/g16/l1.exe "/local/scratch/cz9n3/Gau-5619.inp" -scrdir="/local/scratch/cz9n3/"
 Entering Link 1 = /cluster/software/gaussian/gaussian-16-A.03/avx2/g16/l1.exe PID=      5620.
  
 Copyright (c) 1988,1990,1992,1993,1995,1998,2003,2009,2016,
            Gaussian, Inc.  All Rights Reserved.
  
 This is part of the Gaussian(R) 16 program.  It is based on
 the Gaussian(R) 09 system (copyright 2009, Gaussian, Inc.),
 the Gaussian(R) 03 system (copyright 2003, Gaussian, Inc.),
 the Gaussian(R) 98 system (copyright 1998, Gaussian, Inc.),
 the Gaussian(R) 94 system (copyright 1995, Gaussian, Inc.),
 the Gaussian 92(TM) system (copyright 1992, Gaussian, Inc.),
 the Gaussian 90(TM) system (copyright 1990, Gaussian, Inc.),
 the Gaussian 88(TM) system (copyright 1988, Gaussian, Inc.),
 the Gaussian 86(TM) system (copyright 1986, Carnegie Mellon
 University), and the Gaussian 82(TM) system (copyright 1983,
 Carnegie Mellon University). Gaussian is a federally registered
 trademark of Gaussian, Inc.
  
 This software contains proprietary and confidential information,
 including trade secrets, belonging to Gaussian, Inc.
  
 This software is provided under written license and may be
 used, copied, transmitted, or stored only in accord with that
 written license.
  
 The following legend is applicable only to US Government
 contracts under FAR:
  
                    RESTRICTED RIGHTS LEGEND
  
 Use, reproduction and disclosure by the US Government is
 subject to restrictions as set forth in subparagraphs (a)
 and (c) of the Commercial Computer Software - Restricted
 Rights clause in FAR 52.227-19.
  
 Gaussian, Inc.
 340 Quinnipiac St., Bldg. 40, Wallingford CT 06492
  
  
 ---------------------------------------------------------------
 Warning -- This program may not be used in any manner that
 competes with the business of Gaussian, Inc. or will provide
 assistance to any competitor of Gaussian, Inc.  The licensee
 of this program is prohibited from giving any competitor of
 Gaussian, Inc. access to this program.  By using this program,
 the user acknowledges that Gaussian, Inc. is engaged in the
 business of creating and licensing software in the field of
 computational chemistry and represents and warrants to the
 licensee that it is not a competitor of Gaussian, Inc. and that
 it will not use this program in any manner prohibited above.
 ---------------------------------------------------------------
  

 Cite this work as:
 Gaussian 16, Revision A.03,
 M. J. Frisch, G. W. Trucks, H. B. Schlegel, G. E. Scuseria, 
 M. A. Robb, J. R. Cheeseman, G. Scalmani, V. Barone, 
 G. A. Petersson, H. Nakatsuji, X. Li, M. Caricato, A. V. Marenich, 
 J. Bloino, B. G. Janesko, R. Gomperts, B. Mennucci, H. P. Hratchian, 
 J. V. Ortiz, A. F. Izmaylov, J. L. Sonnenberg, D. Williams-Young, 
 F. Ding, F. Lipparini, F. Egidi, J. Goings, B. Peng, A. Petrone, 
 T. Henderson, D. Ranasinghe, V. G. Zakrzewski, J. Gao, N. Rega, 
 G. Zheng, W. Liang, M. Hada, M. Ehara, K. Toyota, R. Fukuda, 
 J. Hasegawa, M. Ishida, T. Nakajima, Y. Honda, O. Kitao, H. Nakai, 
 T. Vreven, K. Throssell, J. A. Montgomery, Jr., J. E. Peralta, 
 F. Ogliaro, M. J. Bearpark, J. J. Heyd, E. N. Brothers, K. N. Kudin, 
 V. N. Staroverov, T. A. Keith, R. Kobayashi, J. Normand, 
 K. Raghavachari, A. P. Rendell, J. C. Burant, S. S. Iyengar, 
 J. Tomasi, M. Cossi, J. M. Millam, M. Klene, C. Adamo, R. Cammi, 
 J. W. Ochterski, R. L. Martin, K. Morokuma, O. Farkas, 
 J. B. Foresman, and D. J. Fox, Gaussian, Inc., Wallingford CT, 2016.
 
 ******************************************
 Gaussian 16:  ES64L-G16RevA.03 25-Dec-2016
                16-May-2023 
 ******************************************
 %chk=CSc1cccc2cqccs1rdCNdNCdCCd2.chk
 %NProcShared=20
 Will use up to   20 processors via shared memory.
 -----------------------------
 # opt freq b3lyp/6-31g(2df,p)
 -----------------------------
 1/18=20,19=15,26=3,38=1/1,3;
 2/9=110,12=2,17=6,18=5,40=1/2;
 3/5=1,6=6,7=104,11=2,25=1,30=1,71=1,74=-5/1,2,3;
 4//1;
 5/5=2,38=5/2;
 6/7=2,8=2,9=2,10=2,28=1/1;
 7//1,2,3,16;
 1/18=20,19=15,26=3/3(2);
 2/9=110/2;
 99//99;
 2/9=110/2;
 3/5=1,6=6,7=104,11=2,25=1,30=1,71=1,74=-5/1,2,3;
 4/5=5,16=3,69=1/1;
 5/5=2,38=5/2;
 7//1,2,3,16;
 1/18=20,19=15,26=3/3(-5);
 2/9=110/2;
 6/7=2,8=2,9=2,10=2,19=2,28=1/1;
 99/9=1/99;
 -------------------
 Title Card Required
 -------------------
 Symbolic Z-matrix:
 Charge =  0 Multiplicity = 1
 C                     1.06304  -0.0436   -0.02285 
 S                     2.99588  -0.10104   0.01342 
 C                     3.8458   -1.79192   1.08127 
 C                     5.12194  -1.60424   0.96274 
 C                     5.11626  -3.30746   2.03782 
 C                     6.2653   -4.11185   2.5474 
 C                     7.61235  -5.04068   3.13251 
 C                     8.74853  -4.19143   2.59664 
 C                     8.82347  -2.96615   1.82283 
 C                     7.9716   -2.0503    1.24444 
 S                     6.17804  -1.79564   1.08362 
 C                     9.86471  -4.74592   2.94682 
 N                     11.19282  -4.81364   2.98958 
 N                     11.19241  -5.81085   3.61936 
 C                     11.22948  -6.89144   4.30179 
 C                     9.76665  -7.14277   4.46051 
 C                     8.06243  -6.3472    3.95809 
 H                     0.66016   0.84359  -0.58315 
 H                     0.62343   0.04973   0.97596 
 H                     0.62343  -0.90536  -0.53638 
 H                     5.45467  -0.41741   0.21322 
 H                     4.16583  -3.79868   2.34862 
 H                     6.91612  -3.44293   2.12394 
 H                     9.92441  -2.91416   1.79 
 H                     8.59612  -1.28194   0.7592 
 H                     9.50648  -5.55026   3.45479 
 H                     12.36269  -6.69535   4.17795 
 H                     10.18652  -8.05993   5.03973 
 H                     6.97328  -6.55817   4.09132 
 
 Add virtual bond connecting atoms H21        and C4         Dist= 2.73D+00.

 GradGradGradGradGradGradGradGradGradGradGradGradGradGradGradGradGradGrad
 Berny optimization.
 Initialization pass.
                           ----------------------------
                           !    Initial Parameters    !
                           ! (Angstroms and Degrees)  !
 --------------------------                            --------------------------
 ! Name  Definition              Value          Derivative Info.                !
 --------------------------------------------------------------------------------
 ! R1    R(1,2)                  1.934          estimate D2E/DX2                !
 ! R2    R(1,18)                 1.124          estimate D2E/DX2                !
 ! R3    R(1,19)                 1.0953         estimate D2E/DX2                !
 ! R4    R(1,20)                 1.0953         estimate D2E/DX2                !
 ! R5    R(2,3)                  2.173          estimate D2E/DX2                !
 ! R6    R(3,4)                  1.2953         estimate D2E/DX2                !
 ! R7    R(4,11)                 1.0801         estimate D2E/DX2                !
 ! R8    R(4,21)                 1.4426         estimate D2E/DX2                !
 ! R9    R(5,6)                  1.4923         estimate D2E/DX2                !
 ! R10   R(5,11)                 2.0793         estimate D2E/DX2                !
 ! R11   R(5,22)                 1.1141         estimate D2E/DX2                !
 ! R12   R(6,7)                  1.7377         estimate D2E/DX2                !
 ! R13   R(6,23)                 1.0249         estimate D2E/DX2                !
 ! R14   R(7,8)                  1.5163         estimate D2E/DX2                !
 ! R15   R(7,17)                 1.6097         estimate D2E/DX2                !
 ! R16   R(8,9)                  1.4511         estimate D2E/DX2                !
 ! R17   R(8,12)                 1.2946         estimate D2E/DX2                !
 ! R18   R(9,10)                 1.378          estimate D2E/DX2                !
 ! R19   R(9,24)                 1.1027         estimate D2E/DX2                !
 ! R20   R(10,11)                1.8187         estimate D2E/DX2                !
 ! R21   R(10,25)                1.1027         estimate D2E/DX2                !
 ! R22   R(12,13)                1.3305         estimate D2E/DX2                !
 ! R23   R(12,26)                1.0165         estimate D2E/DX2                !
 ! R24   R(13,14)                1.1794         estimate D2E/DX2                !
 ! R25   R(14,15)                1.2786         estimate D2E/DX2                !
 ! R26   R(15,16)                1.4927         estimate D2E/DX2                !
 ! R27   R(15,27)                1.1567         estimate D2E/DX2                !
 ! R28   R(16,28)                1.1632         estimate D2E/DX2                !
 ! R29   R(17,29)                1.1174         estimate D2E/DX2                !
 ! A1    A(2,1,18)             113.0172         estimate D2E/DX2                !
 ! A2    A(2,1,19)             112.7404         estimate D2E/DX2                !
 ! A3    A(2,1,20)             112.7401         estimate D2E/DX2                !
 ! A4    A(18,1,19)            104.0912         estimate D2E/DX2                !
 ! A5    A(18,1,20)            104.0903         estimate D2E/DX2                !
 ! A6    A(19,1,20)            109.4826         estimate D2E/DX2                !
 ! A7    A(1,2,3)              115.0381         estimate D2E/DX2                !
 ! A8    A(2,3,4)              103.1577         estimate D2E/DX2                !
 ! A9    A(3,4,11)             158.0342         estimate D2E/DX2                !
 ! A10   A(3,4,21)             113.2027         estimate D2E/DX2                !
 ! A11   A(11,4,21)             88.7631         estimate D2E/DX2                !
 ! A12   A(6,5,11)              98.942          estimate D2E/DX2                !
 ! A13   A(6,5,22)             108.9012         estimate D2E/DX2                !
 ! A14   A(11,5,22)            152.1568         estimate D2E/DX2                !
 ! A15   A(5,6,23)              89.7737         estimate D2E/DX2                !
 ! A16   A(7,6,23)              89.7554         estimate D2E/DX2                !
 ! A17   A(6,7,8)               99.3511         estimate D2E/DX2                !
 ! A18   A(6,7,17)             145.4144         estimate D2E/DX2                !
 ! A19   A(8,7,17)             115.2344         estimate D2E/DX2                !
 ! A20   A(7,8,9)              134.4313         estimate D2E/DX2                !
 ! A21   A(7,8,12)             108.0927         estimate D2E/DX2                !
 ! A22   A(9,8,12)             117.476          estimate D2E/DX2                !
 ! A23   A(8,9,10)             138.8568         estimate D2E/DX2                !
 ! A24   A(8,9,24)              96.1569         estimate D2E/DX2                !
 ! A25   A(10,9,24)            124.9863         estimate D2E/DX2                !
 ! A26   A(9,10,11)            137.7156         estimate D2E/DX2                !
 ! A27   A(9,10,25)            107.3192         estimate D2E/DX2                !
 ! A28   A(11,10,25)           114.9652         estimate D2E/DX2                !
 ! A29   A(4,11,5)              71.3916         estimate D2E/DX2                !
 ! A30   A(5,11,10)            111.1741         estimate D2E/DX2                !
 ! A31   A(8,12,13)            153.0147         estimate D2E/DX2                !
 ! A32   A(8,12,26)             99.8017         estimate D2E/DX2                !
 ! A33   A(13,12,26)           107.1836         estimate D2E/DX2                !
 ! A34   A(12,13,14)            93.4311         estimate D2E/DX2                !
 ! A35   A(14,15,16)            99.8249         estimate D2E/DX2                !
 ! A36   A(14,15,27)            80.095          estimate D2E/DX2                !
 ! A37   A(15,16,28)            80.3265         estimate D2E/DX2                !
 ! A38   A(7,17,29)             86.6668         estimate D2E/DX2                !
 ! A39   L(5,6,7,23,-1)        179.5291         estimate D2E/DX2                !
 ! A40   L(4,11,10,5,-1)       182.5657         estimate D2E/DX2                !
 ! A41   L(13,14,15,7,-1)      181.6813         estimate D2E/DX2                !
 ! A42   L(16,15,27,14,-1)     179.9199         estimate D2E/DX2                !
 ! A43   L(5,6,7,23,-2)        180.0921         estimate D2E/DX2                !
 ! A44   L(4,11,10,5,-2)       179.9989         estimate D2E/DX2                !
 ! A45   L(13,14,15,7,-2)      179.9995         estimate D2E/DX2                !
 ! A46   L(16,15,27,14,-2)     180.0002         estimate D2E/DX2                !
 ! D1    D(18,1,2,3)          -179.9996         estimate D2E/DX2                !
 ! D2    D(19,1,2,3)            62.2977         estimate D2E/DX2                !
 ! D3    D(20,1,2,3)           -62.2983         estimate D2E/DX2                !
 ! D4    D(1,2,3,4)           -180.0            estimate D2E/DX2                !
 ! D5    D(2,3,4,11)           179.9992         estimate D2E/DX2                !
 ! D6    D(2,3,4,21)             0.0003         estimate D2E/DX2                !
 ! D7    D(3,4,11,5)             0.0147         estimate D2E/DX2                !
 ! D8    D(21,4,11,5)         -179.9863         estimate D2E/DX2                !
 ! D9    D(11,5,6,23)           -0.0692         estimate D2E/DX2                !
 ! D10   D(22,5,6,23)          179.9964         estimate D2E/DX2                !
 ! D11   D(11,5,7,8)             0.0011         estimate D2E/DX2                !
 ! D12   D(11,5,7,17)          179.9637         estimate D2E/DX2                !
 ! D13   D(22,5,7,8)          -179.9582         estimate D2E/DX2                !
 ! D14   D(22,5,7,17)            0.0044         estimate D2E/DX2                !
 ! D15   D(6,5,11,4)          -179.9418         estimate D2E/DX2                !
 ! D16   D(6,5,11,10)            0.0593         estimate D2E/DX2                !
 ! D17   D(22,5,11,4)           -0.0745         estimate D2E/DX2                !
 ! D18   D(22,5,11,10)         179.9265         estimate D2E/DX2                !
 ! D19   D(23,6,7,8)             0.0695         estimate D2E/DX2                !
 ! D20   D(23,6,7,17)          179.9632         estimate D2E/DX2                !
 ! D21   D(6,7,8,9)             -0.0588         estimate D2E/DX2                !
 ! D22   D(6,7,8,12)           179.9606         estimate D2E/DX2                !
 ! D23   D(17,7,8,9)          -179.9921         estimate D2E/DX2                !
 ! D24   D(17,7,8,12)            0.0273         estimate D2E/DX2                !
 ! D25   D(6,7,17,29)            0.0924         estimate D2E/DX2                !
 ! D26   D(8,7,17,29)          179.9765         estimate D2E/DX2                !
 ! D27   D(7,8,9,10)             0.0209         estimate D2E/DX2                !
 ! D28   D(7,8,9,24)          -179.9794         estimate D2E/DX2                !
 ! D29   D(12,8,9,10)         -179.9999         estimate D2E/DX2                !
 ! D30   D(12,8,9,24)           -0.0002         estimate D2E/DX2                !
 ! D31   D(7,8,12,13)          179.9839         estimate D2E/DX2                !
 ! D32   D(7,8,12,26)           -0.0155         estimate D2E/DX2                !
 ! D33   D(9,8,12,13)           -0.0005         estimate D2E/DX2                !
 ! D34   D(9,8,12,26)         -180.0            estimate D2E/DX2                !
 ! D35   D(8,9,10,11)            0.0            estimate D2E/DX2                !
 ! D36   D(8,9,10,25)          179.9995         estimate D2E/DX2                !
 ! D37   D(24,9,10,11)        -179.9996         estimate D2E/DX2                !
 ! D38   D(24,9,10,25)          -0.0001         estimate D2E/DX2                !
 ! D39   D(9,10,11,5)           -0.0144         estimate D2E/DX2                !
 ! D40   D(25,10,11,5)         179.9861         estimate D2E/DX2                !
 ! D41   D(8,12,13,14)        -179.9998         estimate D2E/DX2                !
 ! D42   D(26,12,13,14)         -0.0003         estimate D2E/DX2                !
 ! D43   D(12,13,15,16)          0.0004         estimate D2E/DX2                !
 ! D44   D(12,13,15,27)       -179.9998         estimate D2E/DX2                !
 ! D45   D(14,15,16,28)       -180.0            estimate D2E/DX2                !
 --------------------------------------------------------------------------------
 Trust Radius=3.00D-01 FncErr=1.00D-07 GrdErr=1.00D-06 EigMax=2.50D+02 EigMin=1.00D-04
 Number of steps in this run=    130 maximum allowed number of steps=    174.
 GradGradGradGradGradGradGradGradGradGradGradGradGradGradGradGradGradGrad

                          Input orientation:                          
 ---------------------------------------------------------------------
 Center     Atomic      Atomic             Coordinates (Angstroms)
 Number     Number       Type             X           Y           Z
 ---------------------------------------------------------------------
      1          6           0        1.063040   -0.043600   -0.022850
      2         16           0        2.995880   -0.101040    0.013420
      3          6           0        3.845800   -1.791920    1.081270
      4          6           0        5.121940   -1.604240    0.962740
      5          6           0        5.116260   -3.307460    2.037820
      6          6           0        6.265300   -4.111850    2.547400
      7          6           0        7.612350   -5.040680    3.132510
      8          6           0        8.748530   -4.191430    2.596640
      9          6           0        8.823470   -2.966150    1.822830
     10          6           0        7.971600   -2.050300    1.244440
     11         16           0        6.178040   -1.795640    1.083620
     12          6           0        9.864710   -4.745920    2.946820
     13          7           0       11.192820   -4.813640    2.989580
     14          7           0       11.192410   -5.810850    3.619360
     15          6           0       11.229480   -6.891440    4.301790
     16          6           0        9.766650   -7.142770    4.460510
     17          6           0        8.062430   -6.347200    3.958090
     18          1           0        0.660160    0.843590   -0.583150
     19          1           0        0.623430    0.049730    0.975960
     20          1           0        0.623430   -0.905360   -0.536380
     21          1           0        5.454670   -0.417410    0.213220
     22          1           0        4.165830   -3.798680    2.348620
     23          1           0        6.916120   -3.442930    2.123940
     24          1           0        9.924410   -2.914160    1.790000
     25          1           0        8.596120   -1.281940    0.759200
     26          1           0        9.506480   -5.550260    3.454790
     27          1           0       12.362690   -6.695350    4.177950
     28          1           0       10.186520   -8.059930    5.039730
     29          1           0        6.973280   -6.558170    4.091320
 ---------------------------------------------------------------------
                    Distance matrix (angstroms):
                    1          2          3          4          5
     1  C    0.000000
     2  S    1.934033   0.000000
     3  C    3.466909   2.172957   0.000000
     4  C    4.458885   2.771453   1.295302   0.000000
     5  C    5.597118   4.344575   2.196797   2.014147   0.000000
     6  C    7.086632   5.761663   3.658633   3.179076   1.492316
     7  C    8.821597   7.445842   5.380421   4.766462   3.229994
     8  C    9.117729   7.516468   5.664870   4.745033   3.779824
     9  C    8.495417   6.741189   5.167778   4.036815   3.729091
    10  C    7.304866   5.483869   4.137102   2.898083   3.219141
    11  S    5.518799   3.760737   2.332244   1.080089   2.079297
    12  C   10.411539   8.795486   6.959430   6.024997   5.044128
    13  N   11.594846   9.912414   8.170137   7.159882   6.332378
    14  N   12.211921  10.620162   8.750222   7.848809   6.759277
    15  C   12.998151  11.501818   9.533918   8.741040   7.439216
    16  C   12.093451  10.733401   8.666448   8.030133   6.496550
    17  C   10.226178   8.957950   6.841538   6.333583   4.648373
    18  H    1.123990   2.589172   4.456962   5.318753   6.630047
    19  H    1.095257   2.564709   3.713009   4.792951   5.708222
    20  H    1.095263   2.564709   3.713011   4.792952   5.708074
    21  H    4.413828   2.487098   2.287193   1.442586   3.434542
    22  H    5.417730   4.527083   2.394928   2.765931   1.114096
    23  H    7.100894   5.566939   3.638662   2.819264   1.807004
    24  H    9.489490   7.685988   6.221834   5.046183   4.830570
    25  H    7.674137   5.771776   4.788460   3.495030   4.224574
    26  H   10.663441   9.161056   7.197362   6.403560   5.129521
    27  H   13.768609  12.188739  10.303905   9.417295   8.280622
    28  H   13.157855  11.845380   9.755106   9.162301   7.570005
    29  H    9.710662   8.610662   6.446602   6.144664   4.269953
                    6          7          8          9         10
     6  C    0.000000
     7  C    1.737706   0.000000
     8  C    2.484993   1.516340   0.000000
     9  C    2.895145   2.736010   1.451106   0.000000
    10  C    2.976433   3.554749   2.648868   1.378042   0.000000
    11  S    2.741367   4.097009   3.825762   2.985770   1.818673
    12  C    3.676593   2.279142   1.294582   2.348428   3.707874
    13  N    4.996848   3.590507   2.552665   3.223095   4.588880
    14  N    5.320913   3.694187   3.105000   4.114817   5.491411
    15  C    5.953746   4.228021   4.043848   5.228961   6.587701
    16  C    5.010581   3.289890   3.636068   5.029026   6.284788
    17  C    3.196328   1.609705   2.640383   4.070628   5.082863
    18  H    8.110137   9.836855  10.044114   9.324296   8.072908
    19  H    7.184627   8.911116   9.307593   8.778005   7.647079
    20  H    7.184843   8.911040   9.307595   8.778006   7.647079
    21  H    4.444593   5.878134   5.547381   4.520590   3.172488
    22  H    2.131986   3.746405   4.606181   4.760585   4.331274
    23  H    1.024860   2.013642   2.035049   1.988962   1.956266
    24  H    3.923927   3.416144   1.914362   1.102656   2.203941
    25  H    4.079065   4.552860   3.444495   2.004884   1.102660
    26  H    3.660277   1.987779   1.776887   3.131680   4.414887
    27  H    6.819922   5.137763   4.672506   5.655051   7.033039
    28  H    6.097131   4.402239   4.796019   6.176807   7.444847
    29  H    2.978155   1.905388   3.314670   4.633774   5.424229
                   11         12         13         14         15
    11  S    0.000000
    12  C    5.076140   0.000000
    13  N    6.155406   1.330523   0.000000
    14  N    6.906214   1.830075   1.179428   0.000000
    15  C    7.863895   2.881284   2.457741   1.278577   0.000000
    16  C    7.271403   2.836505   3.102006   2.124697   1.492726
    17  C    5.703525   2.614379   3.617894   3.193616   3.231800
    18  H    6.339610  11.332566  12.478204  13.148040  13.978693
    19  H    5.854116  10.596405  11.807584  12.370825  13.104552
    20  H    5.854117  10.596407  11.807584  12.370826  13.104554
    21  H    1.783362   6.756998   7.743473   8.579781   9.590511
    22  H    3.108277   5.807955   7.128784   7.418655   7.954570
    23  H    2.083409   3.327025   4.573657   5.111749   5.936356
    24  H    3.973078   2.167289   2.579899   3.653108   4.881706
    25  H    2.493240   4.288841   4.918369   5.952501   7.137998
    26  H    5.549606   1.016526   1.898097   1.713870   2.341987
    27  H    8.475372   3.399391   2.514289   1.569687   1.156699
    28  H    8.423779   3.932747   3.969150   2.843875   1.731384
    29  H    5.688617   3.599236   4.696992   4.310718   4.274413
                   16         17         18         19         20
    16  C    0.000000
    17  C    1.946721   0.000000
    18  H   13.120542  11.274925   0.000000
    19  H   12.143830  10.254391   1.749968   0.000000
    20  H   12.143832  10.254394   1.749961   1.788678   0.000000
    21  H    9.047824   7.482438   5.021121   4.913336   4.913336
    22  H    6.856544   4.926341   6.514267   5.407685   5.407691
    23  H    5.222442   3.621176   8.052306   7.287968   7.287970
    24  H    5.003764   4.466917  10.275157   9.795690   9.795690
    25  H    7.029877   6.014531   8.324617   8.086045   8.086045
    26  H    1.901381   1.724443  11.638026  10.789489  10.789491
    27  H    2.649424   4.319929  14.712338  13.912551  13.912552
    28  H    1.163172   2.935157  14.200035  13.180801  13.180803
    29  H    2.877668   1.117366  10.793155   9.679380   9.679383
                   21         22         23         24         25
    21  H    0.000000
    22  H    4.201670   0.000000
    23  H    3.865289   2.782289   0.000000
    24  H    5.357105   5.852835   3.072608   0.000000
    25  H    3.303667   5.337388   3.058561   2.343298   0.000000
    26  H    7.298705   5.728367   3.594714   3.145666   5.129670
    27  H   10.141615   8.884011   6.668007   5.093615   7.428318
    28  H   10.202633   7.851690   6.365064   6.091666   8.172726
    29  H    7.419890   4.305063   3.684911   5.223414   6.447886
                   26         27         28         29
    26  H    0.000000
    27  H    3.161033   0.000000
    28  H    3.045149   2.709328   0.000000
    29  H    2.799671   5.391852   3.671468   0.000000
 Stoichiometry    C13H12N2S2
 Framework group  C1[X(C13H12N2S2)]
 Deg. of freedom    81
 Full point group                 C1      NOp   1
 Largest Abelian subgroup         C1      NOp   1
 Largest concise Abelian subgroup C1      NOp   1
                         Standard orientation:                         
 ---------------------------------------------------------------------
 Center     Atomic      Atomic             Coordinates (Angstroms)
 Number     Number       Type             X           Y           Z
 ---------------------------------------------------------------------
      1          6           0       -6.919396    0.967689   -0.000003
      2         16           0       -5.417747   -0.251135   -0.000000
      3          6           0       -3.462999    0.697920   -0.000000
      4          6           0       -2.646876   -0.307938    0.000001
      5          6           0       -1.327704    1.214091    0.000478
      6          6           0        0.164147    1.176877   -0.000858
      7          6           0        1.900898    1.119268    0.000391
      8          6           0        2.097543   -0.384267   -0.000000
      9          6           0        1.201811   -1.525921    0.000002
     10          6           0       -0.152094   -1.782708    0.000001
     11         16           0       -1.702020   -0.831235   -0.000003
     12          6           0        3.369861   -0.623327   -0.000001
     13          7           0        4.423642   -1.435631    0.000004
     14          7           0        5.198313   -0.546285   -0.000002
     15          6           0        6.066034    0.392768   -0.000001
     16          6           0        5.158643    1.578041    0.000003
     17          6           0        3.255698    1.988558   -0.000004
     18          1           0       -7.912574    0.441428    0.000004
     19          1           0       -6.952192    1.599100   -0.894337
     20          1           0       -6.952195    1.599095    0.894341
     21          1           0       -3.318397   -1.584697   -0.000003
     22          1           0       -1.662204    2.276786   -0.000009
     23          1           0        0.134544    0.152444   -0.000002
     24          1           0        1.991319   -2.295680   -0.000002
     25          1           0       -0.278445   -2.878106   -0.000005
     26          1           0        3.724910    0.329177   -0.000002
     27          1           0        6.767878   -0.526671   -0.000000
     28          1           0        6.187917    2.119856    0.000002
     29          1           0        2.598628    2.892309    0.000001
 ---------------------------------------------------------------------
 Rotational constants (GHZ):           1.5889018           0.1285575           0.1190249
 Standard basis: 6-31G(2df,p) (6D, 7F)
 There are   595 symmetry adapted cartesian basis functions of A   symmetry.
 There are   544 symmetry adapted basis functions of A   symmetry.
   544 basis functions,   880 primitive gaussians,   595 cartesian basis functions
    68 alpha electrons       68 beta electrons
       nuclear repulsion energy      1264.0430194539 Hartrees.
 NAtoms=   29 NActive=   29 NUniq=   29 SFac= 1.00D+00 NAtFMM=   60 NAOKFM=F Big=F
 Integral buffers will be    131072 words long.
 Raffenetti 2 integral format.
 Two-electron integral symmetry is turned on.
 One-electron integrals computed using PRISM.
 PrsmSu:  requested number of processors reduced to:  12 ShMem   1 Linda.
 NBasis=   544 RedAO= T EigKep=  1.18D-04  NBF=   544
 NBsUse=   544 1.00D-06 EigRej= -1.00D+00 NBFU=   544
 ExpMin= 1.17D-01 ExpMax= 2.19D+04 ExpMxC= 3.30D+03 IAcc=3 IRadAn=         5 AccDes= 0.00D+00
 Harris functional with IExCor=  402 and IRadAn=       5 diagonalized for initial guess.
 HarFok:  IExCor=  402 AccDes= 0.00D+00 IRadAn=         5 IDoV= 1 UseB2=F ITyADJ=14
 ICtDFT=  3500011 ScaDFX=  1.000000  1.000000  1.000000  1.000000
 FoFCou: FMM=F IPFlag=           0 FMFlag=      100000 FMFlg1=           0
         NFxFlg=           0 DoJE=T BraDBF=F KetDBF=T FulRan=T
         wScrn=  0.000000 ICntrl=       500 IOpCl=  0 I1Cent=   200000004 NGrid=           0
         NMat0=    1 NMatS0=      1 NMatT0=    0 NMatD0=    1 NMtDS0=    0 NMtDT0=    0
 Petite list used in FoFCou.
 Requested convergence on RMS density matrix=1.00D-08 within 128 cycles.
 Requested convergence on MAX density matrix=1.00D-06.
 Requested convergence on             energy=1.00D-06.
 No special actions if energy rises.
 Integral accuracy reduced to 1.0D-05 until final iterations.
 EnCoef did     5 forward-backward iterations
 EnCoef did   100 forward-backward iterations
 EnCoef did     5 forward-backward iterations
 EnCoef did     1 forward-backward iterations
 EnCoef did     3 forward-backward iterations
 EnCoef did     4 forward-backward iterations
 EnCoef did     2 forward-backward iterations
 Rare condition: small coef for last iteration:  0.000D+00
 Initial convergence to 1.0D-05 achieved.  Increase integral accuracy.
 EnCoef did     2 forward-backward iterations
 EnCoef did     2 forward-backward iterations
 EnCoef did     2 forward-backward iterations
 Restarting incremental Fock formation.
 SCF Done:  E(RB3LYP) =  -1406.52468208     A.U. after   40 cycles
            NFock= 40  Conv=0.52D-08     -V/T= 2.0022

 **********************************************************************

            Population analysis using the SCF density.

 **********************************************************************

 Orbital symmetries:
       Occupied  (A) (A) (A) (A) (A) (A) (A) (A) (A) (A) (A) (A)
                 (A) (A) (A) (A) (A) (A) (A) (A) (A) (A) (A) (A)
                 (A) (A) (A) (A) (A) (A) (A) (A) (A) (A) (A) (A)
                 (A) (A) (A) (A) (A) (A) (A) (A) (A) (A) (A) (A)
                 (A) (A) (A) (A) (A) (A) (A) (A) (A) (A) (A) (A)
                 (A) (A) (A) (A) (A) (A) (A) (A)
       Virtual   (A) (A) (A) (A) (A) (A) (A) (A) (A) (A) (A) (A)
                 (A) (A) (A) (A) (A) (A) (A) (A) (A) (A) (A) (A)
                 (A) (A) (A) (A) (A) (A) (A) (A) (A) (A) (A) (A)
                 (A) (A) (A) (A) (A) (A) (A) (A) (A) (A) (A) (A)
                 (A) (A) (A) (A) (A) (A) (A) (A) (A) (A) (A) (A)
                 (A) (A) (A) (A) (A) (A) (A) (A) (A) (A) (A) (A)
                 (A) (A) (A) (A) (A) (A) (A) (A) (A) (A) (A) (A)
                 (A) (A) (A) (A) (A) (A) (A) (A) (A) (A) (A) (A)
                 (A) (A) (A) (A) (A) (A) (A) (A) (A) (A) (A) (A)
                 (A) (A) (A) (A) (A) (A) (A) (A) (A) (A) (A) (A)
                 (A) (A) (A) (A) (A) (A) (A) (A) (A) (A) (A) (A)
                 (A) (A) (A) (A) (A) (A) (A) (A) (A) (A) (A) (A)
                 (A) (A) (A) (A) (A) (A) (A) (A) (A) (A) (A) (A)
                 (A) (A) (A) (A) (A) (A) (A) (A) (A) (A) (A) (A)
                 (A) (A) (A) (A) (A) (A) (A) (A) (A) (A) (A) (A)
                 (A) (A) (A) (A) (A) (A) (A) (A) (A) (A) (A) (A)
                 (A) (A) (A) (A) (A) (A) (A) (A) (A) (A) (A) (A)
                 (A) (A) (A) (A) (A) (A) (A) (A) (A) (A) (A) (A)
                 (A) (A) (A) (A) (A) (A) (A) (A) (A) (A) (A) (A)
                 (A) (A) (A) (A) (A) (A) (A) (A) (A) (A) (A) (A)
                 (A) (A) (A) (A) (A) (A) (A) (A) (A) (A) (A) (A)
                 (A) (A) (A) (A) (A) (A) (A) (A) (A) (A) (A) (A)
                 (A) (A) (A) (A) (A) (A) (A) (A) (A) (A) (A) (A)
                 (A) (A) (A) (A) (A) (A) (A) (A) (A) (A) (A) (A)
                 (A) (A) (A) (A) (A) (A) (A) (A) (A) (A) (A) (A)
                 (A) (A) (A) (A) (A) (A) (A) (A) (A) (A) (A) (A)
                 (A) (A) (A) (A) (A) (A) (A) (A) (A) (A) (A) (A)
                 (A) (A) (A) (A) (A) (A) (A) (A) (A) (A) (A) (A)
                 (A) (A) (A) (A) (A) (A) (A) (A) (A) (A) (A) (A)
                 (A) (A) (A) (A) (A) (A) (A) (A) (A) (A) (A) (A)
                 (A) (A) (A) (A) (A) (A) (A) (A) (A) (A) (A) (A)
                 (A) (A) (A) (A) (A) (A) (A) (A) (A) (A) (A) (A)
                 (A) (A) (A) (A) (A) (A) (A) (A) (A) (A) (A) (A)
                 (A) (A) (A) (A) (A) (A) (A) (A) (A) (A) (A) (A)
                 (A) (A) (A) (A) (A) (A) (A) (A) (A) (A) (A) (A)
                 (A) (A) (A) (A) (A) (A) (A) (A) (A) (A) (A) (A)
                 (A) (A) (A) (A) (A) (A) (A) (A) (A) (A) (A) (A)
                 (A) (A) (A) (A) (A) (A) (A) (A) (A) (A) (A) (A)
                 (A) (A) (A) (A) (A) (A) (A) (A) (A) (A) (A) (A)
                 (A) (A) (A) (A) (A) (A) (A) (A)
 The electronic state is 1-A.
 Alpha  occ. eigenvalues --  -88.94552 -88.87448 -14.46037 -14.42214 -10.29412
 Alpha  occ. eigenvalues --  -10.28243 -10.26759 -10.26183 -10.25606 -10.22760
 Alpha  occ. eigenvalues --  -10.22365 -10.22162 -10.21585 -10.20871 -10.20730
 Alpha  occ. eigenvalues --  -10.20454 -10.20133  -8.05251  -7.93386  -6.01982
 Alpha  occ. eigenvalues --   -6.00756  -6.00152  -5.89854  -5.89600  -5.88893
 Alpha  occ. eigenvalues --   -1.16915  -1.01524  -0.94024  -0.86454  -0.80621
 Alpha  occ. eigenvalues --   -0.75904  -0.74410  -0.72754  -0.71953  -0.69971
 Alpha  occ. eigenvalues --   -0.66835  -0.63213  -0.62325  -0.60596  -0.59889
 Alpha  occ. eigenvalues --   -0.57048  -0.55524  -0.52715  -0.51655  -0.51046
 Alpha  occ. eigenvalues --   -0.48796  -0.46705  -0.44214  -0.42959  -0.40655
 Alpha  occ. eigenvalues --   -0.39790  -0.39375  -0.37740  -0.36431  -0.34997
 Alpha  occ. eigenvalues --   -0.33905  -0.32870  -0.31880  -0.31509  -0.30654
 Alpha  occ. eigenvalues --   -0.30302  -0.25635  -0.24181  -0.23714  -0.21959
 Alpha  occ. eigenvalues --   -0.21070  -0.18505  -0.16916
 Alpha virt. eigenvalues --   -0.13758  -0.10675  -0.09599  -0.08057  -0.05626
 Alpha virt. eigenvalues --   -0.05288  -0.04315   0.01062   0.02049   0.02331
 Alpha virt. eigenvalues --    0.03476   0.05794   0.06071   0.07410   0.07705
 Alpha virt. eigenvalues --    0.08986   0.12537   0.13162   0.13401   0.14977
 Alpha virt. eigenvalues --    0.15664   0.16209   0.16996   0.17586   0.18586
 Alpha virt. eigenvalues --    0.20036   0.23043   0.24809   0.25249   0.26714
 Alpha virt. eigenvalues --    0.27337   0.28808   0.29345   0.30318   0.31513
 Alpha virt. eigenvalues --    0.31903   0.33733   0.35536   0.36171   0.37910
 Alpha virt. eigenvalues --    0.38451   0.39561   0.39802   0.40390   0.41889
 Alpha virt. eigenvalues --    0.42560   0.42734   0.45256   0.45284   0.45762
 Alpha virt. eigenvalues --    0.46622   0.47707   0.48112   0.48833   0.49437
 Alpha virt. eigenvalues --    0.49816   0.50937   0.51103   0.51978   0.52753
 Alpha virt. eigenvalues --    0.53405   0.53849   0.53879   0.55934   0.57132
 Alpha virt. eigenvalues --    0.57510   0.57930   0.58302   0.58964   0.60068
 Alpha virt. eigenvalues --    0.60395   0.61045   0.61342   0.62602   0.63246
 Alpha virt. eigenvalues --    0.63479   0.64810   0.65068   0.65823   0.66226
 Alpha virt. eigenvalues --    0.66355   0.67486   0.67551   0.68080   0.68454
 Alpha virt. eigenvalues --    0.69948   0.70603   0.72028   0.72753   0.73581
 Alpha virt. eigenvalues --    0.74344   0.74595   0.75082   0.75613   0.75647
 Alpha virt. eigenvalues --    0.76510   0.77974   0.78421   0.79087   0.80097
 Alpha virt. eigenvalues --    0.80229   0.80407   0.81243   0.83426   0.83511
 Alpha virt. eigenvalues --    0.86453   0.86671   0.87105   0.87813   0.88675
 Alpha virt. eigenvalues --    0.89519   0.90480   0.90534   0.92130   0.93223
 Alpha virt. eigenvalues --    0.93409   0.95396   0.96859   0.98784   0.99063
 Alpha virt. eigenvalues --    1.00699   1.01028   1.02534   1.03046   1.04525
 Alpha virt. eigenvalues --    1.05277   1.06298   1.06697   1.08923   1.10671
 Alpha virt. eigenvalues --    1.11010   1.11539   1.12516   1.13886   1.14865
 Alpha virt. eigenvalues --    1.15499   1.18363   1.19196   1.21654   1.23526
 Alpha virt. eigenvalues --    1.24172   1.24280   1.25723   1.26738   1.28054
 Alpha virt. eigenvalues --    1.28624   1.29869   1.30329   1.31160   1.32167
 Alpha virt. eigenvalues --    1.34292   1.35286   1.35856   1.36734   1.37869
 Alpha virt. eigenvalues --    1.39307   1.39734   1.41620   1.44523   1.45380
 Alpha virt. eigenvalues --    1.46303   1.47219   1.48378   1.49799   1.51516
 Alpha virt. eigenvalues --    1.52624   1.53931   1.55542   1.55668   1.57706
 Alpha virt. eigenvalues --    1.58371   1.58598   1.61966   1.63130   1.63161
 Alpha virt. eigenvalues --    1.64235   1.64414   1.67130   1.67400   1.68310
 Alpha virt. eigenvalues --    1.68822   1.70929   1.71667   1.71869   1.73449
 Alpha virt. eigenvalues --    1.74339   1.74622   1.77275   1.78337   1.78696
 Alpha virt. eigenvalues --    1.79918   1.81524   1.82739   1.84669   1.84774
 Alpha virt. eigenvalues --    1.86618   1.88646   1.90340   1.93560   1.93872
 Alpha virt. eigenvalues --    1.95459   1.95939   1.96831   1.97914   1.99434
 Alpha virt. eigenvalues --    2.00653   2.01277   2.02516   2.04144   2.07039
 Alpha virt. eigenvalues --    2.09831   2.10323   2.11937   2.12908   2.12999
 Alpha virt. eigenvalues --    2.14174   2.14518   2.17147   2.18438   2.19256
 Alpha virt. eigenvalues --    2.20961   2.21460   2.23059   2.23137   2.23228
 Alpha virt. eigenvalues --    2.25460   2.27163   2.27834   2.29257   2.31732
 Alpha virt. eigenvalues --    2.31894   2.34229   2.37461   2.37574   2.39122
 Alpha virt. eigenvalues --    2.40908   2.41850   2.43265   2.43678   2.43845
 Alpha virt. eigenvalues --    2.45250   2.47199   2.47809   2.48036   2.50101
 Alpha virt. eigenvalues --    2.51873   2.54344   2.56423   2.57801   2.59801
 Alpha virt. eigenvalues --    2.61099   2.66597   2.67046   2.69544   2.69783
 Alpha virt. eigenvalues --    2.74528   2.75830   2.76173   2.77646   2.78181
 Alpha virt. eigenvalues --    2.78817   2.79355   2.80590   2.80817   2.83702
 Alpha virt. eigenvalues --    2.84078   2.85371   2.88323   2.89534   2.91767
 Alpha virt. eigenvalues --    2.92414   2.93332   2.94155   2.95007   2.97103
 Alpha virt. eigenvalues --    2.99496   3.00731   3.02653   3.03458   3.03721
 Alpha virt. eigenvalues --    3.06002   3.06080   3.07003   3.08346   3.08716
 Alpha virt. eigenvalues --    3.09363   3.11247   3.11604   3.12680   3.14188
 Alpha virt. eigenvalues --    3.15808   3.16764   3.17587   3.18386   3.18611
 Alpha virt. eigenvalues --    3.19818   3.21662   3.22420   3.23322   3.23754
 Alpha virt. eigenvalues --    3.25340   3.25684   3.26895   3.26968   3.29481
 Alpha virt. eigenvalues --    3.31281   3.31871   3.32009   3.34405   3.36413
 Alpha virt. eigenvalues --    3.37252   3.38467   3.38925   3.40124   3.40146
 Alpha virt. eigenvalues --    3.41337   3.42400   3.45762   3.46471   3.48327
 Alpha virt. eigenvalues --    3.48543   3.51688   3.52243   3.52979   3.55283
 Alpha virt. eigenvalues --    3.55360   3.56288   3.56657   3.57143   3.58439
 Alpha virt. eigenvalues --    3.59559   3.60348   3.61772   3.63543   3.66538
 Alpha virt. eigenvalues --    3.66755   3.67303   3.68053   3.70235   3.73181
 Alpha virt. eigenvalues --    3.74088   3.74653   3.78204   3.80760   3.83938
 Alpha virt. eigenvalues --    3.84946   3.86415   3.88708   3.89305   3.89830
 Alpha virt. eigenvalues --    3.90694   3.91967   3.94552   3.95265   3.95427
 Alpha virt. eigenvalues --    3.96746   3.98111   4.02392   4.02711   4.03777
 Alpha virt. eigenvalues --    4.05043   4.06492   4.07433   4.09493   4.12742
 Alpha virt. eigenvalues --    4.13619   4.16775   4.18796   4.19617   4.21671
 Alpha virt. eigenvalues --    4.22186   4.22457   4.24156   4.26455   4.26502
 Alpha virt. eigenvalues --    4.27926   4.30189   4.31037   4.31838   4.34586
 Alpha virt. eigenvalues --    4.35892   4.36136   4.38254   4.38387   4.39604
 Alpha virt. eigenvalues --    4.39677   4.41691   4.43334   4.44516   4.45789
 Alpha virt. eigenvalues --    4.47408   4.49984   4.50234   4.51545   4.55120
 Alpha virt. eigenvalues --    4.56189   4.56481   4.58510   4.60929   4.61580
 Alpha virt. eigenvalues --    4.62762   4.63061   4.64387   4.65053   4.67442
 Alpha virt. eigenvalues --    4.68440   4.70054   4.71443   4.72695   4.73080
 Alpha virt. eigenvalues --    4.74170   4.75797   4.76942   4.77887   4.78997
 Alpha virt. eigenvalues --    4.80574   4.82492   4.86306   4.86817   4.87669
 Alpha virt. eigenvalues --    4.87748   4.93205   4.93825   4.93874   5.00358
 Alpha virt. eigenvalues --    5.01506   5.02612   5.04266   5.05148   5.06652
 Alpha virt. eigenvalues --    5.07841   5.10941   5.13068   5.16041   5.16472
 Alpha virt. eigenvalues --    5.20672   5.25244   5.29145   5.34051   5.35314
 Alpha virt. eigenvalues --    5.38490   5.41580   5.42302   5.47022   5.47649
 Alpha virt. eigenvalues --    5.58481   5.59269   5.63314   5.68832   5.71466
 Alpha virt. eigenvalues --    5.75420   5.84191   5.85410   6.01573   6.19382
 Alpha virt. eigenvalues --    6.31724   6.48787   6.63053   7.71259   9.84685
 Alpha virt. eigenvalues --   10.06600  10.28805  10.39785  10.73338  10.80258
 Alpha virt. eigenvalues --   10.97199  11.14416  11.21296  11.31470  11.57965
 Alpha virt. eigenvalues --   11.69187  11.75224  12.39610  12.72212  14.76511
 Alpha virt. eigenvalues --   20.23978
          Condensed to atoms (all electrons):
               1          2          3          4          5          6
     1  C    4.999803   0.267021  -0.004347  -0.000379   0.000012  -0.000000
     2  S    0.267021  15.832243   0.151084   0.005462  -0.001125  -0.000198
     3  C   -0.004347   0.151084   5.736685   0.738312  -0.003277   0.003777
     4  C   -0.000379   0.005462   0.738312   4.748384  -0.039466   0.001934
     5  C    0.000012  -0.001125  -0.003277  -0.039466   5.526375   0.463012
     6  C   -0.000000  -0.000198   0.003777   0.001934   0.463012   5.213445
     7  C    0.000000   0.000000  -0.000033   0.000094  -0.017737   0.310077
     8  C   -0.000000   0.000000  -0.000010  -0.000091   0.002846  -0.007840
     9  C   -0.000000  -0.000002   0.000138   0.000627   0.001022  -0.021890
    10  C   -0.000000   0.000078   0.002867   0.023011  -0.025006  -0.012620
    11  S   -0.000065  -0.008030  -0.193126   0.445775   0.193779  -0.060158
    12  C   -0.000000  -0.000000  -0.000000  -0.000006  -0.000178   0.000487
    13  N   -0.000000  -0.000000  -0.000000  -0.000000  -0.000000  -0.000145
    14  N    0.000000  -0.000000   0.000000  -0.000000   0.000000   0.000012
    15  C    0.000000   0.000000  -0.000000  -0.000000   0.000000   0.000001
    16  C    0.000000   0.000000  -0.000000  -0.000000   0.000001   0.000203
    17  C   -0.000000  -0.000000  -0.000000  -0.000000  -0.000666  -0.034352
    18  H    0.370813  -0.020267   0.000314   0.000006  -0.000000  -0.000000
    19  H    0.380156  -0.033377  -0.000065   0.000025   0.000000   0.000000
    20  H    0.380307  -0.033531  -0.000037   0.000030   0.000000   0.000000
    21  H    0.000281   0.006622  -0.044392   0.030466   0.022869  -0.000054
    22  H   -0.000004   0.000993  -0.025759  -0.009839   0.352982  -0.072575
    23  H   -0.000000  -0.000003   0.000123  -0.003017  -0.111295   0.352625
    24  H   -0.000000   0.000000   0.000001   0.000044  -0.000083   0.001280
    25  H    0.000000   0.000009  -0.000082  -0.001445   0.000501   0.000749
    26  H    0.000000   0.000000  -0.000000   0.000000  -0.000020   0.001780
    27  H    0.000000   0.000000  -0.000000   0.000000   0.000000   0.000000
    28  H    0.000000  -0.000000   0.000000  -0.000000   0.000000  -0.000000
    29  H    0.000000   0.000000   0.000000   0.000000   0.000411   0.008367
               7          8          9         10         11         12
     1  C    0.000000  -0.000000  -0.000000  -0.000000  -0.000065  -0.000000
     2  S    0.000000   0.000000  -0.000002   0.000078  -0.008030  -0.000000
     3  C   -0.000033  -0.000010   0.000138   0.002867  -0.193126  -0.000000
     4  C    0.000094  -0.000091   0.000627   0.023011   0.445775  -0.000006
     5  C   -0.017737   0.002846   0.001022  -0.025006   0.193779  -0.000178
     6  C    0.310077  -0.007840  -0.021890  -0.012620  -0.060158   0.000487
     7  C    5.155543   0.422174  -0.080319  -0.007557   0.004170   0.004274
     8  C    0.422174   4.500081   0.485072  -0.019317  -0.004368   0.512836
     9  C   -0.080319   0.485072   5.019053   0.516190  -0.029533  -0.048826
    10  C   -0.007557  -0.019317   0.516190   5.182672   0.254069   0.007865
    11  S    0.004170  -0.004368  -0.029533   0.254069  14.885852  -0.000422
    12  C    0.004274   0.512836  -0.048826   0.007865  -0.000422   5.005967
    13  N    0.005830  -0.030819  -0.015631   0.000243  -0.000007   0.360434
    14  N    0.002229  -0.011641   0.000539   0.000011   0.000000  -0.157029
    15  C   -0.000220   0.000703  -0.000024  -0.000000   0.000000   0.010394
    16  C   -0.008053   0.002201  -0.000084   0.000001   0.000000  -0.029333
    17  C    0.457220  -0.016647   0.005880   0.000065  -0.000075  -0.075096
    18  H    0.000000   0.000000  -0.000000  -0.000000  -0.000000  -0.000000
    19  H   -0.000000  -0.000000   0.000000   0.000000  -0.000002   0.000000
    20  H   -0.000000  -0.000000   0.000000   0.000000  -0.000002   0.000000
    21  H    0.000003  -0.000003  -0.000067  -0.017793   0.081125  -0.000000
    22  H   -0.001234  -0.000067  -0.000105   0.000730   0.000301   0.000005
    23  H   -0.038237  -0.031482  -0.001104   0.038718  -0.024807   0.001905
    24  H    0.007695  -0.003427   0.317522  -0.047020   0.003126  -0.028155
    25  H   -0.000078   0.001088  -0.026257   0.358921  -0.042496  -0.000008
    26  H   -0.079571  -0.026743   0.010424  -0.000391   0.000006   0.393696
    27  H   -0.000021   0.000023  -0.000000  -0.000000   0.000000   0.001040
    28  H    0.000235  -0.000089   0.000001  -0.000000  -0.000000   0.001943
    29  H   -0.046073  -0.000750  -0.000237  -0.000013   0.000013   0.004448
              13         14         15         16         17         18
     1  C   -0.000000   0.000000   0.000000   0.000000  -0.000000   0.370813
     2  S   -0.000000  -0.000000   0.000000   0.000000  -0.000000  -0.020267
     3  C   -0.000000   0.000000  -0.000000  -0.000000  -0.000000   0.000314
     4  C   -0.000000  -0.000000  -0.000000  -0.000000  -0.000000   0.000006
     5  C   -0.000000   0.000000   0.000000   0.000001  -0.000666  -0.000000
     6  C   -0.000145   0.000012   0.000001   0.000203  -0.034352  -0.000000
     7  C    0.005830   0.002229  -0.000220  -0.008053   0.457220   0.000000
     8  C   -0.030819  -0.011641   0.000703   0.002201  -0.016647   0.000000
     9  C   -0.015631   0.000539  -0.000024  -0.000084   0.005880  -0.000000
    10  C    0.000243   0.000011  -0.000000   0.000001   0.000065  -0.000000
    11  S   -0.000007   0.000000   0.000000   0.000000  -0.000075  -0.000000
    12  C    0.360434  -0.157029   0.010394  -0.029333  -0.075096  -0.000000
    13  N    6.615690   0.543573  -0.085020   0.016963   0.003537   0.000000
    14  N    0.543573   6.057891   0.518625  -0.086429  -0.003522   0.000000
    15  C   -0.085020   0.518625   4.986188   0.452895  -0.012063   0.000000
    16  C    0.016963  -0.086429   0.452895   5.334546   0.324276   0.000000
    17  C    0.003537  -0.003522  -0.012063   0.324276   5.337561  -0.000000
    18  H    0.000000   0.000000   0.000000   0.000000  -0.000000   0.565383
    19  H    0.000000  -0.000000   0.000000  -0.000000   0.000000  -0.032435
    20  H   -0.000000   0.000000  -0.000000  -0.000000   0.000000  -0.032547
    21  H   -0.000000   0.000000   0.000000   0.000000  -0.000000  -0.000003
    22  H   -0.000000   0.000000  -0.000000  -0.000000   0.000036   0.000000
    23  H    0.000044  -0.000011  -0.000000  -0.000024   0.003888  -0.000000
    24  H    0.007452   0.000370   0.000005  -0.000023  -0.000163  -0.000000
    25  H   -0.000023  -0.000000   0.000000  -0.000000   0.000001   0.000000
    26  H   -0.103574  -0.045287  -0.001301   0.002788   0.021751   0.000000
    27  H    0.002876  -0.029603   0.321076  -0.005186   0.000245   0.000000
    28  H   -0.001110   0.002969  -0.070131   0.300521  -0.013748   0.000000
    29  H   -0.000129   0.000048   0.000201  -0.014300   0.318417   0.000000
              19         20         21         22         23         24
     1  C    0.380156   0.380307   0.000281  -0.000004  -0.000000  -0.000000
     2  S   -0.033377  -0.033531   0.006622   0.000993  -0.000003   0.000000
     3  C   -0.000065  -0.000037  -0.044392  -0.025759   0.000123   0.000001
     4  C    0.000025   0.000030   0.030466  -0.009839  -0.003017   0.000044
     5  C    0.000000   0.000000   0.022869   0.352982  -0.111295  -0.000083
     6  C    0.000000   0.000000  -0.000054  -0.072575   0.352625   0.001280
     7  C   -0.000000  -0.000000   0.000003  -0.001234  -0.038237   0.007695
     8  C   -0.000000  -0.000000  -0.000003  -0.000067  -0.031482  -0.003427
     9  C    0.000000   0.000000  -0.000067  -0.000105  -0.001104   0.317522
    10  C    0.000000   0.000000  -0.017793   0.000730   0.038718  -0.047020
    11  S   -0.000002  -0.000002   0.081125   0.000301  -0.024807   0.003126
    12  C    0.000000   0.000000  -0.000000   0.000005   0.001905  -0.028155
    13  N    0.000000  -0.000000  -0.000000  -0.000000   0.000044   0.007452
    14  N   -0.000000   0.000000   0.000000   0.000000  -0.000011   0.000370
    15  C    0.000000  -0.000000   0.000000  -0.000000  -0.000000   0.000005
    16  C   -0.000000  -0.000000   0.000000  -0.000000  -0.000024  -0.000023
    17  C    0.000000   0.000000  -0.000000   0.000036   0.003888  -0.000163
    18  H   -0.032435  -0.032547  -0.000003   0.000000  -0.000000  -0.000000
    19  H    0.565909  -0.032004  -0.000003  -0.000001   0.000000   0.000000
    20  H   -0.032004   0.565875  -0.000002  -0.000001  -0.000000   0.000000
    21  H   -0.000003  -0.000002   0.868308  -0.000561  -0.000844  -0.000012
    22  H   -0.000001  -0.000001  -0.000561   0.592847   0.009530   0.000002
    23  H    0.000000  -0.000000  -0.000844   0.009530   0.598551   0.000802
    24  H    0.000000   0.000000  -0.000012   0.000002   0.000802   0.611604
    25  H   -0.000000  -0.000000   0.001274   0.000002   0.000513  -0.006325
    26  H    0.000000  -0.000000   0.000000  -0.000000   0.000127  -0.000343
    27  H    0.000000   0.000000   0.000000  -0.000000  -0.000000  -0.000003
    28  H   -0.000000   0.000000  -0.000000   0.000000   0.000000   0.000000
    29  H    0.000000  -0.000000   0.000000  -0.000037  -0.000481   0.000005
              25         26         27         28         29
     1  C    0.000000   0.000000   0.000000   0.000000   0.000000
     2  S    0.000009   0.000000   0.000000  -0.000000   0.000000
     3  C   -0.000082  -0.000000  -0.000000   0.000000   0.000000
     4  C   -0.001445   0.000000   0.000000  -0.000000   0.000000
     5  C    0.000501  -0.000020   0.000000   0.000000   0.000411
     6  C    0.000749   0.001780   0.000000  -0.000000   0.008367
     7  C   -0.000078  -0.079571  -0.000021   0.000235  -0.046073
     8  C    0.001088  -0.026743   0.000023  -0.000089  -0.000750
     9  C   -0.026257   0.010424  -0.000000   0.000001  -0.000237
    10  C    0.358921  -0.000391  -0.000000  -0.000000  -0.000013
    11  S   -0.042496   0.000006   0.000000  -0.000000   0.000013
    12  C   -0.000008   0.393696   0.001040   0.001943   0.004448
    13  N   -0.000023  -0.103574   0.002876  -0.001110  -0.000129
    14  N   -0.000000  -0.045287  -0.029603   0.002969   0.000048
    15  C    0.000000  -0.001301   0.321076  -0.070131   0.000201
    16  C   -0.000000   0.002788  -0.005186   0.300521  -0.014300
    17  C    0.000001   0.021751   0.000245  -0.013748   0.318417
    18  H    0.000000   0.000000   0.000000   0.000000   0.000000
    19  H   -0.000000   0.000000   0.000000  -0.000000   0.000000
    20  H   -0.000000  -0.000000   0.000000   0.000000  -0.000000
    21  H    0.001274   0.000000   0.000000  -0.000000   0.000000
    22  H    0.000002  -0.000000  -0.000000   0.000000  -0.000037
    23  H    0.000513   0.000127  -0.000000   0.000000  -0.000481
    24  H   -0.006325  -0.000343  -0.000003   0.000000   0.000005
    25  H    0.549106   0.000011   0.000000   0.000000  -0.000000
    26  H    0.000011   0.614810   0.001983  -0.000823  -0.002914
    27  H    0.000000   0.001983   0.439150  -0.002335  -0.000002
    28  H    0.000000  -0.000823  -0.002335   0.643189   0.000021
    29  H   -0.000000  -0.002914  -0.000002   0.000021   0.578429
 Mulliken charges:
               1
     1  C   -0.393599
     2  S   -0.166980
     3  C   -0.362171
     4  C    0.060074
     5  C   -0.364959
     6  C   -0.147916
     7  C   -0.090411
     8  C    0.226272
     9  C   -0.132389
    10  C   -0.255724
    11  S    0.494877
    12  C    0.033760
    13  N   -0.320185
    14  N    0.207255
    15  C   -0.121329
    16  C   -0.290961
    17  C   -0.316546
    18  H    0.148736
    19  H    0.151798
    20  H    0.151912
    21  H    0.052786
    22  H    0.152756
    23  H    0.204477
    24  H    0.135645
    25  H    0.164538
    26  H    0.213590
    27  H    0.270759
    28  H    0.139356
    29  H    0.154577
 Sum of Mulliken charges =  -0.00000
 Mulliken charges with hydrogens summed into heavy atoms:
               1
     1  C    0.058847
     2  S   -0.166980
     3  C   -0.362171
     4  C    0.112861
     5  C   -0.212203
     6  C    0.056561
     7  C   -0.090411
     8  C    0.226272
     9  C    0.003256
    10  C   -0.091186
    11  S    0.494877
    12  C    0.247350
    13  N   -0.320185
    14  N    0.207255
    15  C    0.149430
    16  C   -0.151605
    17  C   -0.161969
 Electronic spatial extent (au):  <R**2>=           8394.2885
 Charge=             -0.0000 electrons
 Dipole moment (field-independent basis, Debye):
    X=              4.6498    Y=             -3.1541    Z=             -0.1583  Tot=              5.6208
 Quadrupole moment (field-independent basis, Debye-Ang):
   XX=            -85.6995   YY=           -110.9559   ZZ=           -120.3010
   XY=             -8.4137   XZ=             -0.6147   YZ=              0.2165
 Traceless Quadrupole moment (field-independent basis, Debye-Ang):
   XX=             19.9526   YY=             -5.3037   ZZ=            -14.6489
   XY=             -8.4137   XZ=             -0.6147   YZ=              0.2165
 Octapole moment (field-independent basis, Debye-Ang**2):
  XXX=            162.7576  YYY=            -24.4367  ZZZ=             -0.2177  XYY=            -18.0908
  XXY=             -3.6539  XXZ=             -3.7940  XZZ=             -7.9442  YZZ=             -7.3639
  YYZ=             -1.7379  XYZ=              0.8477
 Hexadecapole moment (field-independent basis, Debye-Ang**3):
 XXXX=          -7889.7607 YYYY=           -976.5817 ZZZZ=           -137.3219 XXXY=           -515.3674
 XXXZ=            -19.7559 YYYX=            -44.8222 YYYZ=             -0.5646 ZZZX=             -0.8914
 ZZZY=              0.0270 XXYY=          -1943.8791 XXZZ=          -1867.6159 YYZZ=           -207.8317
 XXYZ=              2.9613 YYXZ=             -8.3501 ZZXY=            -37.8954
 N-N= 1.264043019454D+03 E-N=-5.837027062363D+03  KE= 1.403458273692D+03
 PrsmSu:  requested number of processors reduced to:  13 ShMem   1 Linda.
 Calling FoFJK, ICntrl=      2127 FMM=F ISym2X=0 I1Cent= 0 IOpClX= 0 NMat=1 NMatS=1 NMatT=0.
 ***** Axes restored to original set *****
 -------------------------------------------------------------------
 Center     Atomic                   Forces (Hartrees/Bohr)
 Number     Number              X              Y              Z
 -------------------------------------------------------------------
      1        6           0.001232272   -0.001408329    0.001085931
      2       16          -0.010142856   -0.020409338    0.013071247
      3        6          -0.083791996    0.050399813   -0.033095964
      4        6          -1.876384704    0.433998541   -0.269499300
      5        6           0.047533886   -0.158890377    0.100694983
      6        6          -0.016342331    0.015454098   -0.009079997
      7        6           0.030093679   -0.014092626    0.006038260
      8        6          -0.070926005    0.044544559   -0.037249205
      9        6          -0.014893851   -0.027524894    0.016533285
     10        6           0.033101944    0.009080525   -0.005260330
     11       16           1.932749591   -0.385731603    0.238012785
     12        6          -0.002119752    0.021849423    0.026421628
     13        7           0.024726624    0.082390257   -0.072514187
     14        7           0.105346878   -0.054388101    0.003683993
     15        6          -0.035362643    0.094177528   -0.027245925
     16        6          -0.000565827   -0.071506284    0.038459270
     17        6          -0.032036782    0.061893832   -0.042321547
     18        1           0.023040504   -0.008008608    0.005083439
     19        1           0.006725091   -0.004310318    0.001040664
     20        1           0.006813268   -0.002837351    0.003462472
     21        1          -0.001671159   -0.001467256    0.001073036
     22        1           0.001675549    0.021454321   -0.013944180
     23        1           0.041204183    0.005829576   -0.003501714
     24        1          -0.009654995    0.032904285   -0.020759216
     25        1          -0.028412724    0.005907107   -0.003694147
     26        1          -0.014145174   -0.025798676    0.021563455
     27        1          -0.007196257   -0.056846419    0.042325733
     28        1          -0.077567277   -0.003634483   -0.010853906
     29        1           0.026970865   -0.043029205    0.030469438
 -------------------------------------------------------------------
 Cartesian Forces:  Max     1.932749591 RMS     0.300536766

 GradGradGradGradGradGradGradGradGradGradGradGradGradGradGradGradGradGrad
 Berny optimization.
 FormGI is forming the generalized inverse of G from B-inverse, IUseBI=4.
 Internal  Forces:  Max     2.001335477 RMS     0.200831621
 Search for a local minimum.
 Step number   1 out of a maximum of  130
 All quantities printed in internal units (Hartrees-Bohrs-Radians)
 Mixed Optimization -- RFO/linear search
 Second derivative matrix not updated -- first step.
 ITU=  0
     Eigenvalues ---    0.00230   0.00230   0.00230   0.00230   0.00230
     Eigenvalues ---    0.00230   0.00230   0.00274   0.00286   0.00330
     Eigenvalues ---    0.00586   0.00862   0.00965   0.01463   0.01563
     Eigenvalues ---    0.01864   0.02056   0.02611   0.03180   0.03298
     Eigenvalues ---    0.03298   0.03474   0.03483   0.06414   0.06504
     Eigenvalues ---    0.09090   0.09407   0.09729   0.09893   0.10047
     Eigenvalues ---    0.10975   0.12915   0.12959   0.16000   0.16000
     Eigenvalues ---    0.16000   0.16000   0.16000   0.16000   0.16000
     Eigenvalues ---    0.16000   0.16000   0.16000   0.16000   0.16668
     Eigenvalues ---    0.17873   0.20982   0.22000   0.22000   0.22176
     Eigenvalues ---    0.23139   0.23914   0.24523   0.24781   0.25000
     Eigenvalues ---    0.25000   0.25000   0.25000   0.25000   0.27561
     Eigenvalues ---    0.28117   0.30520   0.31163   0.31832   0.32170
     Eigenvalues ---    0.32741   0.33153   0.33390   0.33390   0.34211
     Eigenvalues ---    0.34212   0.37592   0.43572   0.44897   0.48514
     Eigenvalues ---    0.59382   0.68515   0.68721   0.73512   1.15879
     Eigenvalues ---   12.39833
 RFO step:  Lambda=-1.00188033D+00 EMin= 2.30000000D-03
 Linear search not attempted -- first point.
 Maximum step size (   0.300) exceeded in Quadratic search.
    -- Step size scaled by   0.382
 Iteration  1 RMS(Cart)=  0.12337628 RMS(Int)=  0.01883328
 Iteration  2 RMS(Cart)=  0.12627934 RMS(Int)=  0.01147154
 Iteration  3 RMS(Cart)=  0.13524979 RMS(Int)=  0.00536466
 Iteration  4 RMS(Cart)=  0.00828622 RMS(Int)=  0.00000844
 Iteration  5 RMS(Cart)=  0.00000287 RMS(Int)=  0.00000822
 Iteration  6 RMS(Cart)=  0.00000000 RMS(Int)=  0.00000822
 Variable       Old X    -DE/DX   Delta X   Delta X   Delta X     New X
                                 (Linear)    (Quad)   (Total)
    R1        3.65479  -0.03848   0.00000  -0.01244  -0.01244   3.64236
    R2        2.12403  -0.01711   0.00000  -0.00497  -0.00497   2.11906
    R3        2.06974  -0.00212   0.00000  -0.00060  -0.00060   2.06914
    R4        2.06975  -0.00213   0.00000  -0.00060  -0.00060   2.06914
    R5        4.10629  -0.05126   0.00000  -0.01774  -0.01774   4.08855
    R6        2.44777   0.05249   0.00000   0.01187   0.01187   2.45964
    R7        2.04107   2.00134   0.00000   0.05698   0.05698   2.09806
    R8        2.72609  -0.00215   0.00000  -0.00073  -0.00073   2.72537
    R9        2.82007  -0.08203   0.00000  -0.02340  -0.02341   2.79666
   R10        3.92930   0.08251   0.00000   0.02754   0.02753   3.95683
   R11        2.10534  -0.01478   0.00000  -0.00426  -0.00426   2.10108
   R12        3.28379  -0.08552   0.00000  -0.02793  -0.02794   3.25585
   R13        1.93671   0.03142   0.00000   0.00834   0.00834   1.94504
   R14        2.86547  -0.05179   0.00000  -0.01472  -0.01471   2.85076
   R15        3.04190  -0.02281   0.00000  -0.00706  -0.00706   3.03484
   R16        2.74219   0.00013   0.00000   0.00028   0.00029   2.74249
   R17        2.44641   0.00587   0.00000   0.00132   0.00132   2.44773
   R18        2.60412  -0.00544   0.00000  -0.00138  -0.00137   2.60276
   R19        2.08372  -0.00747   0.00000  -0.00213  -0.00213   2.08158
   R20        3.43679  -0.00096   0.00000  -0.00055  -0.00055   3.43625
   R21        2.08373  -0.01035   0.00000  -0.00296  -0.00296   2.08077
   R22        2.51432   0.00902   0.00000   0.00216   0.00216   2.51648
   R23        1.92096   0.03617   0.00000   0.00951   0.00951   1.93047
   R24        2.22880   0.10272   0.00000   0.01814   0.01814   2.24694
   R25        2.41616   0.05124   0.00000   0.01125   0.01125   2.42742
   R26        2.82084   0.09215   0.00000   0.02637   0.02637   2.84721
   R27        2.18584  -0.02122   0.00000  -0.00631  -0.00631   2.17953
   R28        2.19808  -0.03054   0.00000  -0.00912  -0.00912   2.18896
   R29        2.11152  -0.01453   0.00000  -0.00420  -0.00420   2.10732
    A1        1.97252  -0.02303   0.00000  -0.00756  -0.00757   1.96495
    A2        1.96769  -0.00339   0.00000  -0.00111  -0.00112   1.96658
    A3        1.96769  -0.00355   0.00000  -0.00116  -0.00117   1.96652
    A4        1.81673   0.01426   0.00000   0.00468   0.00468   1.82141
    A5        1.81672   0.01433   0.00000   0.00471   0.00470   1.82142
    A6        1.91083   0.00414   0.00000   0.00136   0.00136   1.91219
    A7        2.00779  -0.04730   0.00000  -0.01441  -0.01441   1.99338
    A8        1.80044   0.01331   0.00000   0.00406   0.00406   1.80450
    A9        2.75822   0.03200   0.00000   0.00999   0.00999   2.76821
   A10        1.97576  -0.01765   0.00000  -0.00554  -0.00554   1.97022
   A11        1.54921  -0.01436   0.00000  -0.00446  -0.00446   1.54475
   A12        1.72686   0.00395   0.00000   0.00010   0.00006   1.72692
   A13        1.90068   0.02008   0.00000   0.00719   0.00721   1.90790
   A14        2.65564  -0.02403   0.00000  -0.00729  -0.00727   2.64836
   A15        1.56685   0.03079   0.00000   0.01002   0.01001   1.57686
   A16        1.56653  -0.02249   0.00000  -0.00747  -0.00748   1.55904
   A17        1.73400   0.00032   0.00000   0.00057   0.00057   1.73457
   A18        2.53796   0.06246   0.00000   0.01880   0.01880   2.55676
   A19        2.01122  -0.06278   0.00000  -0.01937  -0.01937   1.99185
   A20        2.34627   0.05123   0.00000   0.01606   0.01608   2.36235
   A21        1.88657  -0.27904   0.00000  -0.08527  -0.08528   1.80129
   A22        2.05034   0.22782   0.00000   0.06921   0.06920   2.11954
   A23        2.42351  -0.04873   0.00000  -0.01530  -0.01527   2.40824
   A24        1.67826   0.06540   0.00000   0.02112   0.02111   1.69937
   A25        2.18142  -0.01667   0.00000  -0.00582  -0.00584   2.17558
   A26        2.40359   0.00107   0.00000  -0.00045  -0.00044   2.40315
   A27        1.87307   0.02798   0.00000   0.00959   0.00958   1.88265
   A28        2.00652  -0.02904   0.00000  -0.00913  -0.00914   1.99738
   A29        1.24602   0.14180   0.00000   0.04680   0.04681   1.29283
   A30        1.94035  -0.01614   0.00000  -0.00352  -0.00353   1.93682
   A31        2.67061   0.29851   0.00000   0.09321   0.09321   2.76382
   A32        1.74187  -0.15069   0.00000  -0.04708  -0.04708   1.69479
   A33        1.87071  -0.14782   0.00000  -0.04614  -0.04614   1.82457
   A34        1.63068  -0.46198   0.00000  -0.14080  -0.14080   1.48988
   A35        1.74227  -0.03896   0.00000  -0.01131  -0.01131   1.73097
   A36        1.39792   0.09357   0.00000   0.03134   0.03134   1.42926
   A37        1.40196   0.15684   0.00000   0.05151   0.05151   1.45347
   A38        1.51262   0.12108   0.00000   0.03976   0.03976   1.55238
   A39        3.13337   0.00831   0.00000   0.00255   0.00253   3.13590
   A40        3.18637   0.12567   0.00000   0.04328   0.04328   3.22965
   A41        3.17094  -0.42786   0.00000  -0.15775  -0.15775   3.01319
   A42        3.14020   0.05460   0.00000   0.02004   0.02004   3.16023
   A43        3.14320   0.00045   0.00000   0.00017   0.00017   3.14337
   A44        3.14157   0.00247   0.00000   0.00094   0.00094   3.14251
   A45        3.14158   0.00689   0.00000   0.00254   0.00254   3.14412
   A46        3.14160   0.00891   0.00000   0.00339   0.00341   3.14501
    D1       -3.14159   0.00001   0.00000   0.00000   0.00000  -3.14158
    D2        1.08730   0.00002   0.00000   0.00001   0.00001   1.08730
    D3       -1.08731  -0.00001   0.00000  -0.00000  -0.00000  -1.08731
    D4       -3.14159   0.00047   0.00000   0.00018   0.00018  -3.14141
    D5        3.14158  -0.00075   0.00000  -0.00028  -0.00028   3.14130
    D6        0.00000  -0.00066   0.00000  -0.00024  -0.00024  -0.00024
    D7        0.00026  -0.00096   0.00000  -0.00033  -0.00033  -0.00008
    D8       -3.14135  -0.00105   0.00000  -0.00037  -0.00037   3.14147
    D9       -0.00121  -0.00004   0.00000  -0.00001  -0.00002  -0.00122
   D10        3.14153   0.00033   0.00000   0.00013   0.00013  -3.14153
   D11        0.00002   0.00070   0.00000   0.00027   0.00027   0.00028
   D12        3.14096  -0.00025   0.00000  -0.00009  -0.00010   3.14086
   D13       -3.14086   0.00094   0.00000   0.00035   0.00035  -3.14051
   D14        0.00008  -0.00001   0.00000  -0.00001  -0.00001   0.00007
   D15       -3.14058   0.00235   0.00000   0.00089   0.00089  -3.13968
   D16        0.00103  -0.00012   0.00000  -0.00004  -0.00005   0.00099
   D17       -0.00130   0.00171   0.00000   0.00065   0.00065  -0.00065
   D18        3.14031  -0.00076   0.00000  -0.00029  -0.00029   3.14002
   D19        0.00121   0.00070   0.00000   0.00026   0.00026   0.00148
   D20        3.14095  -0.00073   0.00000  -0.00027  -0.00027   3.14068
   D21       -0.00103  -0.00094   0.00000  -0.00036  -0.00036  -0.00138
   D22        3.14091  -0.00093   0.00000  -0.00035  -0.00035   3.14056
   D23       -3.14145  -0.00018   0.00000  -0.00006  -0.00007  -3.14153
   D24        0.00048  -0.00017   0.00000  -0.00006  -0.00007   0.00041
   D25        0.00161  -0.00218   0.00000  -0.00083  -0.00083   0.00078
   D26        3.14118  -0.00367   0.00000  -0.00139  -0.00139   3.13979
   D27        0.00036   0.00028   0.00000   0.00011   0.00010   0.00047
   D28       -3.14123   0.00032   0.00000   0.00012   0.00012  -3.14111
   D29       -3.14159   0.00019   0.00000   0.00008   0.00007  -3.14152
   D30       -0.00000   0.00023   0.00000   0.00009   0.00009   0.00009
   D31        3.14131  -0.00015   0.00000  -0.00006  -0.00006   3.14125
   D32       -0.00027   0.00101   0.00000   0.00037   0.00037   0.00010
   D33       -0.00001  -0.00013   0.00000  -0.00005  -0.00005  -0.00006
   D34       -3.14159   0.00103   0.00000   0.00038   0.00038  -3.14121
   D35        0.00000   0.00045   0.00000   0.00017   0.00017   0.00017
   D36        3.14158   0.00014   0.00000   0.00005   0.00005  -3.14155
   D37       -3.14159   0.00040   0.00000   0.00015   0.00015  -3.14144
   D38       -0.00000   0.00009   0.00000   0.00003   0.00003   0.00003
   D39       -0.00025  -0.00006   0.00000  -0.00002  -0.00002  -0.00027
   D40        3.14135   0.00027   0.00000   0.00010   0.00010   3.14145
   D41       -3.14159   0.01135   0.00000   0.00421   0.00421  -3.13738
   D42       -0.00001   0.01016   0.00000   0.00377   0.00377   0.00377
   D43        0.00001   0.02950   0.00000   0.01121   0.01118   0.01119
   D44       -3.14159   0.02056   0.00000   0.00781   0.00784  -3.13375
   D45       -3.14159  -0.02409   0.00000  -0.00910  -0.00910   3.13250
         Item               Value     Threshold  Converged?
 Maximum Force            2.001335     0.000450     NO 
 RMS     Force            0.200832     0.000300     NO 
 Maximum Displacement     2.213556     0.001800     NO 
 RMS     Displacement     0.379723     0.001200     NO 
 Predicted change in Energy=-3.545751D-01
 GradGradGradGradGradGradGradGradGradGradGradGradGradGradGradGradGradGrad

                          Input orientation:                          
 ---------------------------------------------------------------------
 Center     Atomic      Atomic             Coordinates (Angstroms)
 Number     Number       Type             X           Y           Z
 ---------------------------------------------------------------------
      1          6           0        1.058759   -0.200897    0.076728
      2         16           0        2.986197   -0.208014    0.078791
      3          6           0        3.866220   -1.878577    1.135108
      4          6           0        5.145549   -1.676682    1.005963
      5          6           0        5.295081   -3.432380    2.117837
      6          6           0        6.497594   -4.160204    2.580900
      7          6           0        7.903237   -5.002442    3.113123
      8          6           0        8.964580   -4.096803    2.539438
      9          6           0        8.966231   -2.871222    1.762194
     10          6           0        8.045465   -2.006231    1.213571
     11         16           0        6.236190   -1.852659    1.116305
     12          6           0       10.068920   -4.668362    2.902083
     13          7           0       11.380909   -4.860887    3.024350
     14          7           0       11.083250   -5.835694    3.636670
     15          6           0       10.605082   -6.843537    4.273563
     16          6           0        9.135226   -6.573273    4.082347
     17          6           0        8.483030   -6.266992    3.915555
     18          1           0        0.631950    0.675523   -0.477501
     19          1           0        0.635856   -0.117767    1.083274
     20          1           0        0.633998   -1.074606   -0.428359
     21          1           0        5.452163   -0.486207    0.251838
     22          1           0        4.384660   -3.970942    2.460292
     23          1           0        7.102613   -3.457541    2.134112
     24          1           0       10.058826   -2.752975    1.687263
     25          1           0        8.598987   -1.202403    0.703780
     26          1           0        9.646883   -5.454238    3.399948
     27          1           0       11.725377   -7.070190    4.427862
     28          1           0        9.015157   -7.550813    4.692071
     29          1           0        7.435861   -6.589985    4.122086
 ---------------------------------------------------------------------
                    Distance matrix (angstroms):
                    1          2          3          4          5
     1  C    0.000000
     2  S    1.927453   0.000000
     3  C    3.437531   2.163568   0.000000
     4  C    4.443340   2.771179   1.301584   0.000000
     5  C    5.705701   4.459281   2.328454   2.083530   0.000000
     6  C    7.178295   5.848954   3.770977   3.236717   1.479931
     7  C    8.895022   7.508062   5.474357   4.806834   3.202838
     8  C    9.151231   7.544436   5.734626   4.774257   3.752922
     9  C    8.514667   6.759240   5.233421   4.073871   3.730781
    10  C    7.305183   5.487941   4.181930   2.925956   3.227415
    11  S    5.533067   3.787314   2.370186   1.110244   2.093865
    12  C   10.446237   8.833495   7.026990   6.065064   4.993219
    13  N   11.702596  10.039757   8.302647   7.286478   6.316621
    14  N   12.038045  10.482916   8.602447   7.711958   6.448695
    15  C   12.364076  10.939547   8.939407   8.196348   6.669278
    16  C   11.039994   9.713678   7.647798   7.025544   5.335844
    17  C   10.327337   9.035880   6.950108   6.377731   4.629237
    18  H    1.121360   2.575379   4.425431   5.301519   6.734644
    19  H    1.094939   2.557583   3.679455   4.772161   5.810796
    20  H    1.094943   2.557543   3.679410   4.772197   5.811015
    21  H    4.406140   2.487634   2.287810   1.442203   3.490926
    22  H    5.563833   4.667641   2.530392   2.820932   1.111842
    23  H    7.167059   5.632819   3.737028   2.876505   1.807781
    24  H    9.492531   7.686748   6.278361   5.075714   4.831175
    25  H    7.632250   5.734355   4.800243   3.498927   4.229438
    26  H   10.601757   9.105914   7.164559   6.345321   4.966880
    27  H   13.412542  11.932189   9.978046   9.170249   7.740710
    28  H   11.773993  10.561600   8.446170   7.941453   6.117772
    29  H    9.892057   8.767970   6.622820   6.252704   4.309342
                    6          7          8          9         10
     6  C    0.000000
     7  C    1.722922   0.000000
     8  C    2.468148   1.508557   0.000000
     9  C    2.902744   2.738077   1.451261   0.000000
    10  C    2.984140   3.550466   2.640679   1.377319   0.000000
    11  S    2.745566   4.085029   3.808621   2.984588   1.818384
    12  C    3.621567   2.201438   1.295283   2.396869   3.745983
    13  N    4.953218   3.481683   2.580235   3.373792   4.749018
    14  N    4.995013   3.328797   2.952359   4.096769   5.455670
    15  C    5.190072   3.469325   3.639092   4.977157   6.270146
    16  C    3.877415   2.219167   2.922772   4.372282   5.502302
    17  C    3.187760   1.605971   2.614442   4.049901   5.064214
    18  H    8.194135   9.899671  10.065273   9.330374   8.062985
    19  H    7.276273   8.988613   9.344558   8.799863   7.647586
    20  H    7.277246   8.989540   9.345591   8.800708   7.648117
    21  H    4.473892   5.881420   5.532322   4.507566   3.156044
    22  H    2.124820   3.724321   4.582333   4.763143   4.337730
    23  H    1.029273   1.996542   2.009941   1.988760   1.960272
    24  H    3.932080   3.426330   1.931178   1.101527   2.199008
    25  H    4.085097   4.552944   3.446861   2.009991   1.101096
    26  H    3.501911   1.823921   1.746037   3.133288   4.385605
    27  H    6.261709   4.540140   4.475397   5.687706   7.036839
    28  H    4.721376   3.197442   4.070206   5.521335   6.616846
    29  H    3.026456   1.938232   3.325315   4.662652   5.462772
                   11         12         13         14         15
    11  S    0.000000
    12  C    5.080059   0.000000
    13  N    6.257651   1.331664   0.000000
    14  N    6.760975   1.712059   1.189027   0.000000
    15  C    7.346044   2.626750   2.468469   1.284533   0.000000
    16  C    6.283789   2.427652   3.015745   2.130129   1.506680
    17  C    5.689501   2.469370   3.342017   2.650459   2.227932
    18  H    6.351333  11.359361  12.587887  12.982758  13.363093
    19  H    5.862992  10.630083  11.904668  12.180416  12.441841
    20  H    5.863097  10.631306  11.906015  12.181103  12.442313
    21  H    1.796996   6.769687   7.872399   8.472499   9.118251
    22  H    3.117947   5.743900   7.075144   7.052111   7.087553
    23  H    2.088604   3.294668   4.589740   4.874295   5.320668
    24  H    3.968515   2.268170   2.824711   3.788507   4.870322
    25  H    2.485119   4.359600   5.148654   6.020032   6.970665
    26  H    5.460697   1.021560   1.870825   1.504891   1.900395
    27  H    8.265604   3.292511   2.639985   1.600716   1.153360
    28  H    7.278579   3.552886   3.951427   2.886609   1.789763
    29  H    5.737263   3.480524   4.445021   3.756066   3.182955
                   16         17         18         19         20
    16  C    0.000000
    17  C    0.739586   0.000000
    18  H   12.068262  11.363842   0.000000
    19  H   11.086355  10.364020   1.750812   0.000000
    20  H   11.083892  10.365218   1.750820   1.789015   0.000000
    21  H    8.080231   7.485082   5.011587   4.901413   4.901387
    22  H    5.654296   4.917954   6.656057   5.549474   5.549822
    23  H    4.199395   3.601680   8.110008   7.353727   7.354428
    24  H    4.602623   4.449351  10.261910   9.803137   9.804089
    25  H    6.367771   5.998250   8.270169   8.045613   8.046062
    26  H    1.407019   1.510289  11.570548  10.725833  10.727031
    27  H    2.659923   3.379408  14.391760  13.509253  13.511054
    28  H    1.158345   1.591959  12.832585  11.768019  11.764517
    29  H    1.699912   1.115143  10.965264   9.867322   9.868702
                   21         22         23         24         25
    21  H    0.000000
    22  H    4.261481   0.000000
    23  H    3.885328   2.785184   0.000000
    24  H    5.331044   5.854672   3.071690   0.000000
    25  H    3.258786   5.339541   3.061148   2.345772   0.000000
    26  H    7.224099   5.547442   3.473103   3.224873   5.142519
    27  H   10.007058   8.207484   6.299401   5.378347   7.620631
    28  H    9.072996   6.264009   5.191902   5.756506   7.508793
    29  H    7.494664   4.350951   3.724957   5.246995   6.485655
                   26         27         28         29
    26  H    0.000000
    27  H    2.826313   0.000000
    28  H    2.542496   2.765158   0.000000
    29  H    2.588441   4.327129   1.934489   0.000000
 Stoichiometry    C13H12N2S2
 Framework group  C1[X(C13H12N2S2)]
 Deg. of freedom    81
 Full point group                 C1      NOp   1
 Largest Abelian subgroup         C1      NOp   1
 Largest concise Abelian subgroup C1      NOp   1
                         Standard orientation:                         
 ---------------------------------------------------------------------
 Center     Atomic      Atomic             Coordinates (Angstroms)
[...]
    A8        2.07568   0.00200   0.01651   0.00684   0.02335   2.09903
    A9        2.09385  -0.00775  -0.03725   0.00668  -0.03056   2.06329
   A10        2.35613   0.00430   0.03138  -0.00594   0.02544   2.38158
   A11        1.83242   0.00349   0.00576  -0.00058   0.00518   1.83760
   A12        2.00385   0.00826   0.01045  -0.00196   0.00855   2.01240
   A13        2.21306   0.00676  -0.01848  -0.00915  -0.02897   2.18409
   A14        1.92020  -0.01574  -0.00161  -0.01145  -0.01308   1.90712
   A15        2.04725  -0.00413  -0.01256   0.01418   0.00224   2.04950
   A16        1.97924   0.00307  -0.01173   0.02697   0.01556   1.99479
   A17        1.86549   0.00464  -0.00479   0.00346  -0.00238   1.86311
   A18        2.22603   0.07175   0.01087  -0.01477  -0.00347   2.22255
   A19        2.19077  -0.07730  -0.00670   0.01456   0.00650   2.19727
   A20        2.25637   0.07385   0.00456  -0.00939  -0.00597   2.25040
   A21        1.79878  -0.27481  -0.04412  -0.00939  -0.05407   1.74471
   A22        2.21528   0.20255   0.03423   0.01062   0.04392   2.25920
   A23        2.37087  -0.04815  -0.01284  -0.01850  -0.03244   2.33843
   A24        1.94937   0.02273  -0.00188   0.01054   0.00920   1.95857
   A25        1.96205   0.02490   0.01466   0.00820   0.02341   1.98547
   A26        2.31350  -0.00990   0.01093  -0.00924   0.00076   2.31426
   A27        2.05207   0.00797   0.00089   0.00315   0.00447   2.05655
   A28        1.91360   0.00252  -0.01172   0.00431  -0.00704   1.90655
   A29        1.86426  -0.00879  -0.03895  -0.03788  -0.07663   1.78763
   A30        1.67133   0.00553  -0.03220  -0.01215  -0.04474   1.62659
   A31        2.66221   0.17152  -0.10434   0.00893  -0.09768   2.56453
   A32        1.70190  -0.08805   0.05991  -0.02036   0.03747   1.73937
   A33        1.91878  -0.08234   0.04412   0.00912   0.05108   1.96986
   A34        1.85193  -0.52370  -0.03433   0.00293  -0.03151   1.82042
   A35        2.43834  -0.13762  -0.01963  -0.01261  -0.03215   2.40619
   A36        1.95444   0.06718   0.01801  -0.01734   0.00068   1.95512
   A37        1.83265   0.02805   0.06213   0.00423   0.06635   1.89900
   A38        1.98858   0.00382  -0.05263  -0.04453  -0.09716   1.89142
   A39        4.02649  -0.00105  -0.02429   0.04115   0.01780   4.04429
   A40        3.53559  -0.00326  -0.07115  -0.05003  -0.12137   3.41422
   A41        2.02119  -0.43828  -0.00886   0.01759   0.00890   2.03009
   A42        4.39278  -0.07044  -0.00161  -0.02995  -0.03147   4.36131
   A43        2.49386  -0.02444   0.01325  -0.00490   0.00722   2.50108
   A44        4.38072   0.01142   0.00699  -0.03550  -0.02919   4.35154
   A45        2.54516   0.01465   0.11398   0.08641   0.19962   2.74478
   A46        3.07023  -0.01415  -0.01731  -0.03664  -0.05299   3.01724
    D1        3.14103  -0.00002  -0.00046  -0.00028  -0.00073   3.14029
    D2        1.05600   0.00043   0.00192   0.00182   0.00374   1.05974
    D3       -1.06020  -0.00039  -0.00095  -0.00190  -0.00286  -1.06306
    D4        3.13542   0.00058  -0.01274   0.00682  -0.00592   3.12950
    D5       -3.10507   0.00095   0.00528   0.00950   0.01481  -3.09026
    D6        0.08598  -0.00024   0.00878   0.00430   0.01305   0.09903
    D7        0.56020  -0.00148   0.01415   0.00309   0.01728   0.57748
    D8       -2.61759  -0.00049   0.01279   0.00668   0.01942  -2.59817
    D9       -0.48975  -0.00571   0.02361   0.02588   0.04976  -0.43999
   D10       -3.01649   0.00087   0.04082   0.07241   0.11244  -2.90405
   D11        0.59835  -0.00933  -0.00371   0.03065   0.02641   0.62475
   D12       -3.02644  -0.05896   0.01065  -0.04790  -0.03674  -3.06317
   D13       -1.49344   0.00979  -0.00181   0.07060   0.06933  -1.42411
   D14        1.16497  -0.03983   0.01255  -0.00795   0.00618   1.17115
   D15       -2.85922  -0.00844   0.04897  -0.03575   0.01358  -2.84564
   D16       -0.95676  -0.01986   0.04198  -0.00025   0.04276  -0.91400
   D17       -0.23156  -0.00761   0.02757  -0.07445  -0.04656  -0.27813
   D18        1.67090  -0.01903   0.02058  -0.03895  -0.01738   1.65352
   D19        1.35110   0.00151  -0.03034   0.01375  -0.01655   1.33455
   D20       -1.74659   0.02610  -0.01719  -0.06604  -0.08364  -1.83024
   D21       -0.07161  -0.00057  -0.01363  -0.05513  -0.06814  -0.13975
   D22       -3.04894  -0.02378   0.01352  -0.00419   0.00799  -3.04094
   D23        3.02722  -0.01981  -0.02566   0.02167  -0.00261   3.02461
   D24        0.04989  -0.04301   0.00149   0.07261   0.07352   0.12341
   D25       -0.01344  -0.01131  -0.03536  -0.14220  -0.17711  -0.19055
   D26       -3.10342   0.01469  -0.02013  -0.23556  -0.25614   2.92362
   D27        0.29571  -0.01266   0.02623   0.07043   0.09684   0.39255
   D28       -2.79545   0.00079   0.02744   0.06310   0.09094  -2.70451
   D29       -3.04649  -0.02811  -0.01629   0.00587  -0.01107  -3.05757
   D30        0.14553  -0.01466  -0.01507  -0.00146  -0.01697   0.12856
   D31        2.07497   0.00087   0.00180   0.01828   0.01925   2.09422
   D32       -1.10152   0.06142  -0.00774  -0.11811  -0.12567  -1.22719
   D33       -0.90761  -0.00685   0.03267   0.07008   0.10240  -0.80521
   D34        2.19909   0.05370   0.02312  -0.06631  -0.04251   2.15657
   D35        0.19348   0.00239  -0.00243   0.01547   0.01296   0.20643
   D36       -3.05566   0.01057  -0.00183  -0.00804  -0.00950  -3.06516
   D37       -2.99881  -0.01120  -0.00402   0.02288   0.01860  -2.98020
   D38        0.03524  -0.00301  -0.00342  -0.00063  -0.00386   0.03139
   D39       -0.04897   0.01664  -0.01453  -0.05342  -0.06678  -0.11575
   D40       -3.08937   0.00861  -0.01555  -0.03133  -0.04625  -3.13562
   D41       -3.05219   0.17419   0.08737  -0.02775   0.05899  -2.99320
   D42        0.12620   0.10965   0.09780   0.11632   0.21472   0.34092
   D43        0.76301  -0.07302  -0.06695  -0.06814  -0.13650   0.62652
   D44       -2.51261  -0.00621  -0.01628   0.01778   0.00204  -2.51057
   D45        2.80384   0.01100   0.13706   0.16040   0.29746   3.10130
         Item               Value     Threshold  Converged?
 Maximum Force            0.523704     0.000450     NO 
 RMS     Force            0.081237     0.000300     NO 
 Maximum Displacement     1.392839     0.001800     NO 
 RMS     Displacement     0.290857     0.001200     NO 
 Predicted change in Energy=-2.345150D-03
 GradGradGradGradGradGradGradGradGradGradGradGradGradGradGradGradGradGrad

                          Input orientation:                          
 ---------------------------------------------------------------------
 Center     Atomic      Atomic             Coordinates (Angstroms)
 Number     Number       Type             X           Y           Z
 ---------------------------------------------------------------------
      1          6           0        3.151150   -1.011137    2.927867
      2         16           0        3.345809   -0.702828    1.140010
      3          6           0        4.717726   -1.654785    0.770772
      4          6           0        5.183504   -1.708182   -0.480755
      5          6           0        6.319341   -4.134348    0.303726
      6          6           0        7.366311   -4.906499    0.521853
      7          6           0        7.897591   -4.949392    1.885719
      8          6           0        8.418518   -3.688453    2.152559
      9          6           0        8.603124   -2.563744    1.245912
     10          6           0        8.037998   -2.201414    0.066627
     11         16           0        6.587998   -2.795313   -0.825128
     12          6           0        9.021656   -3.935497    3.457392
     13          7           0       10.080767   -3.942399    4.154206
     14          7           0        9.664473   -4.592028    5.463647
     15          6           0        8.950822   -5.631607    5.294044
     16          6           0        8.210655   -6.324723    4.149213
     17          6           0        7.867472   -6.081552    2.816622
     18          1           0        2.284367   -0.432474    3.257164
     19          1           0        4.039868   -0.681854    3.468372
     20          1           0        2.975918   -2.072359    3.112371
     21          1           0        4.961321   -1.218524   -1.426188
     22          1           0        5.598288   -3.827695    1.059957
     23          1           0        8.128470   -4.952943   -0.258863
     24          1           0        9.393042   -1.891798    1.578751
     25          1           0        8.432249   -1.321836   -0.436064
     26          1           0        8.110136   -4.048892    4.063669
     27          1           0        8.720357   -6.127202    6.236721
     28          1           0        7.765805   -7.242081    4.524412
     29          1           0        7.209115   -6.845442    2.406600
 ---------------------------------------------------------------------
                    Distance matrix (angstroms):
                    1          2          3          4          5
     1  C    0.000000
     2  S    1.824659   0.000000
     3  C    2.742536   1.710180   0.000000
     4  C    4.029273   2.648536   1.336458   0.000000
     5  C    5.165075   4.616990   2.988567   2.791382   0.000000
     6  C    6.223371   5.849565   4.201263   3.999888   1.319070
     7  C    6.254968   6.269618   4.712651   4.844781   2.378628
     8  C    5.959386   5.972569   4.443084   4.617480   2.832587
     9  C    5.913001   5.577956   4.018493   3.925196   2.927486
    10  C    5.786600   5.041284   3.437852   2.948056   2.597351
    11  S    5.392604   4.330364   2.710280   1.809157   1.771864
    12  C    6.579903   6.930776   5.562678   5.933072   4.157843
    13  N    7.623372   8.058528   6.741144   7.103364   5.386220
    14  N    7.853429   8.587505   7.424337   7.983205   6.166374
    15  C    7.783555   8.541957   7.361672   7.933111   5.836930
    16  C    7.438043   8.020457   6.739639   7.205047   4.812752
    17  C    6.925689   7.224066   5.805400   6.099405   3.535952
    18  H    1.092977   2.383713   3.687468   4.899435   6.221549
    19  H    1.091051   2.429697   2.946715   4.237554   5.208713
    20  H    1.091302   2.429535   2.948110   4.232803   4.828951
    21  H    4.719907   3.075905   2.253063   1.087646   3.652239
    22  H    4.172598   3.852903   2.362320   2.652955   1.088962
    23  H    7.103999   6.549365   4.855015   4.387543   2.063868
    24  H    6.446463   6.178606   4.750535   4.689934   4.012774
    25  H    6.269177   5.360882   3.919820   3.271942   3.594703
    26  H    5.925330   6.514809   5.299374   5.890321   4.165504
    27  H    8.254617   9.180744   8.117892   8.784165   6.703490
    28  H    7.916354   8.587920   7.389078   7.895822   5.437320
    29  H    7.125863   7.366213   5.985472   6.231481   3.544546
                    6          7          8          9         10
     6  C    0.000000
     7  C    1.464319   0.000000
     8  C    2.291283   1.390157   0.000000
     9  C    2.746356   2.568744   1.456385   0.000000
    10  C    2.824160   3.298514   2.589825   1.356969   0.000000
    11  S    2.622448   3.701862   3.607647   2.898890   1.802898
    12  C    3.507193   2.182123   1.458560   2.635815   3.933436
    13  N    4.635919   3.305500   2.614222   3.541510   4.890014
    14  N    5.459100   4.006389   3.651323   4.798926   6.122768
    15  C    5.080381   3.631996   3.732041   5.091174   6.318652
    16  C    3.985225   2.667011   3.313572   4.767405   5.805084
    17  C    2.626381   1.466040   2.543925   3.922153   4.758889
    18  H    7.302396   7.334281   7.032023   6.965209   6.812704
    19  H    6.131462   5.966464   5.472072   5.413330   5.464977
    20  H    5.832555   5.831368   5.758029   5.948998   5.909134
    21  H    4.814561   5.788763   5.555194   4.713010   3.558161
    22  H    2.139926   2.688286   3.027683   3.265148   3.095751
    23  H    1.092044   2.156977   2.738251   2.863201   2.772191
    24  H    3.783264   3.417526   2.122950   1.089157   2.053905
    25  H    3.860523   4.340011   3.507425   2.097755   1.087101
    26  H    3.719305   2.366335   1.969101   3.223112   4.403944
    27  H    5.998606   4.582074   4.766444   6.133527   7.344896
    28  H    4.651346   3.498069   4.322036   5.773777   6.734557
    29  H    2.708594   2.083344   3.390247   4.650096   5.265882
                   11         12         13         14         15
    11  S    0.000000
    12  C    5.055956   0.000000
    13  N    6.189427   1.267799   0.000000
    14  N    7.227833   2.206650   1.519854   0.000000
    15  C    7.146451   2.501019   2.330114   1.272316   0.000000
    16  C    6.311404   2.616245   3.028665   2.616019   1.529345
    17  C    5.069395   2.519579   3.356156   3.529113   2.741116
    18  H    6.385088   7.596205   8.596983   8.754223   8.696062
    19  H    5.421606   5.950170   6.898840   7.134898   7.207677
    20  H    5.392001   6.335715   7.420334   7.524228   7.288856
    21  H    2.343846   6.907794   8.047920   8.998333   8.975129
    22  H    2.366195   4.180762   5.447950   6.042397   5.693951
    23  H    2.710918   3.955191   4.930298   5.936050   5.654346
    24  H    3.803057   2.800701   3.363168   4.738917   5.290098
    25  H    2.392440   4.726270   5.536745   6.857049   7.188685
    26  H    5.271498   1.100590   1.975582   2.161227   2.173837
    27  H    8.094328   3.552326   3.310732   1.961060   1.089664
    28  H    7.055391   3.694481   4.047716   3.392622   2.142481
    29  H    5.218562   3.585701   4.441640   4.522410   3.583890
                   16         17         18         19         20
    16  C    0.000000
    17  C    1.397392   0.000000
    18  H    8.404477   7.954698   0.000000
    19  H    7.049892   6.650719   1.785660   0.000000
    20  H    6.823498   6.331540   1.785617   1.786681   0.000000
    21  H    8.229005   7.077866   5.451398   5.009372   5.026865
    22  H    4.754273   3.648964   5.228510   4.257399   3.764364
    23  H    4.617322   3.286409   8.182336   6.989360   6.797925
    24  H    5.258910   4.627496   7.448486   5.804404   6.600308
    25  H    6.789900   5.792567   7.226849   5.911617   6.551811
    26  H    2.279656   2.397023   6.904238   5.315863   5.583175
    27  H    2.157893   3.525135   9.095584   7.695619   7.694277
    28  H    1.086376   2.067295   8.833053   7.618031   7.187691
    29  H    2.076278   1.088614   8.130361   7.011512   6.418754
                   21         22         23         24         25
    21  H    0.000000
    22  H    3.659838   0.000000
    23  H    5.033822   3.067131   0.000000
    24  H    5.396582   4.291503   3.787687   0.000000
    25  H    3.610867   4.068014   3.648098   2.303792   0.000000
    26  H    6.932859   3.921810   4.416099   3.531815   5.271450
    27  H    9.846098   6.467916   6.627354   6.331495   8.228038
    28  H    8.919529   5.325280   5.315204   6.320628   7.752404
    29  H    7.169731   3.676277   3.395800   5.476628   6.331431
                   26         27         28         29
    26  H    0.000000
    27  H    3.068208   0.000000
    28  H    3.244581   2.255245   0.000000
    29  H    3.373190   4.179659   2.225388   0.000000
 Stoichiometry    C13H12N2S2
 Framework group  C1[X(C13H12N2S2)]
 Deg. of freedom    81
 Full point group                 C1      NOp   1
 Largest Abelian subgroup         C1      NOp   1
 Largest concise Abelian subgroup C1      NOp   1
                         Standard orientation:                         
 ---------------------------------------------------------------------
 Center     Atomic      Atomic             Coordinates (Angstroms)
 Number     Number       Type             X           Y           Z
 ---------------------------------------------------------------------
      1          6           0       -3.234685    3.154582    0.056687
      2         16           0       -4.160028    1.585893   -0.054363
      3          6           0       -2.898549    0.433088    0.012160
      4          6           0       -3.177126   -0.873373   -0.028776
      5          6           0       -0.698673   -1.193436    1.214867
      6          6           0        0.537446   -1.653457    1.233178
      7          6           0        1.597781   -0.750052    0.781758
      8          6           0        1.395657   -0.542913   -0.577939
      9          6           0        0.457086   -1.203050   -1.474800
     10          6           0       -0.708290   -1.873703   -1.291800
     11         16           0       -1.807668   -2.045311    0.126777
     12          6           0        2.586351    0.237940   -0.894030
     13          7           0        3.651950    0.321723   -1.575786
     14          7           0        4.375588    1.525472   -0.995017
     15          6           0        4.375338    1.535129    0.277262
     16          6           0        3.683618    0.785775    1.416949
     17          6           0        2.656820   -0.145136    1.595261
     18          1           0       -3.971546    3.960982    0.019897
     19          1           0       -2.544970    3.248232   -0.783500
     20          1           0       -2.683408    3.203408    0.997245
     21          1           0       -4.063924   -1.486192   -0.173738
     22          1           0       -0.976700   -0.141528    1.259906
     23          1           0        0.689364   -2.698665    0.955653
     24          1           0        0.790211   -1.176915   -2.511432
     25          1           0       -1.170917   -2.333977   -2.161232
     26          1           0        2.333856    1.176737   -0.378078
     27          1           0        4.958257    2.363173    0.679650
     28          1           0        4.069252    1.154419    2.363311
     29          1           0        2.424251   -0.317713    2.644646
 ---------------------------------------------------------------------
 Rotational constants (GHZ):           0.6066899           0.2081167           0.1811749
 Standard basis: 6-31G(2df,p) (6D, 7F)
 There are   595 symmetry adapted cartesian basis functions of A   symmetry.
 There are   544 symmetry adapted basis functions of A   symmetry.
   544 basis functions,   880 primitive gaussians,   595 cartesian basis functions
    68 alpha electrons       68 beta electrons
       nuclear repulsion energy      1312.7148125926 Hartrees.
 NAtoms=   29 NActive=   29 NUniq=   29 SFac= 1.00D+00 NAtFMM=   60 NAOKFM=F Big=F
 Integral buffers will be    131072 words long.
 Raffenetti 2 integral format.
 Two-electron integral symmetry is turned on.
 One-electron integrals computed using PRISM.
 PrsmSu:  requested number of processors reduced to:  12 ShMem   1 Linda.
 NBasis=   544 RedAO= T EigKep=  2.26D-04  NBF=   544
 NBsUse=   544 1.00D-06 EigRej= -1.00D+00 NBFU=   544
 Lowest energy guess from the checkpoint file:  "CSc1cccc2cqccs1rdCNdNCdCCd2.chk"
 B after Tr=    -0.000000    0.000000    0.000000
         Rot=    0.999813    0.018991    0.002570    0.002571 Ang=   2.22 deg.
 B after Tr=    -0.000000    0.000000   -0.000000
         Rot=    0.998823    0.045230    0.005459    0.016667 Ang=   5.56 deg.
 Requested convergence on RMS density matrix=1.00D-08 within 128 cycles.
 Requested convergence on MAX density matrix=1.00D-06.
 Requested convergence on             energy=1.00D-06.
 No special actions if energy rises.
 Integral accuracy reduced to 1.0D-05 until final iterations.
 Initial convergence to 1.0D-05 achieved.  Increase integral accuracy.
 SCF Done:  E(RB3LYP) =  -1408.13141363     A.U. after   14 cycles
            NFock= 14  Conv=0.92D-08     -V/T= 2.0052
 PrsmSu:  requested number of processors reduced to:  13 ShMem   1 Linda.
 Calling FoFJK, ICntrl=      2127 FMM=F ISym2X=0 I1Cent= 0 IOpClX= 0 NMat=1 NMatS=1 NMatT=0.
slurmstepd: error: *** JOB 27447073 ON lewis4-r630-hpc4rc-node358 CANCELLED AT 2023-05-16T08:17:55 DUE TO TIME LIMIT ***
