### Starting Gaussian ###
 Entering Gaussian System, Link 0=g16
 Initial command:
 /cluster/software/gaussian/gaussian-16-A.03/avx2/g16/l1.exe "/local/scratch/yxie/Gau-22804.inp" -scrdir="/local/scratch/yxie/"
 Entering Link 1 = /cluster/software/gaussian/gaussian-16-A.03/avx2/g16/l1.exe PID=     22805.
  
 Copyright (c) 1988,1990,1992,1993,1995,1998,2003,2009,2016,
            Gaussian, Inc.  All Rights Reserved.
  
 This is part of the Gaussian(R) 16 program.  It is based on
 the Gaussian(R) 09 system (copyright 2009, Gaussian, Inc.),
 the Gaussian(R) 03 system (copyright 2003, Gaussian, Inc.),
 the Gaussian(R) 98 system (copyright 1998, Gaussian, Inc.),
 the Gaussian(R) 94 system (copyright 1995, Gaussian, Inc.),
 the Gaussian 92(TM) system (copyright 1992, Gaussian, Inc.),
 the Gaussian 90(TM) system (copyright 1990, Gaussian, Inc.),
 the Gaussian 88(TM) system (copyright 1988, Gaussian, Inc.),
 the Gaussian 86(TM) system (copyright 1986, Carnegie Mellon
 University), and the Gaussian 82(TM) system (copyright 1983,
 Carnegie Mellon University). Gaussian is a federally registered
 trademark of Gaussian, Inc.
  
 This software contains proprietary and confidential information,
 including trade secrets, belonging to Gaussian, Inc.
  
 This software is provided under written license and may be
 used, copied, transmitted, or stored only in accord with that
 written license.
  
 The following legend is applicable only to US Government
 contracts under FAR:
  
                    RESTRICTED RIGHTS LEGEND
  
 Use, reproduction and disclosure by the US Government is
 subject to restrictions as set forth in subparagraphs (a)
 and (c) of the Commercial Computer Software - Restricted
 Rights clause in FAR 52.227-19.
  
 Gaussian, Inc.
 340 Quinnipiac St., Bldg. 40, Wallingford CT 06492
  
  
 ---------------------------------------------------------------
 Warning -- This program may not be used in any manner that
 competes with the business of Gaussian, Inc. or will provide
 assistance to any competitor of Gaussian, Inc.  The licensee
 of this program is prohibited from giving any competitor of
 Gaussian, Inc. access to this program.  By using this program,
 the user acknowledges that Gaussian, Inc. is engaged in the
 business of creating and licensing software in the field of
 computational chemistry and represents and warrants to the
 licensee that it is not a competitor of Gaussian, Inc. and that
 it will not use this program in any manner prohibited above.
 ---------------------------------------------------------------
  

 Cite this work as:
 Gaussian 16, Revision A.03,
 M. J. Frisch, G. W. Trucks, H. B. Schlegel, G. E. Scuseria, 
 M. A. Robb, J. R. Cheeseman, G. Scalmani, V. Barone, 
 G. A. Petersson, H. Nakatsuji, X. Li, M. Caricato, A. V. Marenich, 
 J. Bloino, B. G. Janesko, R. Gomperts, B. Mennucci, H. P. Hratchian, 
 J. V. Ortiz, A. F. Izmaylov, J. L. Sonnenberg, D. Williams-Young, 
 F. Ding, F. Lipparini, F. Egidi, J. Goings, B. Peng, A. Petrone, 
 T. Henderson, D. Ranasinghe, V. G. Zakrzewski, J. Gao, N. Rega, 
 G. Zheng, W. Liang, M. Hada, M. Ehara, K. Toyota, R. Fukuda, 
 J. Hasegawa, M. Ishida, T. Nakajima, Y. Honda, O. Kitao, H. Nakai, 
 T. Vreven, K. Throssell, J. A. Montgomery, Jr., J. E. Peralta, 
 F. Ogliaro, M. J. Bearpark, J. J. Heyd, E. N. Brothers, K. N. Kudin, 
 V. N. Staroverov, T. A. Keith, R. Kobayashi, J. Normand, 
 K. Raghavachari, A. P. Rendell, J. C. Burant, S. S. Iyengar, 
 J. Tomasi, M. Cossi, J. M. Millam, M. Klene, C. Adamo, R. Cammi, 
 J. W. Ochterski, R. L. Martin, K. Morokuma, O. Farkas, 
 J. B. Foresman, and D. J. Fox, Gaussian, Inc., Wallingford CT, 2016.
 
 ******************************************
 Gaussian 16:  ES64L-G16RevA.03 25-Dec-2016
                20-May-2023 
 ******************************************
 %chk=CtCCqdCdOrC1dCCdCCdCNNNdN1.chk
 %NProcShared=20
 Will use up to   20 processors via shared memory.
 -----------------------------
 # opt freq b3lyp/6-31g(2df,p)
 -----------------------------
 1/18=20,19=15,26=3,38=1/1,3;
 2/9=110,12=2,17=6,18=5,40=1/2;
 3/5=1,6=6,7=104,11=2,25=1,30=1,71=1,74=-5/1,2,3;
 4//1;
 5/5=2,38=5/2;
 6/7=2,8=2,9=2,10=2,28=1/1;
 7//1,2,3,16;
 1/18=20,19=15,26=3/3(2);
 2/9=110/2;
 99//99;
 2/9=110/2;
 3/5=1,6=6,7=104,11=2,25=1,30=1,71=1,74=-5/1,2,3;
 4/5=5,16=3,69=1/1;
 5/5=2,38=5/2;
 7//1,2,3,16;
 1/18=20,19=15,26=3/3(-5);
 2/9=110/2;
 6/7=2,8=2,9=2,10=2,19=2,28=1/1;
 99/9=1/99;
 -------------------
 Title Card Required
 -------------------
 Symbolic Z-matrix:
 Charge =  0 Multiplicity = 1
 C                     1.01706  -0.07435   0.06466 
 C                     2.32092  -0.07435   0.06466 
 C                     3.84092  -0.07435   0.06466 
 C                     4.50546   0.07329   1.20502 
 O                     5.10007   0.2049    2.22149 
 C                     5.12617  -0.3244   -1.86659 
 C                     6.11518  -0.21795  -1.04446 
 C                     7.1374   -0.31125  -1.76504 
 C                     8.35917  -0.33801  -1.9717 
 C                     8.93528  -0.48831  -3.13261 
 C                     10.0595  -0.57342  -3.78999 
 N                     10.58857  -0.79589  -5.50824 
 N                     10.51647  -0.64513  -4.34378 
 N                     8.32621  -0.69559  -4.73352 
 N                     6.4791   -0.5539   -3.63921 
 H                    -0.04227  -0.07433   0.06481 
 H                     6.48793  -0.09794  -0.11753 
 H                     7.49036  -0.42073  -2.61065 
 H                     8.88583  -0.23999  -1.21463 
 H                     7.61955  -0.58466  -3.87674 
 H                     10.88524  -0.44237  -2.77774 
 H                     10.10415  -0.90191  -6.32712 
 H                     11.99988  -0.64837  -4.36886 
 
 Add virtual bond connecting atoms H21        and C11        Dist= 2.48D+00.
 Add virtual bond connecting atoms H23        and N13        Dist= 2.80D+00.
 Add virtual bond connecting atoms C6         and C3         Dist= 4.41D+00.
 Add virtual bond connecting atoms H17        and C4         Dist= 4.52D+00.

 GradGradGradGradGradGradGradGradGradGradGradGradGradGradGradGradGradGrad
 Berny optimization.
 Initialization pass.
                           ----------------------------
                           !    Initial Parameters    !
                           ! (Angstroms and Degrees)  !
 --------------------------                            --------------------------
 ! Name  Definition              Value          Derivative Info.                !
 --------------------------------------------------------------------------------
 ! R1    R(1,2)                  1.3039         estimate D2E/DX2                !
 ! R2    R(1,16)                 1.0593         estimate D2E/DX2                !
 ! R3    R(2,3)                  1.52           estimate D2E/DX2                !
 ! R4    R(3,4)                  1.3281         estimate D2E/DX2                !
 ! R5    R(3,6)                  2.3333         estimate D2E/DX2                !
 ! R6    R(4,5)                  1.1849         estimate D2E/DX2                !
 ! R7    R(4,17)                 2.3893         estimate D2E/DX2                !
 ! R8    R(6,7)                  1.2905         estimate D2E/DX2                !
 ! R9    R(7,8)                  1.2541         estimate D2E/DX2                !
 ! R10   R(7,17)                 1.0063         estimate D2E/DX2                !
 ! R11   R(8,9)                  1.2394         estimate D2E/DX2                !
 ! R12   R(8,18)                 0.9228         estimate D2E/DX2                !
 ! R13   R(9,10)                 1.3047         estimate D2E/DX2                !
 ! R14   R(9,18)                 1.0816         estimate D2E/DX2                !
 ! R15   R(9,19)                 0.9274         estimate D2E/DX2                !
 ! R16   R(10,11)                1.3051         estimate D2E/DX2                !
 ! R17   R(10,14)                1.7254         estimate D2E/DX2                !
 ! R18   R(11,13)                0.7216         estimate D2E/DX2                !
 ! R19   R(11,21)                1.3129         estimate D2E/DX2                !
 ! R20   R(12,13)                1.1764         estimate D2E/DX2                !
 ! R21   R(12,22)                0.9573         estimate D2E/DX2                !
 ! R22   R(13,23)                1.4836         estimate D2E/DX2                !
 ! R23   R(14,20)                1.1161         estimate D2E/DX2                !
 ! R24   R(15,20)                1.1653         estimate D2E/DX2                !
 ! A1    A(2,3,4)              120.0246         estimate D2E/DX2                !
 ! A2    A(2,3,6)              123.4245         estimate D2E/DX2                !
 ! A3    A(4,3,6)              116.5509         estimate D2E/DX2                !
 ! A4    A(3,4,17)              86.0962         estimate D2E/DX2                !
 ! A5    A(5,4,17)              93.8089         estimate D2E/DX2                !
 ! A6    A(3,6,7)               83.4546         estimate D2E/DX2                !
 ! A7    A(6,7,8)              104.6248         estimate D2E/DX2                !
 ! A8    A(6,7,17)             151.7123         estimate D2E/DX2                !
 ! A9    A(8,7,17)             103.6629         estimate D2E/DX2                !
 ! A10   A(7,8,9)              154.274          estimate D2E/DX2                !
 ! A11   A(7,8,18)             147.8923         estimate D2E/DX2                !
 ! A12   A(8,9,10)             125.8833         estimate D2E/DX2                !
 ! A13   A(8,9,19)             114.9224         estimate D2E/DX2                !
 ! A14   A(10,9,18)             79.6446         estimate D2E/DX2                !
 ! A15   A(10,9,19)            119.1942         estimate D2E/DX2                !
 ! A16   A(18,9,19)            161.1612         estimate D2E/DX2                !
 ! A17   A(9,10,11)            146.7287         estimate D2E/DX2                !
 ! A18   A(9,10,14)            133.1243         estimate D2E/DX2                !
 ! A19   A(11,10,14)            80.147          estimate D2E/DX2                !
 ! A20   A(10,11,13)           159.8193         estimate D2E/DX2                !
 ! A21   A(10,11,21)            98.4481         estimate D2E/DX2                !
 ! A22   A(13,11,21)           101.7326         estimate D2E/DX2                !
 ! A23   A(13,12,22)           146.0874         estimate D2E/DX2                !
 ! A24   A(11,13,12)           144.2191         estimate D2E/DX2                !
 ! A25   A(11,13,23)           130.2714         estimate D2E/DX2                !
 ! A26   A(12,13,23)            85.5095         estimate D2E/DX2                !
 ! A27   A(10,14,20)            59.9534         estimate D2E/DX2                !
 ! A28   A(4,17,7)             102.186          estimate D2E/DX2                !
 ! A29   A(14,20,15)           141.1424         estimate D2E/DX2                !
 ! A30   L(2,1,16,22,-1)       180.0082         estimate D2E/DX2                !
 ! A31   L(1,2,3,15,-1)        180.0            estimate D2E/DX2                !
 ! A32   L(3,4,5,17,-1)        179.9051         estimate D2E/DX2                !
 ! A33   L(2,1,16,22,-2)       180.0001         estimate D2E/DX2                !
 ! A34   L(1,2,3,15,-2)        180.0            estimate D2E/DX2                !
 ! A35   L(3,4,5,17,-2)        179.9995         estimate D2E/DX2                !
 ! D1    D(2,3,4,17)           179.9999         estimate D2E/DX2                !
 ! D2    D(6,3,4,17)             0.0004         estimate D2E/DX2                !
 ! D3    D(2,3,6,7)            179.9998         estimate D2E/DX2                !
 ! D4    D(4,3,6,7)             -0.0006         estimate D2E/DX2                !
 ! D5    D(3,4,17,7)            -0.0001         estimate D2E/DX2                !
 ! D6    D(5,4,17,7)          -179.9997         estimate D2E/DX2                !
 ! D7    D(3,6,7,8)            179.9998         estimate D2E/DX2                !
 ! D8    D(3,6,7,17)             0.0009         estimate D2E/DX2                !
 ! D9    D(6,7,8,9)           -179.9997         estimate D2E/DX2                !
 ! D10   D(6,7,8,18)             0.0011         estimate D2E/DX2                !
 ! D11   D(17,7,8,9)            -0.0003         estimate D2E/DX2                !
 ! D12   D(17,7,8,18)         -179.9994         estimate D2E/DX2                !
 ! D13   D(6,7,17,4)            -0.0008         estimate D2E/DX2                !
 ! D14   D(8,7,17,4)          -179.9997         estimate D2E/DX2                !
 ! D15   D(7,8,9,10)          -179.9994         estimate D2E/DX2                !
 ! D16   D(7,8,9,19)             0.0001         estimate D2E/DX2                !
 ! D17   D(8,9,10,11)          179.9998         estimate D2E/DX2                !
 ! D18   D(8,9,10,14)           -0.0009         estimate D2E/DX2                !
 ! D19   D(18,9,10,11)         179.9999         estimate D2E/DX2                !
 ! D20   D(18,9,10,14)          -0.0008         estimate D2E/DX2                !
 ! D21   D(19,9,10,11)           0.0003         estimate D2E/DX2                !
 ! D22   D(19,9,10,14)         179.9996         estimate D2E/DX2                !
 ! D23   D(9,10,11,13)         179.9972         estimate D2E/DX2                !
 ! D24   D(9,10,11,21)           0.0001         estimate D2E/DX2                !
 ! D25   D(14,10,11,13)         -0.0022         estimate D2E/DX2                !
 ! D26   D(14,10,11,21)       -179.9994         estimate D2E/DX2                !
 ! D27   D(9,10,14,20)           0.0005         estimate D2E/DX2                !
 ! D28   D(11,10,14,20)       -179.9999         estimate D2E/DX2                !
 ! D29   D(10,11,13,12)          0.0038         estimate D2E/DX2                !
 ! D30   D(10,11,13,23)       -179.9986         estimate D2E/DX2                !
 ! D31   D(21,11,13,12)       -179.999          estimate D2E/DX2                !
 ! D32   D(21,11,13,23)         -0.0015         estimate D2E/DX2                !
 ! D33   D(22,12,13,11)         -0.0018         estimate D2E/DX2                !
 ! D34   D(22,12,13,23)       -179.9999         estimate D2E/DX2                !
 ! D35   D(10,14,20,15)        179.9993         estimate D2E/DX2                !
 --------------------------------------------------------------------------------
 Trust Radius=3.00D-01 FncErr=1.00D-07 GrdErr=1.00D-06 EigMax=2.50D+02 EigMin=1.00D-04
 Number of steps in this run=    104 maximum allowed number of steps=    138.
 GradGradGradGradGradGradGradGradGradGradGradGradGradGradGradGradGradGrad

                          Input orientation:                          
 ---------------------------------------------------------------------
 Center     Atomic      Atomic             Coordinates (Angstroms)
 Number     Number       Type             X           Y           Z
 ---------------------------------------------------------------------
      1          6           0        1.017060   -0.074350    0.064660
      2          6           0        2.320920   -0.074350    0.064660
      3          6           0        3.840920   -0.074350    0.064660
      4          6           0        4.505460    0.073290    1.205020
      5          8           0        5.100070    0.204900    2.221490
      6          6           0        5.126170   -0.324400   -1.866590
      7          6           0        6.115180   -0.217950   -1.044460
      8          6           0        7.137400   -0.311250   -1.765040
      9          6           0        8.359170   -0.338010   -1.971700
     10          6           0        8.935280   -0.488310   -3.132610
     11          6           0       10.059500   -0.573420   -3.789990
     12          7           0       10.588570   -0.795890   -5.508240
     13          7           0       10.516470   -0.645130   -4.343780
     14          7           0        8.326210   -0.695590   -4.733520
     15          7           0        6.479100   -0.553900   -3.639210
     16          1           0       -0.042270   -0.074330    0.064810
     17          1           0        6.487930   -0.097940   -0.117530
     18          1           0        7.490360   -0.420730   -2.610650
     19          1           0        8.885830   -0.239990   -1.214630
     20          1           0        7.619550   -0.584660   -3.876740
     21          1           0       10.885240   -0.442370   -2.777740
     22          1           0       10.104150   -0.901910   -6.327120
     23          1           0       11.999880   -0.648370   -4.368860
 ---------------------------------------------------------------------
                    Distance matrix (angstroms):
                    1          2          3          4          5
     1  C    0.000000
     2  C    1.303860   0.000000
     3  C    2.823860   1.520000   0.000000
     4  C    3.673031   2.468691   1.328093   0.000000
     5  O    4.626107   3.528962   2.513037   1.184945   0.000000
     6  C    4.547201   3.414920   2.333264   3.158833   4.122286
     7  C    5.219348   3.955651   2.534369   2.781399   3.446111
     8  C    6.392377   5.157752   3.777659   3.987008   4.506611
     9  C    7.623835   6.377832   4.962949   5.011167   5.338476
    10  C    8.549392   7.358237   6.028798   6.225250   6.622368
    11  C    9.842414   8.659851   7.333358   7.497714   7.831961
    12  N   11.099173   9.996593   8.781151   9.100965   9.532782
    13  N   10.488037   9.323474   8.020168   8.212037   8.553520
    14  N    8.765395   7.711808   6.597446   7.103208   7.719522
    15  N    6.616835   5.589193   4.572594   5.268319   6.068386
    16  H    1.059330   2.363190   3.883190   4.690812   5.583270
    17  H    5.473954   4.171058   2.653377   2.389277   2.736582
    18  H    7.012908   5.830984   4.538246   4.869602   5.427198
    19  H    7.973805   6.690446   5.207220   5.014029   5.131942
    20  H    7.706356   6.623483   5.483894   5.996227   6.645269
    21  H   10.275975   9.031182   7.605072   7.538559   7.673295
    22  H   11.140687  10.105364   8.987088   9.435543   9.967175
    23  H   11.857822  10.661513   9.303452   9.367778   9.579570
                    6          7          8          9         10
     6  C    0.000000
     7  C    1.290492   0.000000
     8  C    2.013835   1.254143   0.000000
     9  C    3.234737   2.430983   1.239414   0.000000
    10  C    4.017336   3.519436   2.265827   1.304686   0.000000
    11  C    5.300870   4.818916   3.564804   2.500544   1.305091
    12  N    6.581925   6.345909   5.114391   4.205591   2.910600
    13  N    5.940932   5.517187   4.263741   3.221029   1.997921
    14  N    4.312462   4.327350   3.220692   2.785067   1.725353
    15  N    2.241712   2.641596   2.001187   2.522273   2.508738
    16  H    5.523189   6.258218   7.412971   8.648763   9.538935
    17  H    2.228202   1.006253   1.783704   2.645207   3.902899
    18  H    2.480383   2.094085   0.922834   1.081633   1.537792
    19  H    3.816703   2.775958   1.834404   0.927434   1.934620
    20  H    3.213313   3.227912   2.183231   2.058410   1.514648
    21  H    5.831895   5.080167   3.884464   2.653605   1.982520
    22  H    6.708959   6.654786   5.473852   4.725740   3.426692
    23  H    7.322172   6.772488   5.526051   4.370065   3.308430
                   11         12         13         14         15
    11  C    0.000000
    12  N    1.811571   0.000000
    13  N    0.721559   1.176390   0.000000
    14  N    1.977238   2.393434   2.225238   0.000000
    15  N    3.583627   4.521015   4.099402   2.151605   0.000000
    16  H   10.823785  12.024737  11.456372   9.666509   7.515186
    17  H    5.144818   6.808975   5.864277   5.004380   3.551085
    18  H    2.831013   4.258600   3.494487   2.297993   1.448557
    19  H    2.849764   4.652251   3.551719   3.592121   3.430667
    20  H    2.441518   3.394332   2.934949   1.116130   1.165330
    21  H    1.312886   2.769227   1.621599   3.230763   4.490951
    22  H    2.558697   0.957323   2.041955   2.396497   4.526252
    23  H    2.026273   1.819820   1.483626   3.692026   5.569589
                   16         17         18         19         20
    16  H    0.000000
    17  H    6.532788   0.000000
    18  H    8.001162   2.706420   0.000000
    19  H    9.020830   2.640782   1.982139   0.000000
    20  H    8.631323   3.955897   1.283178   2.968011   0.000000
    21  H   11.297169   5.150892   3.399058   2.545960   3.448591
    22  H   12.020462   7.230659   4.568980   5.297169   3.504033
    23  H   12.845245   6.982720   4.845502   4.451208   4.408348
                   21         22         23
    21  H    0.000000
    22  H    3.663247   0.000000
    23  H    1.953592   2.737308   0.000000
 Stoichiometry    C10H8N4O
 Framework group  C1[X(C10H8N4O)]
 Deg. of freedom    63
 Full point group                 C1      NOp   1
 Largest Abelian subgroup         C1      NOp   1
 Largest concise Abelian subgroup C1      NOp   1
                         Standard orientation:                         
 ---------------------------------------------------------------------
 Center     Atomic      Atomic             Coordinates (Angstroms)
 Number     Number       Type             X           Y           Z
 ---------------------------------------------------------------------
      1          6           0        5.797684   -1.794880    0.000001
      2          6           0        4.754728   -1.012388    0.000001
      3          6           0        3.538883   -0.100182    0.000002
      4          6           0        3.697401    1.218418   -0.000004
      5          8           0        3.836885    2.395124    0.000002
      6          6           0        1.342127   -0.886556   -0.000004
      7          6           0        1.048528    0.370095    0.000003
      8          6           0       -0.205200    0.402363   -0.000001
      9          6           0       -1.307551    0.968904   -0.000004
     10          6           0       -2.470898    0.378288    0.000002
     11          6           0       -3.767970    0.522746    0.000005
     12          7           0       -5.230962   -0.545638    0.000002
     13          7           0       -4.468623    0.350316   -0.000004
     14          7           0       -2.952487   -1.278491   -0.000004
     15          7           0       -0.812770   -1.504364    0.000002
     16          1           0        6.645131   -2.430501    0.000001
     17          1           0        1.311293    1.341433    0.000001
     18          1           0       -0.999248   -0.067860    0.000002
     19          1           0       -1.270688    1.895605   -0.000004
     20          1           0       -1.868755   -1.011526   -0.000004
     21          1           0       -3.815921    1.834757   -0.000003
     22          1           0       -5.339016   -1.496843    0.000004
     23          1           0       -5.670377    1.220335    0.000004
 ---------------------------------------------------------------------
 Rotational constants (GHZ):           1.8733844           0.2066291           0.1861025
 Standard basis: 6-31G(2df,p) (6D, 7F)
 There are   505 symmetry adapted cartesian basis functions of A   symmetry.
 There are   460 symmetry adapted basis functions of A   symmetry.
   460 basis functions,   716 primitive gaussians,   505 cartesian basis functions
    52 alpha electrons       52 beta electrons
       nuclear repulsion energy       833.8090650874 Hartrees.
 NAtoms=   23 NActive=   23 NUniq=   23 SFac= 1.00D+00 NAtFMM=   60 NAOKFM=F Big=F
 Integral buffers will be    131072 words long.
 Raffenetti 2 integral format.
 Two-electron integral symmetry is turned on.
 One-electron integrals computed using PRISM.
 PrsmSu:  requested number of processors reduced to:  12 ShMem   1 Linda.
 NBasis=   460 RedAO= T EigKep=  3.19D-05  NBF=   460
 NBsUse=   460 1.00D-06 EigRej= -1.00D+00 NBFU=   460
 ExpMin= 1.61D-01 ExpMax= 5.48D+03 ExpMxC= 8.25D+02 IAcc=3 IRadAn=         5 AccDes= 0.00D+00
 Harris functional with IExCor=  402 and IRadAn=       5 diagonalized for initial guess.
 HarFok:  IExCor=  402 AccDes= 0.00D+00 IRadAn=         5 IDoV= 1 UseB2=F ITyADJ=14
 ICtDFT=  3500011 ScaDFX=  1.000000  1.000000  1.000000  1.000000
 FoFCou: FMM=F IPFlag=           0 FMFlag=      100000 FMFlg1=           0
         NFxFlg=           0 DoJE=T BraDBF=F KetDBF=T FulRan=T
         wScrn=  0.000000 ICntrl=       500 IOpCl=  0 I1Cent=   200000004 NGrid=           0
         NMat0=    1 NMatS0=      1 NMatT0=    0 NMatD0=    1 NMtDS0=    0 NMtDT0=    0
 Petite list used in FoFCou.
 Requested convergence on RMS density matrix=1.00D-08 within 128 cycles.
 Requested convergence on MAX density matrix=1.00D-06.
 Requested convergence on             energy=1.00D-06.
 No special actions if energy rises.
 Integral accuracy reduced to 1.0D-05 until final iterations.
 Rare condition: small coef for last iteration:  0.000D+00
 EnCoef did   100 forward-backward iterations
 EnCoef did   100 forward-backward iterations
 EnCoef did     7 forward-backward iterations
 EnCoef did     3 forward-backward iterations
 EnCoef did     4 forward-backward iterations
 Problem detected with inexpensive integrals.
 Switching to full accuracy and repeating last cycle.
 EnCoef did   100 forward-backward iterations
 EnCoef did   100 forward-backward iterations
 EnCoef did     1 forward-backward iterations
 EnCoef did     3 forward-backward iterations
 EnCoef did     2 forward-backward iterations
 EnCoef did   100 forward-backward iterations
 EnCoef did     2 forward-backward iterations
 EnCoef did   100 forward-backward iterations
 EnCoef did   100 forward-backward iterations
 EnCoef did     9 forward-backward iterations
 EnCoef did     4 forward-backward iterations
 Restarting incremental Fock formation.
 SCF Done:  E(RB3LYP) =  -677.254605498     A.U. after   42 cycles
            NFock= 42  Conv=0.55D-08     -V/T= 1.9931

 **********************************************************************

            Population analysis using the SCF density.

 **********************************************************************

 Orbital symmetries:
       Occupied  (A) (A) (A) (A) (A) (A) (A) (A) (A) (A) (A) (A)
                 (A) (A) (A) (A) (A) (A) (A) (A) (A) (A) (A) (A)
                 (A) (A) (A) (A) (A) (A) (A) (A) (A) (A) (A) (A)
                 (A) (A) (A) (A) (A) (A) (A) (A) (A) (A) (A) (A)
                 (A) (A) (A) (A)
       Virtual   (A) (A) (A) (A) (A) (A) (A) (A) (A) (A) (A) (A)
                 (A) (A) (A) (A) (A) (A) (A) (A) (A) (A) (A) (A)
                 (A) (A) (A) (A) (A) (A) (A) (A) (A) (A) (A) (A)
                 (A) (A) (A) (A) (A) (A) (A) (A) (A) (A) (A) (A)
                 (A) (A) (A) (A) (A) (A) (A) (A) (A) (A) (A) (A)
                 (A) (A) (A) (A) (A) (A) (A) (A) (A) (A) (A) (A)
                 (A) (A) (A) (A) (A) (A) (A) (A) (A) (A) (A) (A)
                 (A) (A) (A) (A) (A) (A) (A) (A) (A) (A) (A) (A)
                 (A) (A) (A) (A) (A) (A) (A) (A) (A) (A) (A) (A)
                 (A) (A) (A) (A) (A) (A) (A) (A) (A) (A) (A) (A)
                 (A) (A) (A) (A) (A) (A) (A) (A) (A) (A) (A) (A)
                 (A) (A) (A) (A) (A) (A) (A) (A) (A) (A) (A) (A)
                 (A) (A) (A) (A) (A) (A) (A) (A) (A) (A) (A) (A)
                 (A) (A) (A) (A) (A) (A) (A) (A) (A) (A) (A) (A)
                 (A) (A) (A) (A) (A) (A) (A) (A) (A) (A) (A) (A)
                 (A) (A) (A) (A) (A) (A) (A) (A) (A) (A) (A) (A)
                 (A) (A) (A) (A) (A) (A) (A) (A) (A) (A) (A) (A)
                 (A) (A) (A) (A) (A) (A) (A) (A) (A) (A) (A) (A)
                 (A) (A) (A) (A) (A) (A) (A) (A) (A) (A) (A) (A)
                 (A) (A) (A) (A) (A) (A) (A) (A) (A) (A) (A) (A)
                 (A) (A) (A) (A) (A) (A) (A) (A) (A) (A) (A) (A)
                 (A) (A) (A) (A) (A) (A) (A) (A) (A) (A) (A) (A)
                 (A) (A) (A) (A) (A) (A) (A) (A) (A) (A) (A) (A)
                 (A) (A) (A) (A) (A) (A) (A) (A) (A) (A) (A) (A)
                 (A) (A) (A) (A) (A) (A) (A) (A) (A) (A) (A) (A)
                 (A) (A) (A) (A) (A) (A) (A) (A) (A) (A) (A) (A)
                 (A) (A) (A) (A) (A) (A) (A) (A) (A) (A) (A) (A)
                 (A) (A) (A) (A) (A) (A) (A) (A) (A) (A) (A) (A)
                 (A) (A) (A) (A) (A) (A) (A) (A) (A) (A) (A) (A)
                 (A) (A) (A) (A) (A) (A) (A) (A) (A) (A) (A) (A)
                 (A) (A) (A) (A) (A) (A) (A) (A) (A) (A) (A) (A)
                 (A) (A) (A) (A) (A) (A) (A) (A) (A) (A) (A) (A)
                 (A) (A) (A) (A) (A) (A) (A) (A) (A) (A) (A) (A)
                 (A) (A) (A) (A) (A) (A) (A) (A) (A) (A) (A) (A)
 The electronic state is 1-A.
 Alpha  occ. eigenvalues --  -19.19438 -14.55141 -14.41211 -14.38398 -14.34960
 Alpha  occ. eigenvalues --  -10.34972 -10.31079 -10.28897 -10.28231 -10.27086
 Alpha  occ. eigenvalues --  -10.26599 -10.21068 -10.20997 -10.20619 -10.18161
 Alpha  occ. eigenvalues --   -1.22945  -1.09296  -1.08868  -0.97714  -0.92981
 Alpha  occ. eigenvalues --   -0.88631  -0.83625  -0.77467  -0.76347  -0.74113
 Alpha  occ. eigenvalues --   -0.71325  -0.69198  -0.68426  -0.67884  -0.66416
 Alpha  occ. eigenvalues --   -0.61507  -0.55337  -0.53651  -0.49848  -0.48704
 Alpha  occ. eigenvalues --   -0.46290  -0.44945  -0.42808  -0.41953  -0.39648
 Alpha  occ. eigenvalues --   -0.37602  -0.36432  -0.31645  -0.29968  -0.29473
 Alpha  occ. eigenvalues --   -0.28904  -0.27962  -0.27905  -0.23718  -0.23156
 Alpha  occ. eigenvalues --   -0.20957  -0.19451
 Alpha virt. eigenvalues --   -0.18489  -0.15057  -0.14583  -0.08472  -0.04634
 Alpha virt. eigenvalues --   -0.03218  -0.02535   0.02629   0.03341   0.06978
 Alpha virt. eigenvalues --    0.07941   0.08034   0.10212   0.13195   0.13844
 Alpha virt. eigenvalues --    0.14089   0.15648   0.18543   0.18885   0.19404
 Alpha virt. eigenvalues --    0.19445   0.26054   0.28096   0.30866   0.33532
 Alpha virt. eigenvalues --    0.34337   0.35125   0.35270   0.37033   0.39860
 Alpha virt. eigenvalues --    0.40406   0.40661   0.41587   0.43106   0.44071
 Alpha virt. eigenvalues --    0.44732   0.47483   0.48145   0.49102   0.50015
 Alpha virt. eigenvalues --    0.50898   0.52112   0.52302   0.53672   0.53745
 Alpha virt. eigenvalues --    0.54616   0.56383   0.56484   0.57549   0.59414
 Alpha virt. eigenvalues --    0.59477   0.60343   0.61387   0.62807   0.63137
 Alpha virt. eigenvalues --    0.64221   0.65427   0.66810   0.67915   0.68602
 Alpha virt. eigenvalues --    0.70570   0.71058   0.71485   0.71591   0.72641
 Alpha virt. eigenvalues --    0.73815   0.74610   0.75459   0.75839   0.76400
 Alpha virt. eigenvalues --    0.77508   0.77550   0.78756   0.79485   0.80242
 Alpha virt. eigenvalues --    0.80911   0.82350   0.82683   0.83801   0.84221
 Alpha virt. eigenvalues --    0.85072   0.85363   0.86831   0.88182   0.88241
 Alpha virt. eigenvalues --    0.89045   0.90235   0.92420   0.92726   0.93545
 Alpha virt. eigenvalues --    0.93958   0.94989   0.95059   0.95913   0.98335
 Alpha virt. eigenvalues --    1.00071   1.00960   1.02073   1.03398   1.04927
 Alpha virt. eigenvalues --    1.05246   1.07757   1.11196   1.11708   1.12768
 Alpha virt. eigenvalues --    1.13790   1.14740   1.14894   1.16537   1.17127
 Alpha virt. eigenvalues --    1.18043   1.18506   1.19662   1.20065   1.21712
 Alpha virt. eigenvalues --    1.22614   1.24482   1.27082   1.27368   1.29487
 Alpha virt. eigenvalues --    1.30697   1.32631   1.33281   1.34211   1.35545
 Alpha virt. eigenvalues --    1.36577   1.37968   1.41225   1.43369   1.43524
 Alpha virt. eigenvalues --    1.44296   1.44708   1.47794   1.48864   1.50306
 Alpha virt. eigenvalues --    1.52189   1.56724   1.57685   1.58813   1.59070
 Alpha virt. eigenvalues --    1.62824   1.64291   1.66668   1.66895   1.68337
 Alpha virt. eigenvalues --    1.70958   1.71318   1.71500   1.72015   1.74377
 Alpha virt. eigenvalues --    1.78274   1.79208   1.80976   1.84722   1.85413
 Alpha virt. eigenvalues --    1.90038   1.91681   1.94503   1.96161   2.00084
 Alpha virt. eigenvalues --    2.01684   2.02904   2.06368   2.08073   2.11471
 Alpha virt. eigenvalues --    2.13029   2.15447   2.19992   2.21298   2.21813
 Alpha virt. eigenvalues --    2.24897   2.26686   2.32704   2.33220   2.33388
 Alpha virt. eigenvalues --    2.36687   2.41254   2.44362   2.45495   2.46875
 Alpha virt. eigenvalues --    2.48818   2.52900   2.53101   2.53815   2.54754
 Alpha virt. eigenvalues --    2.56263   2.56528   2.58362   2.64452   2.66196
 Alpha virt. eigenvalues --    2.66929   2.68606   2.71192   2.71433   2.73690
 Alpha virt. eigenvalues --    2.74117   2.75252   2.76291   2.78999   2.79039
 Alpha virt. eigenvalues --    2.80609   2.80643   2.83824   2.85501   2.86565
 Alpha virt. eigenvalues --    2.88094   2.90886   2.91094   2.95438   2.97498
 Alpha virt. eigenvalues --    2.99752   3.00050   3.02755   3.02771   3.03256
 Alpha virt. eigenvalues --    3.03928   3.04178   3.04595   3.09511   3.09635
 Alpha virt. eigenvalues --    3.11546   3.12443   3.13518   3.14273   3.18160
 Alpha virt. eigenvalues --    3.18558   3.19578   3.23614   3.24245   3.24372
 Alpha virt. eigenvalues --    3.25978   3.29197   3.30676   3.32412   3.35388
 Alpha virt. eigenvalues --    3.35484   3.36180   3.37388   3.39727   3.42342
 Alpha virt. eigenvalues --    3.42420   3.43172   3.43286   3.44109   3.45100
 Alpha virt. eigenvalues --    3.47157   3.47233   3.48518   3.50977   3.51259
 Alpha virt. eigenvalues --    3.52508   3.56210   3.57683   3.58922   3.60395
 Alpha virt. eigenvalues --    3.60605   3.62879   3.63725   3.66641   3.67857
 Alpha virt. eigenvalues --    3.68210   3.68763   3.69562   3.72753   3.73677
 Alpha virt. eigenvalues --    3.76394   3.76786   3.77016   3.80026   3.80867
 Alpha virt. eigenvalues --    3.82498   3.83590   3.85059   3.86113   3.88160
 Alpha virt. eigenvalues --    3.90078   3.91525   3.92259   3.95504   3.96830
 Alpha virt. eigenvalues --    4.00220   4.00491   4.01250   4.02864   4.04882
 Alpha virt. eigenvalues --    4.06155   4.10388   4.12916   4.14460   4.15213
 Alpha virt. eigenvalues --    4.15666   4.16923   4.17001   4.17751   4.22299
 Alpha virt. eigenvalues --    4.23509   4.23954   4.24085   4.24505   4.24938
 Alpha virt. eigenvalues --    4.25227   4.25454   4.27329   4.28255   4.28466
 Alpha virt. eigenvalues --    4.31140   4.33541   4.34333   4.35144   4.37385
 Alpha virt. eigenvalues --    4.38452   4.39801   4.40647   4.43655   4.43796
 Alpha virt. eigenvalues --    4.45019   4.45237   4.47476   4.48365   4.51999
 Alpha virt. eigenvalues --    4.53534   4.55513   4.56982   4.58794   4.58797
 Alpha virt. eigenvalues --    4.60114   4.60922   4.65749   4.66507   4.66987
 Alpha virt. eigenvalues --    4.69639   4.69910   4.74560   4.75156   4.79142
 Alpha virt. eigenvalues --    4.84905   4.86329   4.88343   4.90730   4.92612
 Alpha virt. eigenvalues --    4.93727   4.96382   4.97726   4.98680   4.99936
 Alpha virt. eigenvalues --    5.02618   5.02880   5.03628   5.06050   5.06959
 Alpha virt. eigenvalues --    5.09400   5.10146   5.16733   5.17470   5.19207
 Alpha virt. eigenvalues --    5.22073   5.24137   5.28472   5.32685   5.36956
 Alpha virt. eigenvalues --    5.40917   5.45872   5.49307   5.50661   5.51159
 Alpha virt. eigenvalues --    5.53738   5.57196   5.58981   5.66521   5.70331
 Alpha virt. eigenvalues --    5.74717   5.82550   5.91494   6.01961   6.04635
 Alpha virt. eigenvalues --    6.07344   6.15023   6.15712   6.27462   6.27569
 Alpha virt. eigenvalues --    6.48303   6.58907   6.69467   6.92989   7.07240
 Alpha virt. eigenvalues --    7.08458   7.25527   7.68497   8.51969   9.52389
 Alpha virt. eigenvalues --    9.79743  10.07676  10.28871  10.62116  10.97912
 Alpha virt. eigenvalues --   11.14425  11.20699  11.24708  11.35523  11.56863
 Alpha virt. eigenvalues --   11.68537  11.77960  11.90447  12.57688  13.13520
 Alpha virt. eigenvalues --   14.02965  16.60284  42.36977
          Condensed to atoms (all electrons):
               1          2          3          4          5          6
     1  C    5.064260   0.871802  -0.009766  -0.003543   0.000021  -0.000610
     2  C    0.871802   4.649892   0.455265  -0.017959  -0.003668  -0.004287
     3  C   -0.009766   0.455265   5.384725   0.540412  -0.041330   0.121789
     4  C   -0.003543  -0.017959   0.540412   4.265346   0.747166  -0.005073
     5  O    0.000021  -0.003668  -0.041330   0.747166   7.563457  -0.000344
     6  C   -0.000610  -0.004287   0.121789  -0.005073  -0.000344   5.450315
     7  C   -0.000005  -0.002057   0.000346  -0.002488  -0.004755   0.530445
     8  C    0.000001  -0.000353  -0.000104   0.002009   0.000350   0.051432
     9  C    0.000000  -0.000001  -0.000319  -0.000098   0.000005   0.016921
    10  C   -0.000000   0.000000   0.000008  -0.000003  -0.000000   0.000314
    11  C   -0.000000   0.000000   0.000000  -0.000000  -0.000000  -0.000016
    12  N    0.000000  -0.000000  -0.000000  -0.000000   0.000000  -0.000000
    13  N   -0.000000  -0.000000  -0.000000  -0.000000   0.000000  -0.000001
    14  N    0.000000   0.000000  -0.000000  -0.000000   0.000000   0.001239
    15  N    0.000000   0.000004   0.000033   0.000007  -0.000000   0.015192
    16  H    0.386355  -0.021374  -0.000803   0.000081  -0.000001  -0.000006
    17  H   -0.000005   0.000041  -0.039395   0.009530   0.010871  -0.060895
    18  H   -0.000000  -0.000009  -0.000265   0.000034  -0.000000  -0.008124
    19  H    0.000000   0.000000   0.000009   0.000013  -0.000002  -0.000364
    20  H    0.000000   0.000000  -0.000004  -0.000000   0.000000   0.000023
    21  H   -0.000000  -0.000000   0.000000   0.000000  -0.000000   0.000001
    22  H    0.000000   0.000000  -0.000000  -0.000000   0.000000  -0.000000
    23  H    0.000000   0.000000  -0.000000  -0.000000   0.000000  -0.000000
               7          8          9         10         11         12
     1  C   -0.000005   0.000001   0.000000  -0.000000  -0.000000   0.000000
     2  C   -0.002057  -0.000353  -0.000001   0.000000   0.000000  -0.000000
     3  C    0.000346  -0.000104  -0.000319   0.000008   0.000000  -0.000000
     4  C   -0.002488   0.002009  -0.000098  -0.000003  -0.000000  -0.000000
     5  O   -0.004755   0.000350   0.000005  -0.000000  -0.000000   0.000000
     6  C    0.530445   0.051432   0.016921   0.000314  -0.000016  -0.000000
     7  C    5.314348   0.466450  -0.242929   0.025914  -0.000601  -0.000001
     8  C    0.466450   5.433330  -0.394779   0.194738   0.075697  -0.000574
     9  C   -0.242929  -0.394779   6.260021   0.263541  -0.195053   0.003382
    10  C    0.025914   0.194738   0.263541   6.684558  -1.287513   0.007681
    11  C   -0.000601   0.075697  -0.195053  -1.287513  13.584946  -0.903676
    12  N   -0.000001  -0.000574   0.003382   0.007681  -0.903676   7.233971
    13  N   -0.000067  -0.010950   0.029171  -0.151089  -4.041716   0.928905
    14  N    0.000587  -0.008163  -0.038493   0.298619  -0.042411   0.041298
    15  N    0.011003   0.211674  -0.109479  -0.000409   0.005346   0.000471
    16  H   -0.000001  -0.000000  -0.000000   0.000000   0.000000   0.000000
    17  H    0.318603  -0.042389  -0.023363  -0.000501   0.000015   0.000000
    18  H   -0.163316  -0.421249   0.540084  -0.073521  -0.138465   0.001561
    19  H    0.008574   0.066539   0.169608   0.011681   0.007304   0.000042
    20  H    0.006981   0.045819  -0.038620  -0.016847   0.038376  -0.001618
    21  H   -0.000065  -0.000446   0.002390  -0.160676   0.055963   0.041725
    22  H    0.000000  -0.000029   0.000079   0.011893   0.010362   0.324746
    23  H    0.000000  -0.000079  -0.000165   0.045405  -0.034108  -0.161120
              13         14         15         16         17         18
     1  C   -0.000000   0.000000   0.000000   0.386355  -0.000005  -0.000000
     2  C   -0.000000   0.000000   0.000004  -0.021374   0.000041  -0.000009
     3  C   -0.000000  -0.000000   0.000033  -0.000803  -0.039395  -0.000265
     4  C   -0.000000  -0.000000   0.000007   0.000081   0.009530   0.000034
     5  O    0.000000   0.000000  -0.000000  -0.000001   0.010871  -0.000000
     6  C   -0.000001   0.001239   0.015192  -0.000006  -0.060895  -0.008124
     7  C   -0.000067   0.000587   0.011003  -0.000001   0.318603  -0.163316
     8  C   -0.010950  -0.008163   0.211674  -0.000000  -0.042389  -0.421249
     9  C    0.029171  -0.038493  -0.109479  -0.000000  -0.023363   0.540084
    10  C   -0.151089   0.298619  -0.000409   0.000000  -0.000501  -0.073521
    11  C   -4.041716  -0.042411   0.005346   0.000000   0.000015  -0.138465
    12  N    0.928905   0.041298   0.000471   0.000000   0.000000   0.001561
    13  N    8.684567  -0.073358   0.000472  -0.000000   0.000000   0.010124
    14  N   -0.073358   7.184628  -0.059377   0.000000   0.000034   0.035586
    15  N    0.000472  -0.059377   7.346679   0.000000   0.002425  -0.041995
    16  H   -0.000000   0.000000   0.000000   0.440104   0.000000  -0.000000
    17  H    0.000000   0.000034   0.002425   0.000000   0.683658   0.016181
    18  H    0.010124   0.035586  -0.041995  -0.000000   0.016181   0.965782
    19  H    0.002293   0.002660   0.004858  -0.000000   0.006210  -0.020831
    20  H   -0.008404   0.114584   0.167265   0.000000  -0.000310  -0.061524
    21  H    0.137915   0.007393  -0.000149  -0.000000  -0.000006   0.001945
    22  H   -0.065601   0.011429   0.000156   0.000000   0.000000   0.000131
    23  H    0.129135  -0.000046   0.000025   0.000000   0.000000   0.000131
              19         20         21         22         23
     1  C    0.000000   0.000000  -0.000000   0.000000   0.000000
     2  C    0.000000   0.000000  -0.000000   0.000000   0.000000
     3  C    0.000009  -0.000004   0.000000  -0.000000  -0.000000
     4  C    0.000013  -0.000000   0.000000  -0.000000  -0.000000
     5  O   -0.000002   0.000000  -0.000000   0.000000   0.000000
     6  C   -0.000364   0.000023   0.000001  -0.000000  -0.000000
     7  C    0.008574   0.006981  -0.000065   0.000000   0.000000
     8  C    0.066539   0.045819  -0.000446  -0.000029  -0.000079
     9  C    0.169608  -0.038620   0.002390   0.000079  -0.000165
    10  C    0.011681  -0.016847  -0.160676   0.011893   0.045405
    11  C    0.007304   0.038376   0.055963   0.010362  -0.034108
    12  N    0.000042  -0.001618   0.041725   0.324746  -0.161120
    13  N    0.002293  -0.008404   0.137915  -0.065601   0.129135
    14  N    0.002660   0.114584   0.007393   0.011429  -0.000046
    15  N    0.004858   0.167265  -0.000149   0.000156   0.000025
    16  H   -0.000000   0.000000  -0.000000   0.000000   0.000000
    17  H    0.006210  -0.000310  -0.000006   0.000000   0.000000
    18  H   -0.020831  -0.061524   0.001945   0.000131   0.000131
    19  H    0.556826  -0.002483   0.010208  -0.000003  -0.000101
    20  H   -0.002483   0.240366  -0.001408   0.000157   0.000074
    21  H    0.010208  -0.001408   0.862963  -0.000679  -0.120174
    22  H   -0.000003   0.000157  -0.000679   0.373647   0.018802
    23  H   -0.000101   0.000074  -0.120174   0.018802   1.121251
 Mulliken charges:
               1
     1  C   -0.308510
     2  C    0.072704
     3  C   -0.410598
     4  C    0.464568
     5  O   -0.271769
     6  C   -0.107949
     7  C   -0.266966
     8  C    0.331074
     9  C   -0.241903
    10  C    0.146207
    11  C   -1.134450
    12  N   -0.516793
    13  N    1.428602
    14  N   -0.476208
    15  N   -0.554202
    16  H    0.195644
    17  H    0.119296
    18  H    0.357742
    19  H    0.176959
    20  H    0.517575
    21  H    0.163098
    22  H    0.314910
    23  H    0.000969
 Sum of Mulliken charges =  -0.00000
 Mulliken charges with hydrogens summed into heavy atoms:
               1
     1  C   -0.112866
     2  C    0.072704
     3  C   -0.410598
     4  C    0.464568
     5  O   -0.271769
     6  C   -0.107949
     7  C   -0.147670
     8  C    0.688816
     9  C   -0.064944
    10  C    0.146207
    11  C   -0.971352
    12  N   -0.201883
    13  N    1.429571
    14  N    0.041367
    15  N   -0.554202
 Electronic spatial extent (au):  <R**2>=           5304.5515
 Charge=             -0.0000 electrons
 Dipole moment (field-independent basis, Debye):
    X=             -7.4656    Y=              4.7014    Z=             -0.0000  Tot=              8.8226
 Quadrupole moment (field-independent basis, Debye-Ang):
   XX=            -87.3912   YY=            -87.5368   ZZ=            -87.4791
   XY=            -10.3635   XZ=             -0.0000   YZ=             -0.0000
 Traceless Quadrupole moment (field-independent basis, Debye-Ang):
   XX=              0.0778   YY=             -0.0678   ZZ=             -0.0101
   XY=            -10.3635   XZ=             -0.0000   YZ=             -0.0000
 Octapole moment (field-independent basis, Debye-Ang**2):
  XXX=            -60.2254  YYY=              7.0063  ZZZ=             -0.0000  XYY=            -34.5064
  XXY=            -38.7243  XXZ=             -0.0002  XZZ=            -15.9334  YZZ=              9.1747
  YYZ=              0.0000  XYZ=              0.0000
 Hexadecapole moment (field-independent basis, Debye-Ang**3):
 XXXX=          -6108.4689 YYYY=           -766.1435 ZZZZ=            -82.4882 XXXY=           -207.0110
 XXXZ=              0.0007 YYYX=            -20.3501 YYYZ=             -0.0001 ZZZX=              0.0001
 ZZZY=             -0.0000 XXYY=          -1044.8375 XXZZ=          -1109.5347 YYZZ=           -145.4312
 XXYZ=             -0.0006 YYXZ=             -0.0001 ZZXY=             25.1242
 N-N= 8.338090650874D+02 E-N=-3.248529605540D+03  KE= 6.819371276574D+02
 PrsmSu:  requested number of processors reduced to:  13 ShMem   1 Linda.
 Calling FoFJK, ICntrl=      2127 FMM=F ISym2X=0 I1Cent= 0 IOpClX= 0 NMat=1 NMatS=1 NMatT=0.
 ***** Axes restored to original set *****
 -------------------------------------------------------------------
 Center     Atomic                   Forces (Hartrees/Bohr)
 Number     Number              X              Y              Z
 -------------------------------------------------------------------
      1        6           0.148651184   -0.000109642   -0.000846798
      2        6          -0.064220080    0.000260351    0.002011644
      3        6          -0.063715243   -0.000670354   -0.005174135
      4        6          -0.019131208   -0.000093407   -0.000727960
      5        8          -0.002968556   -0.003485310   -0.026915555
      6        6          -0.119413460    0.001220195    0.009425157
      7        6          -0.014764086    0.008970751    0.069284301
      8        6          -0.119622987    0.005444331    0.042056240
      9        6           0.170299897    0.002101948    0.016242935
     10        6          -0.016414151   -0.022233933   -0.171731770
     11        6          -2.930105647    0.516270206    3.987036670
     12        7           0.050451458   -0.023976046   -0.185173515
     13        7           3.143731725   -0.490058901   -3.784596669
     14        7          -0.007920757    0.008856563    0.068399719
     15        7          -0.035956054    0.004562655    0.035240887
     16        1          -0.002702570   -0.000078622   -0.000607383
     17        1          -0.012783216    0.010914810    0.084300412
     18        1          -0.093556314   -0.033783950   -0.260952387
     19        1           0.115399910    0.018283325    0.141214195
     20        1          -0.045710764   -0.004072041   -0.031445496
     21        1          -0.030630668    0.002427081    0.018746048
     22        1          -0.051212689   -0.003769063   -0.029107037
     23        1           0.002294275    0.003019053    0.023320499
 -------------------------------------------------------------------
 Cartesian Forces:  Max     3.987036670 RMS     0.846934791

 GradGradGradGradGradGradGradGradGradGradGradGradGradGradGradGradGradGrad
 Berny optimization.
 FormGI is forming the generalized inverse of G from B-inverse, IUseBI=4.
 Internal  Forces:  Max     5.094289938 RMS     0.529412735
 Search for a local minimum.
 Step number   1 out of a maximum of  104
 All quantities printed in internal units (Hartrees-Bohrs-Radians)
 Mixed Optimization -- RFO/linear search
 Second derivative matrix not updated -- first step.
 ITU=  0
     Eigenvalues ---    0.00230   0.00230   0.00501   0.00501   0.00641
     Eigenvalues ---    0.00641   0.00858   0.01556   0.02374   0.02601
     Eigenvalues ---    0.02887   0.03129   0.03232   0.03344   0.03350
     Eigenvalues ---    0.03615   0.03812   0.04018   0.04124   0.04253
     Eigenvalues ---    0.07001   0.07043   0.09213   0.09929   0.10666
     Eigenvalues ---    0.11767   0.16000   0.16000   0.16000   0.16000
     Eigenvalues ---    0.16000   0.16842   0.17907   0.17969   0.19315
     Eigenvalues ---    0.20245   0.21232   0.22000   0.22000   0.22346
     Eigenvalues ---    0.25000   0.25000   0.25000   0.25000   0.27380
     Eigenvalues ---    0.30367   0.31960   0.33493   0.38612   0.44975
     Eigenvalues ---    0.54612   0.56053   0.57896   0.63112   0.65799
     Eigenvalues ---    0.65908   0.66132   0.68001   0.80011   0.81725
     Eigenvalues ---    1.12767   1.17641  17.34000
 RFO step:  Lambda=-1.55808247D+00 EMin= 2.30000000D-03
 Linear search not attempted -- first point.
 Maximum step size (   0.300) exceeded in Quadratic search.
    -- Step size scaled by   0.748
slurmstepd: error: *** JOB 27449689 ON lewis4-r630-hpc4-node228 CANCELLED AT 2023-05-20T20:33:56 ***
