### Starting Gaussian ###
 Entering Gaussian System, Link 0=g16
 Initial command:
 /cluster/software/gaussian/gaussian-16-A.03/avx2/g16/l1.exe "/local/scratch/yxie/Gau-13283.inp" -scrdir="/local/scratch/yxie/"
 Entering Link 1 = /cluster/software/gaussian/gaussian-16-A.03/avx2/g16/l1.exe PID=     13284.
  
 Copyright (c) 1988,1990,1992,1993,1995,1998,2003,2009,2016,
            Gaussian, Inc.  All Rights Reserved.
  
 This is part of the Gaussian(R) 16 program.  It is based on
 the Gaussian(R) 09 system (copyright 2009, Gaussian, Inc.),
 the Gaussian(R) 03 system (copyright 2003, Gaussian, Inc.),
 the Gaussian(R) 98 system (copyright 1998, Gaussian, Inc.),
 the Gaussian(R) 94 system (copyright 1995, Gaussian, Inc.),
 the Gaussian 92(TM) system (copyright 1992, Gaussian, Inc.),
 the Gaussian 90(TM) system (copyright 1990, Gaussian, Inc.),
 the Gaussian 88(TM) system (copyright 1988, Gaussian, Inc.),
 the Gaussian 86(TM) system (copyright 1986, Carnegie Mellon
 University), and the Gaussian 82(TM) system (copyright 1983,
 Carnegie Mellon University). Gaussian is a federally registered
 trademark of Gaussian, Inc.
  
 This software contains proprietary and confidential information,
 including trade secrets, belonging to Gaussian, Inc.
  
 This software is provided under written license and may be
 used, copied, transmitted, or stored only in accord with that
 written license.
  
 The following legend is applicable only to US Government
 contracts under FAR:
  
                    RESTRICTED RIGHTS LEGEND
  
 Use, reproduction and disclosure by the US Government is
 subject to restrictions as set forth in subparagraphs (a)
 and (c) of the Commercial Computer Software - Restricted
 Rights clause in FAR 52.227-19.
  
 Gaussian, Inc.
 340 Quinnipiac St., Bldg. 40, Wallingford CT 06492
  
  
 ---------------------------------------------------------------
 Warning -- This program may not be used in any manner that
 competes with the business of Gaussian, Inc. or will provide
 assistance to any competitor of Gaussian, Inc.  The licensee
 of this program is prohibited from giving any competitor of
 Gaussian, Inc. access to this program.  By using this program,
 the user acknowledges that Gaussian, Inc. is engaged in the
 business of creating and licensing software in the field of
 computational chemistry and represents and warrants to the
 licensee that it is not a competitor of Gaussian, Inc. and that
 it will not use this program in any manner prohibited above.
 ---------------------------------------------------------------
  

 Cite this work as:
 Gaussian 16, Revision A.03,
 M. J. Frisch, G. W. Trucks, H. B. Schlegel, G. E. Scuseria, 
 M. A. Robb, J. R. Cheeseman, G. Scalmani, V. Barone, 
 G. A. Petersson, H. Nakatsuji, X. Li, M. Caricato, A. V. Marenich, 
 J. Bloino, B. G. Janesko, R. Gomperts, B. Mennucci, H. P. Hratchian, 
 J. V. Ortiz, A. F. Izmaylov, J. L. Sonnenberg, D. Williams-Young, 
 F. Ding, F. Lipparini, F. Egidi, J. Goings, B. Peng, A. Petrone, 
 T. Henderson, D. Ranasinghe, V. G. Zakrzewski, J. Gao, N. Rega, 
 G. Zheng, W. Liang, M. Hada, M. Ehara, K. Toyota, R. Fukuda, 
 J. Hasegawa, M. Ishida, T. Nakajima, Y. Honda, O. Kitao, H. Nakai, 
 T. Vreven, K. Throssell, J. A. Montgomery, Jr., J. E. Peralta, 
 F. Ogliaro, M. J. Bearpark, J. J. Heyd, E. N. Brothers, K. N. Kudin, 
 V. N. Staroverov, T. A. Keith, R. Kobayashi, J. Normand, 
 K. Raghavachari, A. P. Rendell, J. C. Burant, S. S. Iyengar, 
 J. Tomasi, M. Cossi, J. M. Millam, M. Klene, C. Adamo, R. Cammi, 
 J. W. Ochterski, R. L. Martin, K. Morokuma, O. Farkas, 
 J. B. Foresman, and D. J. Fox, Gaussian, Inc., Wallingford CT, 2016.
 
 ******************************************
 Gaussian 16:  ES64L-G16RevA.03 25-Dec-2016
                16-May-2023 
 ******************************************
 %chk=N[C]CCdC[SH]dc1cccccc1.chk
 %NProcShared=20
 Will use up to   20 processors via shared memory.
 -----------------------------
 # opt freq b3lyp/6-31g(2df,p)
 -----------------------------
 1/18=20,19=15,26=3,38=1/1,3;
 2/9=110,12=2,17=6,18=5,40=1/2;
 3/5=1,6=6,7=104,11=2,25=1,30=1,71=1,74=-5/1,2,3;
 4//1;
 5/5=2,38=5/2;
 6/7=2,8=2,9=2,10=2,28=1/1;
 7//1,2,3,16;
 1/18=20,19=15,26=3/3(2);
 2/9=110/2;
 99//99;
 2/9=110/2;
 3/5=1,6=6,7=104,11=2,25=1,30=1,71=1,74=-5/1,2,3;
 4/5=5,16=3,69=1/1;
 5/5=2,38=5/2;
 7//1,2,3,16;
 1/18=20,19=15,26=3/3(-5);
 2/9=110/2;
 6/7=2,8=2,9=2,10=2,19=2,28=1/1;
 99/9=1/99;
 -------------------
 Title Card Required
 -------------------
 Symbolic Z-matrix:
 Charge =  0 Multiplicity = 1
 N                     0.88182  -0.14403   0.10123 
 C                     2.26628   0.07662  -0.27579 
 C                     3.05904   0.58437  -1.39927 
 C                     4.57537   0.56581  -1.44268 
 C                     5.23265   1.03678  -2.55627 
 S                     7.00932   0.99234  -2.75579 
 C                     8.01975   1.69171  -4.21144 
 C                     9.28249   2.09071  -3.58088 
 C                     9.80563   3.1467   -4.3351 
 C                     11.03756   2.99071  -5.06629 
 C                     10.77709   2.96411  -6.41263 
 C                     9.49436   2.088    -6.71142 
 C                     8.33789   1.70041  -5.91571 
 H                     0.66289  -0.60168   0.97747 
 H                     0.44369  -0.66772  -0.65806 
 H                     2.6886    1.60747  -1.51136 
 H                     2.67637  -0.00875  -2.23918 
 H                     5.05639   0.15618  -0.55121 
 H                     4.60597   1.4561   -3.33016 
 H                     7.37746  -0.22903  -2.43933 
 H                     9.76416   1.29656  -3.07892 
 H                     9.09262   3.7151   -4.9331 
 H                     11.69819   2.18381  -4.6917 
 H                     10.59274   3.72632  -7.19452 
 H                     10.36485   1.44487  -7.03299 
 H                     7.4407    2.30427  -6.17853 
 

 GradGradGradGradGradGradGradGradGradGradGradGradGradGradGradGradGradGrad
 Berny optimization.
 Initialization pass.
                           ----------------------------
                           !    Initial Parameters    !
                           ! (Angstroms and Degrees)  !
 --------------------------                            --------------------------
 ! Name  Definition              Value          Derivative Info.                !
 --------------------------------------------------------------------------------
 ! R1    R(1,2)                  1.4517         estimate D2E/DX2                !
 ! R2    R(1,14)                 1.0125         estimate D2E/DX2                !
 ! R3    R(1,15)                 1.0211         estimate D2E/DX2                !
 ! R4    R(2,3)                  1.4658         estimate D2E/DX2                !
 ! R5    R(3,4)                  1.5171         estimate D2E/DX2                !
 ! R6    R(3,16)                 1.0939         estimate D2E/DX2                !
 ! R7    R(3,17)                 1.0971         estimate D2E/DX2                !
 ! R8    R(4,5)                  1.3762         estimate D2E/DX2                !
 ! R9    R(4,18)                 1.0927         estimate D2E/DX2                !
 ! R10   R(5,6)                  1.7884         estimate D2E/DX2                !
 ! R11   R(5,19)                 1.0805         estimate D2E/DX2                !
 ! R12   R(6,7)                  1.905          estimate D2E/DX2                !
 ! R13   R(6,20)                 1.3143         estimate D2E/DX2                !
 ! R14   R(7,8)                  1.4667         estimate D2E/DX2                !
 ! R15   R(7,13)                 1.7337         estimate D2E/DX2                !
 ! R16   R(8,9)                  1.3992         estimate D2E/DX2                !
 ! R17   R(8,21)                 1.0558         estimate D2E/DX2                !
 ! R18   R(9,10)                 1.441          estimate D2E/DX2                !
 ! R19   R(9,22)                 1.0904         estimate D2E/DX2                !
 ! R20   R(10,11)                1.3716         estimate D2E/DX2                !
 ! R21   R(10,23)                1.1081         estimate D2E/DX2                !
 ! R22   R(11,12)                1.5818         estimate D2E/DX2                !
 ! R23   R(11,24)                1.1074         estimate D2E/DX2                !
 ! R24   R(12,13)                1.4563         estimate D2E/DX2                !
 ! R25   R(12,25)                1.1291         estimate D2E/DX2                !
 ! R26   R(13,26)                1.113          estimate D2E/DX2                !
 ! A1    A(2,1,14)             119.977          estimate D2E/DX2                !
 ! A2    A(2,1,15)             107.0985         estimate D2E/DX2                !
 ! A3    A(14,1,15)            108.5975         estimate D2E/DX2                !
 ! A4    A(1,2,3)              140.1287         estimate D2E/DX2                !
 ! A5    A(2,3,4)              123.937          estimate D2E/DX2                !
 ! A6    A(2,3,16)             102.6726         estimate D2E/DX2                !
 ! A7    A(2,3,17)             102.1731         estimate D2E/DX2                !
 ! A8    A(4,3,16)             110.304          estimate D2E/DX2                !
 ! A9    A(4,3,17)             108.6693         estimate D2E/DX2                !
 ! A10   A(16,3,17)            108.0035         estimate D2E/DX2                !
 ! A11   A(3,4,5)              119.7583         estimate D2E/DX2                !
 ! A12   A(3,4,18)             114.914          estimate D2E/DX2                !
 ! A13   A(5,4,18)             125.3263         estimate D2E/DX2                !
 ! A14   A(4,5,6)              123.7967         estimate D2E/DX2                !
 ! A15   A(4,5,19)             115.8088         estimate D2E/DX2                !
 ! A16   A(6,5,19)             120.3932         estimate D2E/DX2                !
 ! A17   A(5,6,7)              127.0894         estimate D2E/DX2                !
 ! A18   A(5,6,20)             105.9319         estimate D2E/DX2                !
 ! A19   A(7,6,20)             112.122          estimate D2E/DX2                !
 ! A20   A(6,7,8)              103.1798         estimate D2E/DX2                !
 ! A21   A(6,7,13)             148.2455         estimate D2E/DX2                !
 ! A22   A(8,7,13)             105.2634         estimate D2E/DX2                !
 ! A23   A(7,8,9)              107.1853         estimate D2E/DX2                !
 ! A24   A(7,8,21)             113.1132         estimate D2E/DX2                !
 ! A25   A(9,8,21)             130.8            estimate D2E/DX2                !
 ! A26   A(8,9,10)             120.7609         estimate D2E/DX2                !
 ! A27   A(8,9,22)             116.3943         estimate D2E/DX2                !
 ! A28   A(10,9,22)            109.7033         estimate D2E/DX2                !
 ! A29   A(9,10,11)            109.7442         estimate D2E/DX2                !
 ! A30   A(9,10,23)            114.6437         estimate D2E/DX2                !
 ! A31   A(11,10,23)           115.527          estimate D2E/DX2                !
 ! A32   A(10,11,12)           110.4966         estimate D2E/DX2                !
 ! A33   A(10,11,24)           135.3449         estimate D2E/DX2                !
 ! A34   A(12,11,24)            96.4799         estimate D2E/DX2                !
 ! A35   A(11,12,13)           133.4842         estimate D2E/DX2                !
 ! A36   A(11,12,25)            75.172          estimate D2E/DX2                !
 ! A37   A(13,12,25)           128.0443         estimate D2E/DX2                !
 ! A38   A(7,13,12)            133.1699         estimate D2E/DX2                !
 ! A39   A(7,13,26)             94.987          estimate D2E/DX2                !
 ! A40   A(12,13,26)           111.5141         estimate D2E/DX2                !
 ! D1    D(14,1,2,3)           175.2055         estimate D2E/DX2                !
 ! D2    D(15,1,2,3)            50.9676         estimate D2E/DX2                !
 ! D3    D(2,1,14,15)         -123.519          estimate D2E/DX2                !
 ! D4    D(1,2,3,4)           -175.5954         estimate D2E/DX2                !
 ! D5    D(1,2,3,16)            58.9541         estimate D2E/DX2                !
 ! D6    D(1,2,3,17)           -52.921          estimate D2E/DX2                !
 ! D7    D(2,3,4,5)            178.4546         estimate D2E/DX2                !
 ! D8    D(2,3,4,18)            -1.14           estimate D2E/DX2                !
 ! D9    D(16,3,4,5)           -59.4783         estimate D2E/DX2                !
 ! D10   D(16,3,4,18)          120.9271         estimate D2E/DX2                !
 ! D11   D(17,3,4,5)            58.7424         estimate D2E/DX2                !
 ! D12   D(17,3,4,18)         -120.8522         estimate D2E/DX2                !
 ! D13   D(3,4,5,6)           -176.9004         estimate D2E/DX2                !
 ! D14   D(3,4,5,19)             3.519          estimate D2E/DX2                !
 ! D15   D(18,4,5,6)             2.6488         estimate D2E/DX2                !
 ! D16   D(18,4,5,19)         -176.9318         estimate D2E/DX2                !
 ! D17   D(4,5,6,7)           -176.7467         estimate D2E/DX2                !
 ! D18   D(4,5,6,20)            48.2821         estimate D2E/DX2                !
 ! D19   D(19,5,6,7)             2.8156         estimate D2E/DX2                !
 ! D20   D(19,5,6,20)         -132.1556         estimate D2E/DX2                !
 ! D21   D(5,6,7,8)            148.6159         estimate D2E/DX2                !
 ! D22   D(5,6,7,13)           -58.244          estimate D2E/DX2                !
 ! D23   D(20,6,7,8)           -78.6362         estimate D2E/DX2                !
 ! D24   D(20,6,7,13)           74.5039         estimate D2E/DX2                !
 ! D25   D(6,7,8,9)           -151.8203         estimate D2E/DX2                !
 ! D26   D(6,7,8,21)            57.058          estimate D2E/DX2                !
 ! D27   D(13,7,8,9)            42.4486         estimate D2E/DX2                !
 ! D28   D(13,7,8,21)         -108.6731         estimate D2E/DX2                !
 ! D29   D(6,7,13,12)         -157.5243         estimate D2E/DX2                !
 ! D30   D(6,7,13,26)           76.5595         estimate D2E/DX2                !
 ! D31   D(8,7,13,12)           -4.6533         estimate D2E/DX2                !
 ! D32   D(8,7,13,26)         -130.5694         estimate D2E/DX2                !
 ! D33   D(7,8,9,10)          -114.2583         estimate D2E/DX2                !
 ! D34   D(7,8,9,22)            22.9134         estimate D2E/DX2                !
 ! D35   D(21,8,9,10)           29.8133         estimate D2E/DX2                !
 ! D36   D(21,8,9,22)          166.9849         estimate D2E/DX2                !
 ! D37   D(8,9,10,11)          109.5554         estimate D2E/DX2                !
 ! D38   D(8,9,10,23)          -22.3877         estimate D2E/DX2                !
 ! D39   D(22,9,10,11)         -30.1432         estimate D2E/DX2                !
 ! D40   D(22,9,10,23)        -162.0863         estimate D2E/DX2                !
 ! D41   D(9,10,11,12)         -41.9466         estimate D2E/DX2                !
 ! D42   D(9,10,11,24)          81.4044         estimate D2E/DX2                !
 ! D43   D(23,10,11,12)         89.5326         estimate D2E/DX2                !
 ! D44   D(23,10,11,24)       -147.1165         estimate D2E/DX2                !
 ! D45   D(10,11,12,13)         23.9047         estimate D2E/DX2                !
 ! D46   D(10,11,12,25)       -104.9643         estimate D2E/DX2                !
 ! D47   D(24,11,12,13)       -119.8766         estimate D2E/DX2                !
 ! D48   D(24,11,12,25)        111.2543         estimate D2E/DX2                !
 ! D49   D(11,12,13,7)         -17.4195         estimate D2E/DX2                !
 ! D50   D(11,12,13,26)        102.4418         estimate D2E/DX2                !
 ! D51   D(25,12,13,7)          89.6968         estimate D2E/DX2                !
 ! D52   D(25,12,13,26)       -150.4419         estimate D2E/DX2                !
 --------------------------------------------------------------------------------
 Trust Radius=3.00D-01 FncErr=1.00D-07 GrdErr=1.00D-06 EigMax=2.50D+02 EigMin=1.00D-04
 Number of steps in this run=    128 maximum allowed number of steps=    156.
 GradGradGradGradGradGradGradGradGradGradGradGradGradGradGradGradGradGrad

                          Input orientation:                          
 ---------------------------------------------------------------------
 Center     Atomic      Atomic             Coordinates (Angstroms)
 Number     Number       Type             X           Y           Z
 ---------------------------------------------------------------------
      1          7           0        0.881820   -0.144030    0.101230
      2          6           0        2.266280    0.076620   -0.275790
      3          6           0        3.059040    0.584370   -1.399270
      4          6           0        4.575370    0.565810   -1.442680
      5          6           0        5.232650    1.036780   -2.556270
      6         16           0        7.009320    0.992340   -2.755790
      7          6           0        8.019750    1.691710   -4.211440
      8          6           0        9.282490    2.090710   -3.580880
      9          6           0        9.805630    3.146700   -4.335100
     10          6           0       11.037560    2.990710   -5.066290
     11          6           0       10.777090    2.964110   -6.412630
     12          6           0        9.494360    2.088000   -6.711420
     13          6           0        8.337890    1.700410   -5.915710
     14          1           0        0.662890   -0.601680    0.977470
     15          1           0        0.443690   -0.667720   -0.658060
     16          1           0        2.688600    1.607470   -1.511360
     17          1           0        2.676370   -0.008750   -2.239180
     18          1           0        5.056390    0.156180   -0.551210
     19          1           0        4.605970    1.456100   -3.330160
     20          1           0        7.377460   -0.229030   -2.439330
     21          1           0        9.764160    1.296560   -3.078920
     22          1           0        9.092620    3.715100   -4.933100
     23          1           0       11.698190    2.183810   -4.691700
     24          1           0       10.592740    3.726320   -7.194520
     25          1           0       10.364850    1.444870   -7.032990
     26          1           0        7.440700    2.304270   -6.178530
 ---------------------------------------------------------------------
                    Distance matrix (angstroms):
                    1          2          3          4          5
     1  N    0.000000
     2  C    1.451744   0.000000
     3  C    2.742691   1.465771   0.000000
     4  C    4.065691   2.633028   1.517065   0.000000
     5  C    5.233196   3.862881   2.503578   1.376195   0.000000
     6  S    6.855666   5.430043   4.196582   2.798267   1.788390
     7  C    8.539269   7.155437   5.808885   4.560421   3.307030
     8  C    9.440511   8.012951   6.764600   5.390195   4.308341
     9  C   10.494966   9.096438   7.791092   6.510200   5.341174
    10  C   11.818160  10.410387   9.104630   7.795549   6.619292
    11  C   12.247746  10.882660   9.506063   8.301420   7.023313
    12  C   11.205802   9.884742   8.478985   7.367031   6.044213
    13  C    9.756972   8.444515   7.036337   5.954147   4.622635
    14  H    1.012507   2.145137   3.577309   4.746331   6.004546
    15  H    1.021142   2.005494   2.992854   4.382694   5.426109
    16  H    2.988754   2.012086   1.093857   2.156310   2.808864
    17  H    2.952326   2.007576   1.097122   2.137927   2.779972
    18  H    4.235899   2.804799   2.211777   1.092655   2.196996
    19  H    5.310758   4.087333   2.623212   2.087135   1.080492
    20  H    6.975314   5.558641   4.515761   3.078440   2.493223
    21  H    9.543826   8.097160   6.948890   5.489519   4.568942
    22  H   10.375673   9.029285   7.661169   6.519709   5.265177
    23  H   12.057565  10.625509   9.382602   7.994287   6.904994
    24  H   12.747923  11.424494  10.010665   8.904001   7.581395
    25  H   11.972868  10.635727   9.265750   8.095826   6.822539
    26  H    9.404704   8.159619   6.708079   5.801779   4.427503
                    6          7          8          9         10
     6  S    0.000000
     7  C    1.904995   0.000000
     8  C    2.656029   1.466738   0.000000
     9  C    3.867148   2.306871   1.399156   0.000000
    10  C    5.055552   3.394900   2.469152   1.441049   0.000000
    11  C    5.608605   3.750622   3.318955   2.300697   1.371562
    12  C    4.798219   2.929406   3.137702   2.620044   2.429569
    13  C    3.500222   1.733732   2.548732   2.596987   3.110403
    14  H    7.533612   9.290200  10.115583  11.218888  12.532601
    15  H    7.089694   8.694257   9.709593  10.757153  12.043533
    16  H    4.538239   5.976511   6.927902   7.809920   9.179107
    17  H    4.476999   5.944164   7.060362   8.073171   9.321953
    18  H    3.061580   4.953447   5.548083   6.768775   8.012172
    19  H    2.514173   3.533562   4.726037   5.559181   6.836265
    20  H    1.314313   2.691125   3.211459   4.570066   5.537506
    21  H    2.790360   2.117005   1.055767   2.236677   2.905397
    22  H    4.061310   2.401239   2.122073   1.090443   2.079729
    23  H    5.210840   3.742156   2.660488   2.153161   1.108078
    24  H    6.325968   4.433811   4.177364   3.021884   2.295289
    25  H    5.455163   3.677169   3.675007   3.238451   2.590380
    26  H    3.690853   2.140087   3.191486   3.114613   3.826967
                   11         12         13         14         15
    11  C    0.000000
    12  C    1.581847   0.000000
    13  C    2.791696   1.456298   0.000000
    14  H   13.024035  12.014502  10.569824   0.000000
    15  H   12.372729  11.231731   9.775956   1.651475   0.000000
    16  H    9.554402   8.578456   7.163897   3.895911   3.308207
    17  H    9.585262   8.419161   6.963541   3.840899   2.814079
    18  H    8.658356   7.834264   6.475396   4.713179   4.686921
    19  H    7.061051   5.977338   4.546645   6.191770   5.382871
    20  H    6.127050   5.301004   4.090279   7.543132   7.172345
    21  H    3.862690   3.727496   3.200737  10.143507   9.828027
    22  H    2.364410   2.443619   2.365188  11.163771  10.596654
    23  H    2.102116   2.990872   3.608808  12.715199  12.290860
    24  H    1.107385   2.030743   3.289987  13.568896  12.846638
    25  H    1.692004   1.129060   2.328558  12.746916  11.980492
    26  H    3.409060   2.132666   1.112956  10.275777   9.395023
                   16         17         18         19         20
    16  H    0.000000
    17  H    1.772580   0.000000
    18  H    2.938462   2.922489   0.000000
    19  H    2.647122   2.656949   3.100844   0.000000
    20  H    5.120475   4.710502   3.016745   3.363688   0.000000
    21  H    7.253789   7.255740   5.463779   5.166769   2.903935
    22  H    7.560548   7.892562   6.939598   5.272810   4.971602
    23  H    9.571805   9.602885   8.085076   7.258301   5.437249
    24  H    9.963095  10.058581   9.355781   7.478542   6.970986
    25  H    9.457254   9.176402   8.476670   6.846589   5.729586
    26  H    6.697049   6.600559   6.478114   4.107103   4.516993
                   21         22         23         24         25
    21  H    0.000000
    22  H    3.120623   0.000000
    23  H    2.669971   3.031851   0.000000
    24  H    4.850613   2.713762   3.140934   0.000000
    25  H    4.002186   3.343957   2.793827   2.298486   0.000000
    26  H    4.002690   2.504072   4.511252   3.604139   3.165331
                   26
    26  H    0.000000
 Stoichiometry    C11H13NS
 Framework group  C1[X(C11H13NS)]
 Deg. of freedom    72
 Full point group                 C1      NOp   1
 Largest Abelian subgroup         C1      NOp   1
 Largest concise Abelian subgroup C1      NOp   1
                         Standard orientation:                         
 ---------------------------------------------------------------------
 Center     Atomic      Atomic             Coordinates (Angstroms)
 Number     Number       Type             X           Y           Z
 ---------------------------------------------------------------------
      1          7           0       -6.985804    0.287215    0.238915
      2          6           0       -5.604847   -0.132695    0.083366
      3          6           0       -4.244902    0.380112    0.273266
      4          6           0       -2.990927   -0.381841   -0.112041
      5          6           0       -1.755954    0.195642    0.075750
      6         16           0       -0.215183   -0.569992   -0.412277
      7          6           0        1.543805    0.101416   -0.122146
      8          6           0        2.347173   -1.117129    0.022998
      9          6           0        3.435213   -0.799684    0.843386
     10          6           0        4.779868   -0.822004    0.325672
     11          6           0        5.260735    0.458909    0.229696
     12          6           0        4.146844    1.427563   -0.338809
     13          6           0        2.691469    1.379359   -0.357847
     14          1           0       -7.736624   -0.320618   -0.064365
     15          1           0       -7.081818    1.185656   -0.236812
     16          1           0       -4.227575    0.625368    1.339133
     17          1           0       -4.271503    1.320781   -0.290747
     18          1           0       -3.166802   -1.373823   -0.535048
     19          1           0       -1.757484    1.164239    0.554582
     20          1           0       -0.391229   -0.978686   -1.648965
     21          1           0        2.276236   -1.761963   -0.809949
     22          1           0        3.309892    0.058607    1.504217
     23          1           0        4.917791   -1.452571   -0.574994
     24          1           0        5.711446    1.185892    0.933014
     25          1           0        4.859585    1.269794   -1.200137
     26          1           0        2.250781    2.048803    0.414363
 ---------------------------------------------------------------------
 Rotational constants (GHZ):           3.3959993           0.1771501           0.1719920
 Standard basis: 6-31G(2df,p) (6D, 7F)
 There are   472 symmetry adapted cartesian basis functions of A   symmetry.
 There are   433 symmetry adapted basis functions of A   symmetry.
   433 basis functions,   687 primitive gaussians,   472 cartesian basis functions
    51 alpha electrons       51 beta electrons
       nuclear repulsion energy       738.2439679696 Hartrees.
 NAtoms=   26 NActive=   26 NUniq=   26 SFac= 1.00D+00 NAtFMM=   60 NAOKFM=F Big=F
 Integral buffers will be    131072 words long.
 Raffenetti 2 integral format.
 Two-electron integral symmetry is turned on.
 One-electron integrals computed using PRISM.
 PrsmSu:  requested number of processors reduced to:  13 ShMem   1 Linda.
 NBasis=   433 RedAO= T EigKep=  5.21D-04  NBF=   433
 NBsUse=   433 1.00D-06 EigRej= -1.00D+00 NBFU=   433
 ExpMin= 1.17D-01 ExpMax= 2.19D+04 ExpMxC= 3.30D+03 IAcc=3 IRadAn=         5 AccDes= 0.00D+00
 Harris functional with IExCor=  402 and IRadAn=       5 diagonalized for initial guess.
 HarFok:  IExCor=  402 AccDes= 0.00D+00 IRadAn=         5 IDoV= 1 UseB2=F ITyADJ=14
 ICtDFT=  3500011 ScaDFX=  1.000000  1.000000  1.000000  1.000000
 FoFCou: FMM=F IPFlag=           0 FMFlag=      100000 FMFlg1=           0
         NFxFlg=           0 DoJE=T BraDBF=F KetDBF=T FulRan=T
         wScrn=  0.000000 ICntrl=       500 IOpCl=  0 I1Cent=   200000004 NGrid=           0
         NMat0=    1 NMatS0=      1 NMatT0=    0 NMatD0=    1 NMtDS0=    0 NMtDT0=    0
 Petite list used in FoFCou.
 Requested convergence on RMS density matrix=1.00D-08 within 128 cycles.
 Requested convergence on MAX density matrix=1.00D-06.
 Requested convergence on             energy=1.00D-06.
 No special actions if energy rises.
 Integral accuracy reduced to 1.0D-05 until final iterations.
 EnCoef did     6 forward-backward iterations
 EnCoef did     4 forward-backward iterations
 EnCoef did     5 forward-backward iterations
 EnCoef did     9 forward-backward iterations
 EnCoef did     6 forward-backward iterations
 Initial convergence to 1.0D-05 achieved.  Increase integral accuracy.
 SCF Done:  E(RB3LYP) =  -879.253883966     A.U. after   24 cycles
            NFock= 24  Conv=0.71D-08     -V/T= 2.0066

 **********************************************************************

            Population analysis using the SCF density.

 **********************************************************************

 Orbital symmetries:
       Occupied  (A) (A) (A) (A) (A) (A) (A) (A) (A) (A) (A) (A)
                 (A) (A) (A) (A) (A) (A) (A) (A) (A) (A) (A) (A)
                 (A) (A) (A) (A) (A) (A) (A) (A) (A) (A) (A) (A)
                 (A) (A) (A) (A) (A) (A) (A) (A) (A) (A) (A) (A)
                 (A) (A) (A)
       Virtual   (A) (A) (A) (A) (A) (A) (A) (A) (A) (A) (A) (A)
                 (A) (A) (A) (A) (A) (A) (A) (A) (A) (A) (A) (A)
                 (A) (A) (A) (A) (A) (A) (A) (A) (A) (A) (A) (A)
                 (A) (A) (A) (A) (A) (A) (A) (A) (A) (A) (A) (A)
                 (A) (A) (A) (A) (A) (A) (A) (A) (A) (A) (A) (A)
                 (A) (A) (A) (A) (A) (A) (A) (A) (A) (A) (A) (A)
                 (A) (A) (A) (A) (A) (A) (A) (A) (A) (A) (A) (A)
                 (A) (A) (A) (A) (A) (A) (A) (A) (A) (A) (A) (A)
                 (A) (A) (A) (A) (A) (A) (A) (A) (A) (A) (A) (A)
                 (A) (A) (A) (A) (A) (A) (A) (A) (A) (A) (A) (A)
                 (A) (A) (A) (A) (A) (A) (A) (A) (A) (A) (A) (A)
                 (A) (A) (A) (A) (A) (A) (A) (A) (A) (A) (A) (A)
                 (A) (A) (A) (A) (A) (A) (A) (A) (A) (A) (A) (A)
                 (A) (A) (A) (A) (A) (A) (A) (A) (A) (A) (A) (A)
                 (A) (A) (A) (A) (A) (A) (A) (A) (A) (A) (A) (A)
                 (A) (A) (A) (A) (A) (A) (A) (A) (A) (A) (A) (A)
                 (A) (A) (A) (A) (A) (A) (A) (A) (A) (A) (A) (A)
                 (A) (A) (A) (A) (A) (A) (A) (A) (A) (A) (A) (A)
                 (A) (A) (A) (A) (A) (A) (A) (A) (A) (A) (A) (A)
                 (A) (A) (A) (A) (A) (A) (A) (A) (A) (A) (A) (A)
                 (A) (A) (A) (A) (A) (A) (A) (A) (A) (A) (A) (A)
                 (A) (A) (A) (A) (A) (A) (A) (A) (A) (A) (A) (A)
                 (A) (A) (A) (A) (A) (A) (A) (A) (A) (A) (A) (A)
                 (A) (A) (A) (A) (A) (A) (A) (A) (A) (A) (A) (A)
                 (A) (A) (A) (A) (A) (A) (A) (A) (A) (A) (A) (A)
                 (A) (A) (A) (A) (A) (A) (A) (A) (A) (A) (A) (A)
                 (A) (A) (A) (A) (A) (A) (A) (A) (A) (A) (A) (A)
                 (A) (A) (A) (A) (A) (A) (A) (A) (A) (A) (A) (A)
                 (A) (A) (A) (A) (A) (A) (A) (A) (A) (A) (A) (A)
                 (A) (A) (A) (A) (A) (A) (A) (A) (A) (A) (A) (A)
                 (A) (A) (A) (A) (A) (A) (A) (A) (A) (A) (A) (A)
                 (A) (A) (A) (A) (A) (A) (A) (A) (A) (A)
 The electronic state is 1-A.
 Alpha  occ. eigenvalues --  -88.96439 -14.39168 -10.25440 -10.23830 -10.23456
 Alpha  occ. eigenvalues --  -10.22544 -10.21049 -10.19287 -10.18569 -10.17782
 Alpha  occ. eigenvalues --  -10.16974 -10.16817 -10.16371  -8.02333  -5.98682
 Alpha  occ. eigenvalues --   -5.98571  -5.98008  -0.91482  -0.85873  -0.82109
 Alpha  occ. eigenvalues --   -0.80746  -0.75004  -0.72185  -0.69542  -0.61957
 Alpha  occ. eigenvalues --   -0.60184  -0.58020  -0.57283  -0.52772  -0.52049
 Alpha  occ. eigenvalues --   -0.50634  -0.49608  -0.47211  -0.46519  -0.44996
 Alpha  occ. eigenvalues --   -0.44199  -0.42733  -0.40483  -0.39350  -0.37571
 Alpha  occ. eigenvalues --   -0.36006  -0.35269  -0.33923  -0.32711  -0.31288
 Alpha  occ. eigenvalues --   -0.26981  -0.23390  -0.17840  -0.17456  -0.16619
 Alpha  occ. eigenvalues --   -0.14780
 Alpha virt. eigenvalues --   -0.07785  -0.05406  -0.05161  -0.03330  -0.01512
 Alpha virt. eigenvalues --    0.01482   0.03528   0.04988   0.06779   0.08876
 Alpha virt. eigenvalues --    0.12007   0.12668   0.13165   0.13705   0.14742
 Alpha virt. eigenvalues --    0.15503   0.15942   0.16450   0.16892   0.19062
 Alpha virt. eigenvalues --    0.19679   0.20679   0.21445   0.22878   0.24230
 Alpha virt. eigenvalues --    0.27204   0.29872   0.30303   0.32732   0.33642
 Alpha virt. eigenvalues --    0.34953   0.35786   0.36548   0.37652   0.38174
 Alpha virt. eigenvalues --    0.39867   0.43267   0.44885   0.46372   0.46797
 Alpha virt. eigenvalues --    0.47544   0.48880   0.49843   0.50190   0.51157
 Alpha virt. eigenvalues --    0.51833   0.53150   0.54633   0.55222   0.55889
 Alpha virt. eigenvalues --    0.56789   0.57156   0.57236   0.57925   0.58781
 Alpha virt. eigenvalues --    0.59887   0.60647   0.61208   0.62878   0.63265
 Alpha virt. eigenvalues --    0.65001   0.65573   0.66476   0.67059   0.67986
 Alpha virt. eigenvalues --    0.68715   0.69748   0.70066   0.71022   0.72325
 Alpha virt. eigenvalues --    0.73412   0.73933   0.74245   0.74758   0.75518
 Alpha virt. eigenvalues --    0.75953   0.76137   0.77644   0.78482   0.79223
 Alpha virt. eigenvalues --    0.79500   0.80124   0.80348   0.81378   0.81746
 Alpha virt. eigenvalues --    0.82607   0.83320   0.85143   0.85298   0.85988
 Alpha virt. eigenvalues --    0.87464   0.88120   0.88389   0.88748   0.90873
 Alpha virt. eigenvalues --    0.92823   0.95671   0.95801   0.96470   0.98585
 Alpha virt. eigenvalues --    1.00205   1.00725   1.03382   1.05124   1.05487
 Alpha virt. eigenvalues --    1.10069   1.11006   1.13144   1.14599   1.15094
 Alpha virt. eigenvalues --    1.16073   1.18047   1.21035   1.21853   1.25111
 Alpha virt. eigenvalues --    1.26670   1.29321   1.30576   1.32897   1.34279
 Alpha virt. eigenvalues --    1.34491   1.38437   1.41046   1.41753   1.43987
 Alpha virt. eigenvalues --    1.44420   1.45070   1.46174   1.46871   1.47484
 Alpha virt. eigenvalues --    1.47820   1.51293   1.53023   1.53755   1.54376
 Alpha virt. eigenvalues --    1.55763   1.57242   1.58198   1.60789   1.63838
 Alpha virt. eigenvalues --    1.66717   1.67264   1.68185   1.69834   1.70362
 Alpha virt. eigenvalues --    1.71422   1.74055   1.74983   1.76051   1.78714
 Alpha virt. eigenvalues --    1.79301   1.80242   1.81144   1.83777   1.85760
 Alpha virt. eigenvalues --    1.86379   1.87357   1.88925   1.90866   1.92001
 Alpha virt. eigenvalues --    1.93838   1.96477   1.99589   2.00443   2.02123
 Alpha virt. eigenvalues --    2.03386   2.07505   2.09939   2.11361   2.13698
 Alpha virt. eigenvalues --    2.16380   2.17537   2.18596   2.18983   2.21801
 Alpha virt. eigenvalues --    2.24724   2.26932   2.28691   2.30949   2.32450
 Alpha virt. eigenvalues --    2.34694   2.35384   2.38877   2.41580   2.42429
 Alpha virt. eigenvalues --    2.45304   2.45483   2.46962   2.48913   2.49663
 Alpha virt. eigenvalues --    2.50793   2.54694   2.57561   2.60101   2.61307
 Alpha virt. eigenvalues --    2.61916   2.63124   2.64829   2.66392   2.68783
 Alpha virt. eigenvalues --    2.69531   2.70035   2.72929   2.73773   2.75180
 Alpha virt. eigenvalues --    2.76304   2.77511   2.78639   2.80389   2.81706
 Alpha virt. eigenvalues --    2.81903   2.84016   2.84990   2.85497   2.86880
 Alpha virt. eigenvalues --    2.88829   2.90018   2.91389   2.92780   2.95995
 Alpha virt. eigenvalues --    2.97331   2.97691   2.99539   3.00270   3.02187
 Alpha virt. eigenvalues --    3.03468   3.03838   3.04548   3.05487   3.07257
 Alpha virt. eigenvalues --    3.08850   3.09286   3.10981   3.11786   3.12161
 Alpha virt. eigenvalues --    3.13946   3.16069   3.17470   3.20513   3.21115
 Alpha virt. eigenvalues --    3.22613   3.22856   3.24711   3.27447   3.28330
 Alpha virt. eigenvalues --    3.28635   3.31409   3.33480   3.34444   3.35120
 Alpha virt. eigenvalues --    3.35968   3.38071   3.40814   3.42725   3.43237
 Alpha virt. eigenvalues --    3.45156   3.45840   3.47019   3.48767   3.50472
 Alpha virt. eigenvalues --    3.53876   3.56292   3.56751   3.58389   3.61738
 Alpha virt. eigenvalues --    3.63883   3.64672   3.65352   3.66217   3.67434
 Alpha virt. eigenvalues --    3.69553   3.70221   3.72807   3.74358   3.76372
 Alpha virt. eigenvalues --    3.79033   3.80502   3.82462   3.85860   3.87144
 Alpha virt. eigenvalues --    3.91288   3.96678   3.99502   4.00233   4.03344
 Alpha virt. eigenvalues --    4.04954   4.07297   4.10283   4.13116   4.13583
 Alpha virt. eigenvalues --    4.15129   4.16157   4.18958   4.23284   4.25406
 Alpha virt. eigenvalues --    4.25829   4.27195   4.29055   4.30314   4.32323
 Alpha virt. eigenvalues --    4.33223   4.36426   4.37780   4.38196   4.40113
 Alpha virt. eigenvalues --    4.40375   4.41552   4.44365   4.45622   4.46541
 Alpha virt. eigenvalues --    4.47955   4.50150   4.50878   4.51078   4.52702
 Alpha virt. eigenvalues --    4.54634   4.55036   4.55773   4.56345   4.57049
 Alpha virt. eigenvalues --    4.59518   4.60387   4.61823   4.65100   4.65822
 Alpha virt. eigenvalues --    4.67726   4.69128   4.69745   4.73240   4.74539
 Alpha virt. eigenvalues --    4.75183   4.78279   4.78726   4.80728   4.81504
 Alpha virt. eigenvalues --    4.82737   4.85154   4.85848   4.87648   4.89448
 Alpha virt. eigenvalues --    4.90475   4.93893   4.95312   4.96650   4.97448
 Alpha virt. eigenvalues --    4.99148   5.01427   5.04574   5.06323   5.07460
 Alpha virt. eigenvalues --    5.07732   5.09378   5.13968   5.15644   5.21806
 Alpha virt. eigenvalues --    5.28138   5.32403   5.33811   5.37005   5.37978
 Alpha virt. eigenvalues --    5.41819   5.46118   5.50134   5.51868   5.59660
 Alpha virt. eigenvalues --    5.65591   5.66259   5.89365   5.90728   9.43623
 Alpha virt. eigenvalues --   10.36490  10.39294  10.73229  10.79916  10.86627
 Alpha virt. eigenvalues --   11.31405  11.40253  11.41313  11.66958  11.83873
 Alpha virt. eigenvalues --   11.97727  12.12186
          Condensed to atoms (all electrons):
               1          2          3          4          5          6
     1  N    6.365961   0.444483  -0.015084   0.000776  -0.000048   0.000001
     2  C    0.444483   5.362090   0.460388  -0.043082   0.002755  -0.000113
     3  C   -0.015084   0.460388   4.837537   0.393004  -0.000530   0.001652
     4  C    0.000776  -0.043082   0.393004   5.010564   0.507884  -0.024176
     5  C   -0.000048   0.002755  -0.000530   0.507884   5.047912   0.299634
     6  S    0.000001  -0.000113   0.001652  -0.024176   0.299634  15.376897
     7  C   -0.000000   0.000000  -0.000011   0.000699  -0.012264   0.269350
     8  C    0.000000  -0.000000   0.000000   0.000012   0.000670  -0.068092
     9  C   -0.000000  -0.000000  -0.000000  -0.000000  -0.000043  -0.000056
    10  C    0.000000  -0.000000   0.000000   0.000000  -0.000000  -0.000339
    11  C    0.000000  -0.000000   0.000000   0.000000   0.000000  -0.000139
    12  C   -0.000000  -0.000000   0.000000  -0.000000  -0.000001   0.000979
    13  C    0.000000  -0.000000   0.000000  -0.000001   0.000170  -0.015849
    14  H    0.366347  -0.050918   0.002421  -0.000012  -0.000003  -0.000000
    15  H    0.310172  -0.046686  -0.005871  -0.000442   0.000030   0.000000
    16  H   -0.002647  -0.023241   0.330568  -0.050574  -0.000263   0.000186
    17  H   -0.005099  -0.059644   0.319821  -0.071499   0.002630   0.000088
    18  H   -0.000083   0.010202  -0.049362   0.344875  -0.037186  -0.000310
    19  H   -0.000001  -0.000025  -0.009402  -0.035527   0.356547  -0.038970
    20  H   -0.000000   0.000002  -0.000004  -0.001678  -0.028134   0.168205
    21  H    0.000000   0.000000  -0.000000   0.000009  -0.000103  -0.013070
    22  H   -0.000000   0.000000  -0.000000   0.000000  -0.000005   0.000494
    23  H    0.000000  -0.000000   0.000000   0.000000  -0.000000  -0.000064
    24  H    0.000000  -0.000000  -0.000000   0.000000  -0.000000  -0.000003
    25  H   -0.000000   0.000000  -0.000000   0.000000  -0.000000  -0.000027
    26  H   -0.000000   0.000000  -0.000000  -0.000000   0.000056   0.001735
               7          8          9         10         11         12
     1  N   -0.000000   0.000000  -0.000000   0.000000   0.000000  -0.000000
     2  C    0.000000  -0.000000  -0.000000  -0.000000  -0.000000  -0.000000
     3  C   -0.000011   0.000000  -0.000000   0.000000   0.000000   0.000000
     4  C    0.000699   0.000012  -0.000000   0.000000   0.000000  -0.000000
     5  C   -0.012264   0.000670  -0.000043  -0.000000   0.000000  -0.000001
     6  S    0.269350  -0.068092  -0.000056  -0.000339  -0.000139   0.000979
     7  C    5.241908   0.466766  -0.027454  -0.003490   0.002108  -0.014337
     8  C    0.466766   4.846090   0.597031  -0.046649  -0.003660  -0.023998
     9  C   -0.027454   0.597031   4.855128   0.502055  -0.048709  -0.037318
    10  C   -0.003490  -0.046649   0.502055   5.015066   0.503922  -0.059810
    11  C    0.002108  -0.003660  -0.048709   0.503922   5.218035   0.301996
    12  C   -0.014337  -0.023998  -0.037318  -0.059810   0.301996   5.251699
    13  C    0.338479  -0.024462  -0.019612  -0.038167  -0.060513   0.582393
    14  H    0.000000  -0.000000  -0.000000  -0.000000  -0.000000  -0.000000
    15  H    0.000000  -0.000000   0.000000   0.000000  -0.000000   0.000000
    16  H    0.000001  -0.000000   0.000000  -0.000000   0.000000  -0.000000
    17  H    0.000001  -0.000000   0.000000   0.000000  -0.000000   0.000000
    18  H    0.000035  -0.000001   0.000000  -0.000000  -0.000000  -0.000000
    19  H    0.000861  -0.000011   0.000002  -0.000000   0.000000  -0.000000
    20  H   -0.016764   0.005696   0.000141   0.000034  -0.000000   0.000029
    21  H   -0.067595   0.363933  -0.034636  -0.005068  -0.000488  -0.000294
    22  H   -0.007335  -0.033284   0.352626  -0.050930  -0.012111  -0.006747
    23  H   -0.000855  -0.011605  -0.048102   0.360462  -0.048317  -0.006601
    24  H   -0.000011  -0.000172   0.000673  -0.020846   0.351573  -0.066471
    25  H   -0.000982   0.001973   0.006646   0.001508  -0.022282   0.267779
    26  H   -0.044201   0.001696   0.003194   0.000913  -0.001817  -0.041719
              13         14         15         16         17         18
     1  N    0.000000   0.366347   0.310172  -0.002647  -0.005099  -0.000083
     2  C   -0.000000  -0.050918  -0.046686  -0.023241  -0.059644   0.010202
     3  C    0.000000   0.002421  -0.005871   0.330568   0.319821  -0.049362
     4  C   -0.000001  -0.000012  -0.000442  -0.050574  -0.071499   0.344875
     5  C    0.000170  -0.000003   0.000030  -0.000263   0.002630  -0.037186
     6  S   -0.015849  -0.000000   0.000000   0.000186   0.000088  -0.000310
     7  C    0.338479   0.000000   0.000000   0.000001   0.000001   0.000035
     8  C   -0.024462  -0.000000  -0.000000  -0.000000  -0.000000  -0.000001
     9  C   -0.019612  -0.000000   0.000000   0.000000   0.000000   0.000000
    10  C   -0.038167  -0.000000   0.000000  -0.000000   0.000000  -0.000000
    11  C   -0.060513  -0.000000  -0.000000   0.000000  -0.000000  -0.000000
    12  C    0.582393  -0.000000   0.000000  -0.000000   0.000000  -0.000000
    13  C    5.184908  -0.000000  -0.000000   0.000000  -0.000000  -0.000000
    14  H   -0.000000   0.448836  -0.049179  -0.000241  -0.000540  -0.000021
    15  H   -0.000000  -0.049179   0.544480   0.002191   0.007891   0.000065
    16  H    0.000000  -0.000241   0.002191   0.564588   0.003547   0.005623
    17  H   -0.000000  -0.000540   0.007891   0.003547   0.673289   0.007156
    18  H   -0.000000  -0.000021   0.000065   0.005623   0.007156   0.579305
    19  H    0.000039  -0.000000   0.000005   0.004771   0.005022   0.006087
    20  H   -0.000036  -0.000000   0.000000  -0.000008   0.000037   0.001231
    21  H    0.003799   0.000000   0.000000  -0.000000   0.000000   0.000001
    22  H    0.000880   0.000000   0.000000   0.000000   0.000000   0.000000
    23  H   -0.001113  -0.000000  -0.000000  -0.000000  -0.000000   0.000000
    24  H   -0.003094   0.000000  -0.000000  -0.000000   0.000000   0.000000
    25  H   -0.019032   0.000000   0.000000  -0.000000   0.000000   0.000000
    26  H    0.344480   0.000000   0.000000  -0.000000   0.000000  -0.000000
              19         20         21         22         23         24
     1  N   -0.000001  -0.000000   0.000000  -0.000000   0.000000   0.000000
     2  C   -0.000025   0.000002   0.000000   0.000000  -0.000000  -0.000000
     3  C   -0.009402  -0.000004  -0.000000  -0.000000   0.000000  -0.000000
     4  C   -0.035527  -0.001678   0.000009   0.000000   0.000000   0.000000
     5  C    0.356547  -0.028134  -0.000103  -0.000005  -0.000000  -0.000000
     6  S   -0.038970   0.168205  -0.013070   0.000494  -0.000064  -0.000003
     7  C    0.000861  -0.016764  -0.067595  -0.007335  -0.000855  -0.000011
     8  C   -0.000011   0.005696   0.363933  -0.033284  -0.011605  -0.000172
     9  C    0.000002   0.000141  -0.034636   0.352626  -0.048102   0.000673
    10  C   -0.000000   0.000034  -0.005068  -0.050930   0.360462  -0.020846
    11  C    0.000000  -0.000000  -0.000488  -0.012111  -0.048317   0.351573
    12  C   -0.000000   0.000029  -0.000294  -0.006747  -0.006601  -0.066471
    13  C    0.000039  -0.000036   0.003799   0.000880  -0.001113  -0.003094
    14  H   -0.000000  -0.000000   0.000000   0.000000  -0.000000   0.000000
    15  H    0.000005   0.000000   0.000000   0.000000  -0.000000  -0.000000
    16  H    0.004771  -0.000008  -0.000000   0.000000  -0.000000  -0.000000
    17  H    0.005022   0.000037   0.000000   0.000000  -0.000000   0.000000
    18  H    0.006087   0.001231   0.000001   0.000000   0.000000   0.000000
    19  H    0.560122   0.001396   0.000003   0.000001   0.000000   0.000000
    20  H    0.001396   0.706703   0.003920   0.000009   0.000004   0.000000
    21  H    0.000003   0.003920   0.647948   0.006511   0.005481   0.000023
    22  H    0.000001   0.000009   0.006511   0.628527   0.007249   0.003020
    23  H    0.000000   0.000004   0.005481   0.007249   0.648761   0.004370
    24  H    0.000000   0.000000   0.000023   0.003020   0.004370   0.589131
    25  H    0.000000   0.000002   0.000290   0.000928  -0.002975   0.001399
    26  H   -0.000014  -0.000031  -0.000132   0.000755  -0.000044  -0.000429
              25         26
     1  N   -0.000000  -0.000000
     2  C    0.000000   0.000000
     3  C   -0.000000  -0.000000
     4  C    0.000000  -0.000000
     5  C   -0.000000   0.000056
     6  S   -0.000027   0.001735
     7  C   -0.000982  -0.044201
     8  C    0.001973   0.001696
     9  C    0.006646   0.003194
    10  C    0.001508   0.000913
    11  C   -0.022282  -0.001817
    12  C    0.267779  -0.041719
    13  C   -0.019032   0.344480
    14  H    0.000000   0.000000
    15  H    0.000000   0.000000
    16  H   -0.000000  -0.000000
    17  H    0.000000   0.000000
    18  H    0.000000  -0.000000
    19  H    0.000000  -0.000014
    20  H    0.000002  -0.000031
    21  H    0.000290  -0.000132
    22  H    0.000928   0.000755
    23  H   -0.002975  -0.000044
    24  H    0.001399  -0.000429
    25  H    0.597688   0.003119
    26  H    0.003119   0.601454
 Mulliken charges:
               1
     1  N   -0.464777
     2  C   -0.056210
     3  C   -0.265128
     4  C   -0.030831
     5  C   -0.139710
     6  S    0.041986
     7  C   -0.124908
     8  C   -0.071935
     9  C   -0.101566
    10  C   -0.158658
    11  C   -0.179597
    12  C   -0.147581
    13  C   -0.273270
    14  H    0.283310
    15  H    0.237342
    16  H    0.165498
    17  H    0.117300
    18  H    0.132383
    19  H    0.149095
    20  H    0.159245
    21  H    0.089467
    22  H    0.109412
    23  H    0.093349
    24  H    0.140835
    25  H    0.163966
    26  H    0.130982
 Sum of Mulliken charges =  -0.00000
 Mulliken charges with hydrogens summed into heavy atoms:
               1
     1  N    0.055875
     2  C   -0.056210
     3  C    0.017670
     4  C    0.101552
     5  C    0.009385
     6  S    0.201232
     7  C   -0.124908
     8  C    0.017532
     9  C    0.007846
    10  C   -0.065310
    11  C   -0.038761
    12  C    0.016386
    13  C   -0.142288
 Electronic spatial extent (au):  <R**2>=           6003.3360
 Charge=             -0.0000 electrons
 Dipole moment (field-independent basis, Debye):
    X=             -8.3797    Y=              0.6813    Z=             -1.6334  Tot=              8.5646
 Quadrupole moment (field-independent basis, Debye-Ang):
   XX=            -71.9501   YY=            -88.8959   ZZ=            -84.4637
   XY=            -11.0839   XZ=              4.1703   YZ=              6.3869
 Traceless Quadrupole moment (field-independent basis, Debye-Ang):
   XX=              9.8198   YY=             -7.1260   ZZ=             -2.6938
   XY=            -11.0839   XZ=              4.1703   YZ=              6.3869
 Octapole moment (field-independent basis, Debye-Ang**2):
  XXX=           -350.7925  YYY=             -5.4907  ZZZ=             -3.2216  XYY=            -30.4601
  XXY=             52.5824  XXZ=            -47.5683  XZZ=            -11.2316  YZZ=             -2.4164
  YYZ=             -1.8785  XYZ=             17.6883
 Hexadecapole moment (field-independent basis, Debye-Ang**3):
 XXXX=          -5970.0340 YYYY=           -463.6222 ZZZZ=           -187.3784 XXXY=           -245.7956
 XXXZ=            290.5848 YYYX=            -64.2716 YYYZ=             25.2214 ZZZX=             -3.0184
 ZZZY=             16.9894 XXYY=          -1393.0995 XXZZ=          -1328.4336 YYZZ=           -106.6372
 XXYZ=             25.2264 YYXZ=              9.6034 ZZXY=             -2.2471
 N-N= 7.382439679696D+02 E-N=-3.536766599150D+03  KE= 8.734989379669D+02
 PrsmSu:  requested number of processors reduced to:  13 ShMem   1 Linda.
 Calling FoFJK, ICntrl=      2127 FMM=F ISym2X=0 I1Cent= 0 IOpClX= 0 NMat=1 NMatS=1 NMatT=0.
 ***** Axes restored to original set *****
 -------------------------------------------------------------------
 Center     Atomic                   Forces (Hartrees/Bohr)
 Number     Number              X              Y              Z
 -------------------------------------------------------------------
      1        7           0.079861124    0.002500489   -0.083242263
      2        6          -0.018003135   -0.003658794    0.110931238
      3        6          -0.055268782   -0.017032282   -0.018228849
      4        6           0.020711871    0.008954790   -0.013658214
      5        6          -0.026505914   -0.029557057    0.033609440
      6       16           0.017320527    0.039621954   -0.020680514
      7        6           0.048700888    0.022007551   -0.018363903
      8        6          -0.061683787    0.006394545   -0.031689106
      9        6           0.044916332   -0.000720082   -0.005856517
     10        6          -0.019491404   -0.011177071    0.064761225
     11        6          -0.053229498    0.019593950   -0.047690727
     12        6           0.000429810   -0.014994305    0.042378297
     13        6          -0.025498000    0.007985078    0.042496126
     14        1           0.017083351    0.001114123    0.004908754
     15        1          -0.022436021    0.011477704   -0.001004754
     16        1          -0.002602027    0.005918603   -0.007294906
     17        1           0.004254441    0.006529546   -0.022138244
     18        1           0.003112898    0.000024263   -0.005829875
     19        1           0.008218827    0.002220624   -0.009844409
     20        1          -0.009072516   -0.033432891    0.003694529
     21        1           0.027390140   -0.001180412    0.022374525
     22        1          -0.003143318    0.004497684    0.014923476
     23        1          -0.004842122    0.006515311   -0.002306644
     24        1           0.031357196   -0.007541221   -0.001194834
     25        1          -0.012158721   -0.012637504   -0.035340643
     26        1           0.010577840   -0.013424595   -0.015713205
 -------------------------------------------------------------------
 Cartesian Forces:  Max     0.110931238 RMS     0.029504219

 GradGradGradGradGradGradGradGradGradGradGradGradGradGradGradGradGradGrad
 Berny optimization.
 FormGI is forming the generalized inverse of G from B-inverse, IUseBI=4.
 Internal  Forces:  Max     0.096869287 RMS     0.020735117
 Search for a local minimum.
 Step number   1 out of a maximum of  128
 All quantities printed in internal units (Hartrees-Bohrs-Radians)
 Mixed Optimization -- RFO/linear search
 Second derivative matrix not updated -- first step.
 ITU=  0
     Eigenvalues ---    0.00230   0.00524   0.00525   0.00540   0.00766
     Eigenvalues ---    0.00964   0.01007   0.01219   0.01382   0.01424
     Eigenvalues ---    0.01618   0.01853   0.02128   0.02361   0.02404
     Eigenvalues ---    0.02594   0.02881   0.03414   0.03460   0.04289
     Eigenvalues ---    0.04605   0.05606   0.06863   0.09422   0.11184
     Eigenvalues ---    0.12095   0.12812   0.13088   0.13629   0.14014
     Eigenvalues ---    0.14125   0.14208   0.14778   0.15308   0.16000
     Eigenvalues ---    0.16000   0.16000   0.16820   0.19327   0.19845
     Eigenvalues ---    0.22000   0.22000   0.22123   0.22239   0.22689
     Eigenvalues ---    0.22964   0.23598   0.24992   0.25000   0.27053
     Eigenvalues ---    0.28589   0.30651   0.30663   0.32289   0.32804
     Eigenvalues ---    0.32878   0.34002   0.34371   0.34508   0.34762
     Eigenvalues ---    0.35177   0.35935   0.36251   0.36559   0.38017
     Eigenvalues ---    0.38668   0.39088   0.44156   0.44280   0.45555
     Eigenvalues ---    0.49717   0.49804
 RFO step:  Lambda=-1.39742358D-01 EMin= 2.30000000D-03
 Linear search not attempted -- first point.
 Maximum step size (   0.300) exceeded in Quadratic search.
    -- Step size scaled by   0.551
 Iteration  1 RMS(Cart)=  0.12372877 RMS(Int)=  0.00299679
 Iteration  2 RMS(Cart)=  0.00624421 RMS(Int)=  0.00030719
 Iteration  3 RMS(Cart)=  0.00000825 RMS(Int)=  0.00030712
 Iteration  4 RMS(Cart)=  0.00000000 RMS(Int)=  0.00030712
 Variable       Old X    -DE/DX   Delta X   Delta X   Delta X     New X
                                 (Linear)    (Quad)   (Total)
    R1        2.74340  -0.09395   0.00000  -0.09953  -0.09953   2.64387
    R2        1.91336   0.00005   0.00000   0.00005   0.00005   1.91341
    R3        1.92968   0.00449   0.00000   0.00425   0.00425   1.93393
    R4        2.76991  -0.01031   0.00000  -0.01130  -0.01130   2.75860
    R5        2.86684  -0.00326   0.00000  -0.00403  -0.00403   2.86281
    R6        2.06709   0.00716   0.00000   0.00816   0.00816   2.07525
    R7        2.07326   0.01193   0.00000   0.01370   0.01370   2.08696
    R8        2.60063  -0.04695   0.00000  -0.04054  -0.04054   2.56009
    R9        2.06482  -0.00340   0.00000  -0.00386  -0.00386   2.06096
   R10        3.37957  -0.00997   0.00000  -0.01339  -0.01339   3.36618
   R11        2.04183   0.00315   0.00000   0.00347   0.00347   2.04531
   R12        3.59992  -0.02888   0.00000  -0.04777  -0.04777   3.55215
   R13        2.48369   0.02942   0.00000   0.03807   0.03807   2.52176
   R14        2.77173  -0.02460   0.00000  -0.02579  -0.02568   2.74605
   R15        3.27628  -0.04573   0.00000  -0.08431  -0.08437   3.19191
   R16        2.64402  -0.01291   0.00000  -0.01038  -0.01022   2.63380
   R17        1.99511   0.02402   0.00000   0.02493   0.02493   2.02004
   R18        2.72319  -0.03593   0.00000  -0.03567  -0.03557   2.68762
   R19        2.06064  -0.00378   0.00000  -0.00428  -0.00428   2.05636
   R20        2.59188   0.05709   0.00000   0.04896   0.04897   2.64085
   R21        2.09396  -0.00841   0.00000  -0.00990  -0.00990   2.08406
   R22        2.98926   0.00535   0.00000   0.00537   0.00522   2.99448
   R23        2.09265  -0.00957   0.00000  -0.01125  -0.01125   2.08141
   R24        2.75200  -0.02486   0.00000  -0.02843  -0.02858   2.72343
   R25        2.13361   0.00789   0.00000   0.00974   0.00974   2.14335
   R26        2.10318  -0.01210   0.00000  -0.01441  -0.01441   2.08878
    A1        2.09399  -0.03501   0.00000  -0.06041  -0.06005   2.03395
    A2        1.86922   0.02745   0.00000   0.05796   0.05837   1.92759
    A3        1.89538   0.00549   0.00000   0.01406   0.01467   1.91005
    A4        2.44571  -0.09687   0.00000  -0.13689  -0.13689   2.30882
    A5        2.16311  -0.04490   0.00000  -0.06716  -0.06703   2.09608
    A6        1.79197   0.01528   0.00000   0.02088   0.02038   1.81235
    A7        1.78326   0.03100   0.00000   0.05818   0.05833   1.84158
    A8        1.92517   0.00858   0.00000   0.00817   0.00803   1.93320
    A9        1.89664   0.00130   0.00000   0.00016   0.00082   1.89746
   A10        1.88502  -0.00790   0.00000  -0.01485  -0.01529   1.86972
   A11        2.09018   0.00242   0.00000   0.00370   0.00370   2.09388
   A12        2.00563   0.00417   0.00000   0.00804   0.00804   2.01367
   A13        2.18736  -0.00659   0.00000  -0.01173  -0.01173   2.17562
   A14        2.16066  -0.00578   0.00000  -0.00885  -0.00886   2.15180
   A15        2.02124   0.01568   0.00000   0.02793   0.02793   2.04917
   A16        2.10126  -0.00991   0.00000  -0.01910  -0.01910   2.08215
   A17        2.21813  -0.02453   0.00000  -0.04063  -0.04115   2.17698
   A18        1.84886  -0.01127   0.00000  -0.03255  -0.03294   1.81592
   A19        1.95690   0.02042   0.00000   0.03007   0.02883   1.98573
   A20        1.80083   0.02045   0.00000   0.02889   0.02906   1.82989
   A21        2.58737  -0.05696   0.00000  -0.08727  -0.08751   2.49986
   A22        1.83719   0.03233   0.00000   0.05210   0.05255   1.88974
   A23        1.87074  -0.00985   0.00000  -0.00812  -0.00772   1.86301
   A24        1.97420   0.01809   0.00000   0.03016   0.02974   2.00394
   A25        2.28289  -0.01283   0.00000  -0.03310  -0.03312   2.24977
   A26        2.10768  -0.01873   0.00000  -0.03290  -0.03266   2.07501
   A27        2.03146   0.00129   0.00000  -0.00067  -0.00073   2.03073
   A28        1.91468   0.01039   0.00000   0.01827   0.01799   1.93268
   A29        1.91540   0.00490   0.00000   0.01500   0.01516   1.93056
   A30        2.00091  -0.00141   0.00000  -0.00641  -0.00648   1.99443
   A31        2.01633  -0.00237   0.00000  -0.00614  -0.00608   2.01025
   A32        1.92853  -0.00418   0.00000  -0.00233  -0.00255   1.92598
   A33        2.36221  -0.00390   0.00000   0.00006  -0.00056   2.36166
   A34        1.68389   0.01887   0.00000   0.04029   0.04001   1.72390
   A35        2.32974  -0.01419   0.00000  -0.02312  -0.02326   2.30648
   A36        1.31200   0.02261   0.00000   0.04816   0.04828   1.36028
   A37        2.23479  -0.00396   0.00000   0.00226   0.00251   2.23731
   A38        2.32425  -0.00136   0.00000  -0.00140  -0.00148   2.32278
   A39        1.65784   0.01416   0.00000   0.02989   0.02989   1.68772
   A40        1.94629  -0.00704   0.00000  -0.01021  -0.01028   1.93601
    D1        3.05791  -0.00951   0.00000  -0.03255  -0.03298   3.02494
    D2        0.88955  -0.01523   0.00000  -0.05839  -0.05796   0.83159
    D3       -2.15581  -0.01584   0.00000  -0.04634  -0.04632  -2.20213
    D4       -3.06472  -0.00416   0.00000  -0.01611  -0.01562  -3.08033
    D5        1.02894   0.00247   0.00000   0.00239   0.00290   1.03184
    D6       -0.92365  -0.00417   0.00000  -0.00753  -0.00853  -0.93218
    D7        3.11462   0.00617   0.00000   0.01717   0.01710   3.13172
    D8       -0.01990   0.00570   0.00000   0.01546   0.01538  -0.00451
    D9       -1.03809  -0.00095   0.00000  -0.00119  -0.00103  -1.03913
   D10        2.11058  -0.00142   0.00000  -0.00290  -0.00275   2.10782
   D11        1.02525  -0.00477   0.00000  -0.01438  -0.01446   1.01079
   D12       -2.10927  -0.00524   0.00000  -0.01609  -0.01618  -2.12545
   D13       -3.08750  -0.00352   0.00000  -0.01194  -0.01196  -3.09946
   D14        0.06142  -0.00229   0.00000  -0.00766  -0.00763   0.05379
   D15        0.04623  -0.00294   0.00000  -0.00994  -0.00998   0.03625
   D16       -3.08804  -0.00172   0.00000  -0.00567  -0.00564  -3.09369
   D17       -3.08481  -0.00375   0.00000  -0.01748  -0.01681  -3.10162
   D18        0.84268   0.00507   0.00000   0.02233   0.02161   0.86429
   D19        0.04914  -0.00492   0.00000  -0.02175  -0.02103   0.02811
   D20       -2.30655   0.00390   0.00000   0.01805   0.01738  -2.28917
   D21        2.59384   0.00712   0.00000   0.02478   0.02515   2.61898
   D22       -1.01655   0.01317   0.00000   0.03490   0.03529  -0.98126
   D23       -1.37246  -0.01488   0.00000  -0.04151  -0.04190  -1.41436
   D24        1.30034  -0.00883   0.00000  -0.03139  -0.03176   1.26858
   D25       -2.64976  -0.01751   0.00000  -0.03658  -0.03623  -2.68599
   D26        0.99585  -0.00598   0.00000  -0.00844  -0.00793   0.98792
   D27        0.74087   0.00510   0.00000  -0.00218  -0.00242   0.73845
   D28       -1.89670   0.01663   0.00000   0.02595   0.02588  -1.87082
   D29       -2.74932   0.00489   0.00000   0.02266   0.02303  -2.72629
   D30        1.33622  -0.00021   0.00000   0.00339   0.00357   1.33979
   D31       -0.08121   0.00895   0.00000   0.02908   0.02897  -0.05224
   D32       -2.27887   0.00384   0.00000   0.00981   0.00952  -2.26935
   D33       -1.99418   0.01816   0.00000   0.05646   0.05601  -1.93817
   D34        0.39991   0.01299   0.00000   0.04324   0.04314   0.44305
   D35        0.52034   0.01663   0.00000   0.04953   0.04961   0.56995
   D36        2.91444   0.01145   0.00000   0.03631   0.03674   2.95117
   D37        1.91210  -0.00533   0.00000  -0.01443  -0.01419   1.89791
   D38       -0.39074  -0.00532   0.00000  -0.01408  -0.01398  -0.40472
   D39       -0.52610   0.00202   0.00000   0.00350   0.00369  -0.52241
   D40       -2.82894   0.00203   0.00000   0.00385   0.00389  -2.82505
   D41       -0.73211  -0.01264   0.00000  -0.03243  -0.03237  -0.76447
   D42        1.42077   0.01101   0.00000   0.03703   0.03694   1.45771
   D43        1.56264  -0.01210   0.00000  -0.03280  -0.03265   1.52999
   D44       -2.56767   0.01155   0.00000   0.03667   0.03665  -2.53101
   D45        0.41722  -0.00145   0.00000   0.00230   0.00235   0.41956
   D46       -1.83197  -0.01243   0.00000  -0.03954  -0.03917  -1.87114
   D47       -2.09224  -0.00839   0.00000  -0.02787  -0.02831  -2.12055
   D48        1.94175  -0.01936   0.00000  -0.06971  -0.06983   1.87192
   D49       -0.30403  -0.00905   0.00000  -0.01902  -0.01908  -0.32311
   D50        1.78795   0.00438   0.00000   0.01684   0.01675   1.80469
   D51        1.56550   0.01032   0.00000   0.04334   0.04340   1.60890
   D52       -2.62571   0.02374   0.00000   0.07920   0.07922  -2.54649
         Item               Value     Threshold  Converged?
 Maximum Force            0.096869     0.000450     NO 
 RMS     Force            0.020735     0.000300     NO 
 Maximum Displacement     0.441572     0.001800     NO 
 RMS     Displacement     0.126665     0.001200     NO 
 Predicted change in Energy=-6.536629D-02
 GradGradGradGradGradGradGradGradGradGradGradGradGradGradGradGradGradGrad

                          Input orientation:                          
 ---------------------------------------------------------------------
 Center     Atomic      Atomic             Coordinates (Angstroms)
 Number     Number       Type             X           Y           Z
 ---------------------------------------------------------------------
      1          7           0        1.005317   -0.124282   -0.058255
      2          6           0        2.371625    0.044799   -0.307307
      3          6           0        3.102210    0.585984   -1.449390
      4          6           0        4.616985    0.567032   -1.460383
      5          6           0        5.292245    1.059506   -2.526599
      6         16           0        7.068201    1.024858   -2.660116
      7          6           0        8.048998    1.750197   -4.090241
      8          6           0        9.316865    2.153210   -3.505665
      9          6           0        9.814468    3.185723   -4.298659
     10          6           0       10.972414    2.947846   -5.089418
     11          6           0       10.638207    2.885433   -6.444909
     12          6           0        9.326243    2.020690   -6.649755
     13          6           0        8.231688    1.700317   -5.768678
     14          1           0        0.758052   -0.627113    0.785096
     15          1           0        0.546858   -0.561277   -0.862109
     16          1           0        2.725037    1.613405   -1.539594
     17          1           0        2.734420    0.026241   -2.327487
     18          1           0        5.085434    0.135809   -0.574922
     19          1           0        4.709684    1.502315   -3.324082
     20          1           0        7.389980   -0.237959   -2.372844
     21          1           0        9.850463    1.371524   -3.008757
     22          1           0        9.079909    3.764151   -4.855417
     23          1           0       11.609122    2.124512   -4.724762
     24          1           0       10.480018    3.623295   -7.247213
     25          1           0       10.131180    1.328252   -7.048557
     26          1           0        7.338260    2.303271   -6.013609
 ---------------------------------------------------------------------
                    Distance matrix (angstroms):
                    1          2          3          4          5
     1  N    0.000000
     2  C    1.399075   0.000000
     3  C    2.614707   1.459791   0.000000
     4  C    3.935482   2.577587   1.514933   0.000000
     5  C    5.086435   3.805904   2.486132   1.354741   0.000000
     6  S    6.696922   5.343600   4.169839   2.767205   1.781305
     7  C    8.329707   7.032179   5.727146   4.482717   3.243720
     8  C    9.281887   7.931661   6.731003   5.365446   4.283961
     9  C   10.321739   9.010672   7.741536   6.475120   5.302027
    10  C   11.579879  10.260110   8.987119   7.696080   6.511390
    11  C   11.943211  10.680625   9.329197   8.153257   6.875062
    12  C   10.829893   9.617563   8.236551   7.156802   5.847857
    13  C    9.389277   8.179710   6.797760   5.736882   4.422900
    14  H    1.012532   2.061171   3.458267   4.621636   5.862671
    15  H    1.023391   2.001226   2.861980   4.265788   5.283575
    16  H    2.858559   2.025823   1.098176   2.163478   2.805626
    17  H    2.856898   2.052582   1.104372   2.142050   2.765818
    18  H    4.120915   2.728490   2.213714   1.090614   2.169108
    19  H    5.199401   4.085560   2.634028   2.087276   1.082329
    20  H    6.792213   5.434177   4.462804   3.028217   2.471346
    21  H    9.443490   8.061703   6.970482   5.516698   4.594256
    22  H   10.165220   8.917397   7.578565   6.454883   5.204315
    23  H   11.801442  10.448467   9.244603   7.872223   6.772673
    24  H   12.469780  11.256730   9.862660   8.786541   7.467945
    25  H   11.586870  10.358687   9.017098   7.887553   6.628395
    26  H    9.025819   7.894937   6.459511   5.581373   4.229937
                    6          7          8          9         10
     6  S    0.000000
     7  C    1.879717   0.000000
     8  C    2.654170   1.453146   0.000000
     9  C    3.859552   2.284963   1.393747   0.000000
    10  C    4.984202   3.313469   2.424988   1.422225   0.000000
    11  C    5.525517   3.679297   3.304732   2.318428   1.397479
    12  C    4.691231   2.873262   3.146895   2.668954   2.450336
    13  C    3.387197   1.689087   2.550283   2.621560   3.086957
    14  H    7.376753   9.087267   9.969659  11.063496  12.313547
    15  H    6.948135   8.487983   9.553526  10.570642  11.784580
    16  H    4.523829   5.905004   6.899928   7.768182   9.077511
    17  H    4.459769   5.858675   7.017170   7.999683   9.166711
    18  H    3.011613   4.873031   5.528487   6.747737   7.933774
    19  H    2.496281   3.435035   4.656474   5.462827   6.665416
    20  H    1.334457   2.708602   3.273203   4.616113   5.510260
    21  H    2.825369   2.135012   1.068961   2.226311   2.841253
    22  H    4.045991   2.388364   2.114973   1.088180   2.074292
    23  H    5.108029   3.635548   2.596433   2.128031   1.102837
    24  H    6.279636   4.402820   4.184885   3.054242   2.314036
    25  H    5.360252   3.642136   3.727700   3.333533   2.677496
    26  H    3.599053   2.123766   3.197996   3.138690   3.804824
                   11         12         13         14         15
    11  C    0.000000
    12  C    1.584610   0.000000
    13  C    2.766427   1.441175   0.000000
    14  H   12.736892  11.649110  10.209022   0.000000
    15  H   12.036727  10.827789   9.393926   1.661993   0.000000
    16  H    9.396724   8.357963   6.943768   3.780627   3.151618
    17  H    9.359380   8.130926   6.698081   3.744473   2.697766
    18  H    8.535249   7.644661   6.270702   4.599775   4.600769
    19  H    6.841050   5.713269   4.291826   6.085655   5.258217
    20  H    6.073572   5.209854   3.999634   7.355712   7.015353
    21  H    3.836614   3.735383   3.216473  10.052851   9.741709
    22  H    2.393099   2.513958   2.411003  10.970501  10.366716
    23  H    2.116739   2.987961   3.560444  12.477007  12.021117
    24  H    1.101433   2.063128   3.307401  13.307914  12.527884
    25  H    1.745359   1.134212   2.320472  12.371140  11.562945
    26  H    3.378547   2.106327   1.105333   9.904982   8.992593
                   16         17         18         19         20
    16  H    0.000000
    17  H    1.771992   0.000000
    18  H    2.947093   2.934410   0.000000
    19  H    2.671247   2.659636   3.092961   0.000000
    20  H    5.087587   4.663271   2.946720   3.334276   0.000000
    21  H    7.279330   7.274063   5.491452   5.152101   3.008122
    22  H    7.483634   7.786375   6.887913   5.153616   5.003590
    23  H    9.451639   9.429210   7.983397   7.067622   5.377169
    24  H    9.836478   9.855800   9.261942   7.292892   6.943853
    25  H    9.234768   8.871065   8.293939   6.579866   5.641763
    26  H    6.463323   6.322001   6.273152   3.845061   4.440236
                   21         22         23         24         25
    21  H    0.000000
    22  H    3.119066   0.000000
    23  H    2.569931   3.017020   0.000000
    24  H    4.840591   2.775038   3.143881   0.000000
    25  H    4.049772   3.442185   2.866769   2.329887   0.000000
    26  H    4.025972   2.551258   4.464678   3.624209   3.134037
                   26
    26  H    0.000000
 Stoichiometry    C11H13NS
 Framework group  C1[X(C11H13NS)]
 Deg. of freedom    72
 Full point group                 C1      NOp   1
 Largest Abelian subgroup         C1      NOp   1
 Largest concise Abelian subgroup C1      NOp   1
                         Standard orientation:                         
 ---------------------------------------------------------------------
 Center     Atomic      Atomic             Coordinates (Angstroms)
 Number     Number       Type             X           Y           Z
 ---------------------------------------------------------------------
      1          7           0       -6.794851    0.360175    0.227679
      2          6           0       -5.507527   -0.153505    0.037042
      3          6           0       -4.180923    0.410774    0.266607
      4          6           0       -2.944138   -0.375624   -0.116751
      5          6           0       -1.714495    0.155259    0.086879
      6         16           0       -0.205269   -0.663739   -0.386964
      7          6           0        1.522032    0.006247   -0.069339
      8          6           0        2.358195   -1.173416    0.075095
      9          6           0        3.440945   -0.803115    0.870746
     10          6           0        4.733423   -0.730510    0.281717
     11          6           0        5.145787    0.599417    0.162559
     12          6           0        3.958027    1.498328   -0.377973
     13          6           0        2.526452    1.338252   -0.333755
     14          1           0       -7.562657   -0.205987   -0.111666
     15          1           0       -6.865915    1.301913   -0.166543
     16          1           0       -4.176808    0.644148    1.339692
     17          1           0       -4.171286    1.372884   -0.275507
     18          1           0       -3.131251   -1.356803   -0.554605
     19          1           0       -1.663012    1.121223    0.572368
     20          1           0       -0.417286   -1.025890   -1.653719
     21          1           0        2.334768   -1.844538   -0.756605
     22          1           0        3.278889    0.032756    1.548385
     23          1           0        4.851789   -1.341798   -0.628539
     24          1           0        5.622196    1.334386    0.830398
     25          1           0        4.642375    1.441938   -1.280705
     26          1           0        2.079793    1.991730    0.437752
 ---------------------------------------------------------------------
 Rotational constants (GHZ):           3.2324403           0.1850674           0.1788971
 Standard basis: 6-31G(2df,p) (6D, 7F)
 There are   472 symmetry adapted cartesian basis functions of A   symmetry.
 There are   433 symmetry adapted basis functions of A   symmetry.
   433 basis functions,   687 primitive gaussians,   472 cartesian basis functions
    51 alpha electrons       51 beta electrons
       nuclear repulsion energy       746.1201289291 Hartrees.
 NAtoms=   26 NActive=   26 NUniq=   26 SFac= 1.00D+00 NAtFMM=   60 NAOKFM=F Big=F
 Integral buffers will be    131072 words long.
 Raffenetti 2 integral format.
 Two-electron integral symmetry is turned on.
 One-electron integrals computed using PRISM.
 PrsmSu:  requested number of processors reduced to:  13 ShMem   1 Linda.
 NBasis=   433 RedAO= T EigKep=  4.88D-04  NBF=   433
 NBsUse=   433 1.00D-06 EigRej= -1.00D+00 NBFU=   433
 Initial guess from the checkpoint file:  "N[C]CCdC[SH]dc1cccccc1.chk"
 B after Tr=     0.000000   -0.000000   -0.000000
         Rot=    0.999950    0.009757   -0.000701   -0.002038 Ang=   1.14 deg.
 ExpMin= 1.17D-01 ExpMax= 2.19D+04 ExpMxC= 3.30D+03 IAcc=2 IRadAn=         4 AccDes= 0.00D+00
 Harris functional with IExCor=  402 and IRadAn=       4 diagonalized for initial guess.
 HarFok:  IExCor=  402 AccDes= 0.00D+00 IRadAn=         4 IDoV= 1 UseB2=F ITyADJ=14
 ICtDFT=  3500011 ScaDFX=  1.000000  1.000000  1.000000  1.000000
 FoFCou: FMM=F IPFlag=           0 FMFlag=      100000 FMFlg1=           0
         NFxFlg=           0 DoJE=T BraDBF=F KetDBF=T FulRan=T
         wScrn=  0.000000 ICntrl=       500 IOpCl=  0 I1Cent=   200000004 NGrid=           0
         NMat0=    1 NMatS0=      1 NMatT0=    0 NMatD0=    1 NMtDS0=    0 NMtDT0=    0
 Petite list used in FoFCou.
 Requested convergence on RMS density matrix=1.00D-08 within 128 cycles.
 Requested convergence on MAX density matrix=1.00D-06.
 Requested convergence on             energy=1.00D-06.
 No special actions if energy rises.
 Integral accuracy reduced to 1.0D-05 until final iterations.
 Initial convergence to 1.0D-05 achieved.  Increase integral accuracy.
 SCF Done:  E(RB3LYP) =  -879.323893417     A.U. after   16 cycles
            NFock= 16  Conv=0.80D-08     -V/T= 2.0064
 PrsmSu:  requested number of processors reduced to:  13 ShMem   1 Linda.
 Calling FoFJK, ICntrl=      2127 FMM=F ISym2X=0 I1Cent= 0 IOpClX= 0 NMat=1 NMatS=1 NMatT=0.
 ***** Axes restored to original set *****
 -------------------------------------------------------------------
 Center     Atomic                   Forces (Hartrees/Bohr)
 Number     Number              X              Y              Z
 -------------------------------------------------------------------
      1        7           0.066131585   -0.007831614   -0.060979144
      2        6          -0.012825582   -0.000418424    0.090383435
      3        6          -0.041048120   -0.012947686   -0.020924241
      4        6           0.010594994    0.006072169   -0.006956371
      5        6          -0.018841319   -0.020468089    0.015888589
      6       16           0.021194055    0.029863207   -0.016084115
      7        6           0.040250221    0.010935767   -0.023047893
      8        6          -0.055457179   -0.004122891   -0.018689276
      9        6           0.039644175    0.001792107   -0.012420635
     10        6          -0.014770520   -0.006363251    0.038052151
     11        6          -0.050429232    0.011669573   -0.025827085
     12        6           0.024076395   -0.005067280    0.038863920
     13        6          -0.026965986    0.005921810    0.053597576
     14        1           0.008311514    0.002024944    0.003145246
     15        1          -0.020053652    0.012988651   -0.001546060
     16        1          -0.000558774    0.003371458   -0.004844521
     17        1           0.002663385    0.006835609   -0.013703226
     18        1           0.001768810   -0.000224143   -0.003908400
     19        1           0.007791732    0.001648002   -0.007165940
     20        1          -0.009944870   -0.023569216   -0.001315553
     21        1           0.020610801    0.004863352    0.016636343
     22        1          -0.002763967    0.005754243    0.012499400
     23        1          -0.001285720    0.005405994   -0.001855088
     24        1           0.028593396   -0.007927647   -0.002717775
     25        1          -0.020481757   -0.006976089   -0.029857809
     26        1           0.003795615   -0.013230556   -0.017223529
 -------------------------------------------------------------------
 Cartesian Forces:  Max     0.090383435 RMS     0.024088250

 GradGradGradGradGradGradGradGradGradGradGradGradGradGradGradGradGradGrad
 Berny optimization.
 Using GEDIIS/GDIIS optimizer.
 FormGI is forming the generalized inverse of G from B-inverse, IUseBI=4.
 Internal  Forces:  Max     0.086678335 RMS     0.016430231
 Search for a local minimum.
 Step number   2 out of a maximum of  128
 All quantities printed in internal units (Hartrees-Bohrs-Radians)
 Mixed Optimization -- RFO/linear search
 Update second derivatives using D2CorX and points    1    2
 DE= -7.00D-02 DEPred=-6.54D-02 R= 1.07D+00
 TightC=F SS=  1.41D+00  RLast= 3.71D-01 DXNew= 5.0454D-01 1.1127D+00
 Trust test= 1.07D+00 RLast= 3.71D-01 DXMaxT set to 5.05D-01
 ITU=  1  0
 Use linear search instead of GDIIS.
 Linear search step of   0.600 exceeds DXMaxT=   0.505 but not scaled.
 Quartic linear search produced a step of  2.00000.
 Iteration  1 RMS(Cart)=  0.24321893 RMS(Int)=  0.01203004
 Iteration  2 RMS(Cart)=  0.04123952 RMS(Int)=  0.00197190
 Iteration  3 RMS(Cart)=  0.00106060 RMS(Int)=  0.00182128
 Iteration  4 RMS(Cart)=  0.00000069 RMS(Int)=  0.00182128
 Variable       Old X    -DE/DX   Delta X   Delta X   Delta X     New X
                                 (Linear)    (Quad)   (Total)
    R1        2.64387  -0.06455  -0.19906   0.00000  -0.19906   2.44481
    R2        1.91341  -0.00042   0.00009   0.00000   0.00009   1.91350
    R3        1.93393   0.00465   0.00850   0.00000   0.00850   1.94243
    R4        2.75860   0.00095  -0.02260   0.00000  -0.02260   2.73600
    R5        2.86281  -0.00263  -0.00806   0.00000  -0.00806   2.85475
    R6        2.07525   0.00374   0.01632   0.00000   0.01632   2.09158
    R7        2.08696   0.00654   0.02740   0.00000   0.02740   2.11436
    R8        2.56009  -0.02627  -0.08108   0.00000  -0.08108   2.47900
    R9        2.06096  -0.00232  -0.00771   0.00000  -0.00771   2.05325
   R10        3.36618  -0.00489  -0.02678   0.00000  -0.02678   3.33940
   R11        2.04531   0.00176   0.00694   0.00000   0.00694   2.05225
   R12        3.55215  -0.02821  -0.09553   0.00000  -0.09553   3.45662
[...]
 815,0.00112823,0.10330198,-0.00001091,-0.00016250,0.00028686,0.0001178
 7,0.00043042,-0.00025997,-0.00325322,-0.00548598,0.00225546,-0.0048277
 5,0.00194810,-0.01205116,-0.01217300,-0.03766297,-0.03207354,0.0045178
 4,0.00305977,0.00524515,-0.00025036,-0.00015507,-0.00056219,0.00029087
 ,-0.00047881,-0.00011214,0.00006372,-0.00006351,-0.00003985,-0.0000572
 7,-0.00004195,-0.00001936,0.00001918,0.00010732,0.00001690,-0.00008619
 ,-0.00026455,0.00006281,-0.00005051,0.00074454,0.00000972,-0.00003388,
 -0.00014993,-0.00003146,-0.00002706,0.00016594,0.00003562,0.00109061,-
 0.00042934,-0.00072892,0.00022477,0.00009417,-0.00002415,0.00383101,0.
 00898938,-0.00395587,0.01187170,0.03012939,0.00006861,0.00019997,-0.00
 005686,0.00023704,-0.00030612,0.00043399,-0.00120870,0.00222030,-0.000
 02139,-0.01530206,-0.00121531,-0.01688503,-0.10900614,-0.03894797,-0.2
 7362038,0.00551122,-0.00112235,0.00313667,-0.00092055,-0.00023134,-0.0
 0034013,0.00025086,0.00068606,0.00010112,-0.00021834,-0.00026024,0.000
 03437,0.00005391,0.00018811,-0.00018439,-0.00009461,-0.00012205,0.0001
 5708,0.00022200,-0.00001930,-0.00022297,0.00026634,0.00001215,0.000550
 74,0.00001638,0.00004633,0.00000530,0.00008515,-0.00002291,-0.00001215
 ,-0.00029708,0.00016928,0.00026538,0.00117139,-0.00013158,0.00055831,0
 .00172893,-0.00421843,-0.00171836,0.11808615,0.04236170,0.28792491,-0.
 00050706,-0.00044050,0.00035263,-0.00039208,0.00084867,-0.00060919,-0.
 00143287,-0.00307097,0.00292135,-0.00355298,0.00087788,-0.00410607,-0.
 00472741,0.02612966,0.01396491,-0.02839520,-0.01974824,-0.00348172,-0.
 00878602,-0.01343052,-0.00589456,0.00392485,-0.00600444,0.00322526,-0.
 00064057,-0.00119990,-0.00126355,0.00014494,0.00037415,0.00011203,-0.0
 0008602,-0.00055573,-0.00014443,0.00021202,0.00059959,0.00067632,-0.00
 117634,0.00121416,-0.00300160,-0.00004009,-0.00017498,-0.00011110,-0.0
 0002150,0.00007623,-0.00003559,0.00075540,-0.00022528,-0.00020392,-0.0
 0016595,-0.00000961,-0.00008974,0.00049007,0.00168811,-0.00057873,0.00
 033125,-0.00105226,-0.00054815,0.04502451,0.00028187,0.00025226,-0.000
 09828,-0.00014893,-0.00052966,0.00032480,0.00016189,-0.00041443,-0.001
 63453,0.00465688,-0.00125686,0.00238077,0.00946555,-0.00527895,-0.0133
 9546,-0.01298044,-0.14773819,-0.06409223,-0.01944863,-0.00616485,-0.00
 418053,0.00468404,-0.00736903,0.00428053,0.00013099,-0.00014231,-0.002
 93157,0.00037142,-0.00005437,0.00157987,-0.00086920,-0.00097054,-0.001
 15621,0.00122540,0.00134011,0.00047848,0.00056778,0.00021680,-0.002568
 84,0.00001108,0.00004276,0.00005241,0.00001993,-0.00007386,0.00000681,
 0.00023500,-0.00014243,-0.00008605,-0.00007372,0.00003452,0.00003566,0
 .00004887,0.00010976,-0.00040667,0.00000689,-0.00061134,0.00085846,0.0
 1312498,0.16781178,-0.00002516,0.00001835,0.00002805,-0.00001859,0.000
 03939,0.00002341,0.00033194,0.00028873,0.00021666,0.00027362,-0.000829
 65,-0.00024783,0.00040829,-0.00048268,0.00054780,-0.00600659,-0.095485
 72,-0.06855764,0.00814898,0.01696424,0.00474910,-0.00159719,-0.0026783
 2,-0.00446478,0.00210534,0.00196605,-0.00195534,0.00007984,-0.00018666
 ,0.00378055,-0.00264885,-0.00175583,-0.00188774,0.00191029,0.00236770,
 -0.00060208,-0.00004860,0.00307121,0.00545498,0.00000425,-0.00001424,-
 0.00001504,0.00002434,-0.00005042,-0.00002421,-0.00021510,0.00006056,-
 0.00000670,0.00003667,-0.00003221,-0.00000134,0.00023934,-0.00011533,0
 .00036769,0.00020697,-0.00034074,-0.00008388,-0.00267312,0.07881612,0.
 06137061,0.00003313,0.00001919,-0.00000840,-0.00002149,-0.00003006,0.0
 0002291,0.00002917,0.00001633,-0.00003991,-0.00011223,-0.00004810,-0.0
 0005697,-0.00000205,-0.00012637,0.00026948,-0.00018022,0.00160676,-0.0
 0019169,0.00397402,0.00282142,-0.01523809,-0.05560699,-0.00547110,-0.0
 4351480,0.00940883,-0.00297813,0.01397914,0.00428410,-0.00741250,-0.00
 086361,0.00027581,0.00152794,-0.00103860,0.00007047,-0.00138735,0.0017
 6190,-0.00076300,-0.00402348,-0.00311610,0.00000046,0.00000189,0.00000
 618,0.00000105,-0.00000185,0.00001030,-0.00001325,0.00000894,0.0000044
 2,0.00001495,0.00000508,0.00000392,0.00002111,0.00001740,0.00003179,0.
 00007855,-0.00011887,0.00001327,-0.00012309,-0.00048068,-0.00069472,0.
 04423331,-0.00000777,-0.00000312,-0.00000173,0.00001719,-0.00000892,-0
 .00001039,0.00001647,0.00006706,0.00000176,-0.00008399,0.00003170,0.00
 004287,-0.00007794,-0.00007579,0.00088651,-0.00015790,-0.00036188,-0.0
 0250586,-0.00696319,0.00078530,-0.02305232,0.00079065,-0.05112433,0.03
 563121,-0.00038837,-0.00386545,0.02734564,-0.00646494,0.00216073,0.001
 48420,-0.00056460,-0.00131124,0.00075500,-0.00033366,0.00067125,-0.001
 03549,-0.00376480,-0.00107309,0.00162805,-0.00000034,0.00000284,-0.000
 00002,-0.00000184,0.00000233,-0.00000146,-0.00000815,0.00000482,0.0000
 0358,-0.00000556,-0.00000488,-0.00000346,-0.00002581,0.00000141,-0.000
 00014,0.00022281,-0.00005542,-0.00006060,0.00005982,0.00021378,0.00007
 301,0.01200118,0.05714662,-0.00004282,-0.00002671,0.00000979,0.0000252
 4,0.00005426,-0.00002471,-0.00002390,0.00009892,0.00010969,-0.00006489
 ,-0.00003926,-0.00024742,-0.00082950,-0.00007906,0.00014041,0.00170794
 ,0.00044208,-0.00134664,-0.00375940,-0.00016777,-0.01359069,-0.0383929
 0,0.03779073,-0.30603006,-0.00503207,0.00105202,-0.01307380,0.00103910
 ,0.00307236,0.00160788,-0.00020338,-0.00030242,0.00060386,0.00009389,0
 .00004829,-0.00027662,-0.00265017,-0.00067316,0.00153444,-0.00000240,-
 0.00000378,-0.00000901,0.00000583,0.00000094,-0.00000290,-0.00005750,0
 .00002236,0.00000907,0.00001300,-0.00000364,0.00001750,0.00000003,-0.0
 0005416,0.00007670,-0.00005212,0.00002824,-0.00007748,0.00028930,-0.00
 029645,0.00084739,0.04675540,-0.04023387,0.32991517,-0.00001277,-0.000
 00280,0.00000589,-0.00002232,0.00003219,0.00000581,-0.00007026,-0.0001
 6513,0.00004585,0.00019389,-0.00010721,-0.00012817,-0.00002724,0.00085
 823,-0.00081188,0.00329025,-0.00008062,-0.00124962,0.00272128,-0.00538
 415,0.00293534,-0.00837563,-0.00883805,-0.01075586,-0.13373621,-0.0980
 5893,-0.10317816,0.00063134,-0.00161397,0.00230397,0.00057091,0.000584
 02,-0.00067915,-0.00009288,-0.00029748,0.00026691,-0.00005868,0.000063
 68,-0.00049786,0.00000191,-0.00000990,-0.00000437,0.00000484,-0.000004
 10,0.00000081,0.00004236,-0.00001479,-0.00000928,0.00000629,0.00000545
 ,0.00000806,0.00004127,0.00005950,-0.00000929,-0.00012114,-0.00001656,
 0.00002424,-0.00095424,-0.00119222,0.00036238,-0.00384342,0.00370168,0
 .00078254,0.13957850,-0.00003976,-0.00002337,0.00001144,0.00003224,0.0
 0003429,-0.00003217,0.00004277,0.00011642,0.00004125,-0.00009697,-0.00
 001471,-0.00005210,0.00013248,-0.00040862,0.00058740,-0.00202086,-0.00
 105821,-0.00001637,-0.00329956,0.00277567,0.00212389,-0.01762915,-0.01
 498468,-0.01495760,-0.09770574,-0.12441130,-0.08522548,0.00592003,0.00
 586869,0.00747194,-0.00011655,-0.00003699,0.00210493,0.00004873,0.0001
 9089,-0.00016016,0.00001784,0.00005721,0.00100278,-0.00000270,-0.00000
 006,-0.00000769,0.00000372,-0.00000130,-0.00000875,-0.00005672,0.00001
 762,0.00000281,-0.00001438,-0.00000659,0.00000093,-0.00001992,-0.00004
 595,-0.00000510,0.00005607,0.00001501,-0.00000840,0.00014521,0.0002843
 8,0.00015493,0.00335150,-0.00210019,-0.00055956,0.11058488,0.13251840,
 -0.00001444,-0.00000649,0.00000016,0.00001406,0.00000978,-0.00000532,0
 .00002445,0.00005377,-0.00000340,-0.00004523,0.00001981,0.00002699,-0.
 00010449,-0.00029720,0.00013589,-0.00062261,0.00032132,0.00083440,0.00
 101539,0.00352880,0.00053006,0.00873194,0.00891324,0.00768266,-0.10415
 697,-0.08638693,-0.15324131,-0.01861351,-0.01763882,-0.01818279,0.0004
 7448,0.00425706,-0.00365065,0.00009169,0.00050282,0.00074727,-0.000034
 61,0.00016167,-0.00112783,-0.00000031,0.00000094,-0.00000247,0.0000017
 4,-0.00000080,-0.00000340,-0.00002552,0.00001325,0.00000531,-0.0000027
 8,-0.00000111,0.00000316,-0.00000528,-0.00002063,0.00001024,0.00001346
 ,0.00001287,0.00000491,0.00031016,0.00038143,-0.00029883,0.00179850,-0
 .00056397,0.00131571,0.11073686,0.08768590,0.16557239,0.00000965,0.000
 00805,-0.00000128,-0.00001298,-0.00000555,0.00000837,-0.00001384,-0.00
 004774,-0.00001470,0.00005009,-0.00001952,0.00000805,0.00020772,0.0002
 6056,0.00001122,0.00010559,-0.00039259,-0.00017774,0.00010376,-0.00042
 832,-0.00173334,0.00221764,0.00156328,-0.00015204,0.00300598,-0.001378
 91,-0.00023043,-0.08813691,-0.10647530,0.01153288,-0.00155332,-0.01544
 376,0.00351186,0.00888906,-0.00263169,-0.00543564,-0.00005659,0.000157
 88,0.00171498,0.00000129,-0.00000233,0.00000146,0.00000047,-0.00000308
 ,0.00000142,0.00001845,-0.00001044,-0.00000419,-0.00000026,0.00000107,
 -0.00000345,0.00000394,0.00002218,-0.00001580,0.00005925,-0.00001303,-
 0.00001024,-0.00011285,-0.00001292,0.00009137,-0.00031464,0.00028241,0
 .00028980,0.00010261,0.00076457,0.00062347,0.08259245,-0.00006387,-0.0
 0003329,0.00001684,0.00003325,0.00006958,-0.00003990,0.00002041,0.0000
 7891,0.00008812,-0.00005089,-0.00003034,-0.00009278,-0.00026742,-0.000
 28367,0.00008775,0.00033044,0.00043571,-0.00007735,-0.00011304,0.00002
 823,0.00057901,0.00108700,0.00049036,0.00220059,-0.00627177,-0.0069982
 2,-0.00091421,-0.10704641,-0.26877070,0.04008786,-0.00811477,-0.012556
 85,0.00324004,-0.00441788,0.00323355,-0.00141900,0.00019643,-0.0000031
 7,-0.00038021,-0.00000066,-0.00000528,-0.00001186,0.00000544,-0.000003
 84,-0.00001536,-0.00005293,0.00002518,0.00001275,-0.00001599,-0.000009
 02,0.00000565,0.00000579,-0.00003087,0.00001179,-0.00008291,0.00002408
 ,-0.00000950,-0.00005256,-0.00005147,-0.00010162,-0.00021708,-0.000553
 98,0.00006922,0.00032235,0.00077880,0.00008020,0.12106697,0.28533482,0
 .00001633,0.00000949,-0.00000528,-0.00000732,-0.00002160,0.00001212,-0
 .00000788,-0.00002772,-0.00002694,0.00002807,0.00000110,0.00002434,0.0
 0004030,0.00009107,-0.00006132,-0.00000199,0.00007568,0.00026497,-0.00
 007121,0.00019834,0.00043631,-0.00224910,0.00003385,-0.00468706,0.0129
 0347,0.02857645,-0.00498440,0.01445470,0.04119197,-0.05976544,-0.01292
 075,-0.02515344,0.00344872,-0.00324619,-0.00006583,-0.00197283,-0.0001
 4457,-0.00005623,-0.00129782,0.00000029,0.00000172,0.00000301,-0.00000
 079,0.00000126,0.00000459,0.00001759,-0.00000655,-0.00000431,0.0000070
 5,0.00000308,0.00000056,-0.00000229,0.00001458,0.00000124,0.00003480,-
 0.00001489,0.00001176,0.00010336,0.00003856,-0.00005340,0.00097409,0.0
 0067601,-0.00086280,0.00009057,-0.00041928,0.00080902,-0.01113085,-0.0
 4253915,0.06790602,0.00002091,0.00001457,-0.00000274,-0.00002034,-0.00
 002049,0.00001424,-0.00001350,-0.00006504,-0.00003029,0.00008189,-0.00
 000944,0.00004059,0.00015885,0.00020921,-0.00022468,-0.00003512,-0.000
 16817,0.00040090,0.00120828,0.00100251,0.00007551,-0.00132776,-0.00142
 235,-0.00039185,0.00801120,-0.00403375,-0.00348760,0.00297999,0.004391
 57,-0.01384139,-0.03749888,-0.01263832,0.00820050,0.00062235,-0.010190
 82,0.01374955,-0.00013333,-0.00177931,-0.00235659,0.00000117,-0.000001
 27,0.00000349,-0.00000066,-0.00000239,0.00000423,0.00002909,-0.0000132
 4,-0.00000482,0.00000159,0.00000130,-0.00000316,0.00000450,0.00002748,
 -0.00001889,0.00003223,-0.00002077,-0.00001044,0.00011731,0.00005176,-
 0.00006555,-0.00072101,0.00084390,0.00011910,0.00030572,-0.00021321,-0
 .00023218,-0.00553172,0.00362447,0.00131356,0.03260379,-0.00004973,-0.
 00002769,0.00001507,0.00002581,0.00005570,-0.00003504,0.00001492,0.000
 05910,0.00007621,-0.00003797,-0.00004035,-0.00009282,-0.00017031,-0.00
 014752,0.00011412,0.00033619,0.00037826,0.00008920,-0.00006530,-0.0000
 3469,0.00053914,-0.00046789,-0.00088581,-0.00025359,-0.00455752,0.0016
 0819,-0.00073236,-0.00119545,0.00846932,-0.01441585,-0.01344823,-0.118
 01331,0.11909240,-0.00217122,-0.01201748,0.02592898,-0.00177435,-0.004
 17945,-0.00264010,-0.00000086,-0.00000397,-0.00000916,0.00000393,-0.00
 000221,-0.00001198,-0.00004083,0.00001949,0.00000951,-0.00001294,-0.00
 000731,0.00000242,0.00000109,-0.00002014,0.00001372,-0.00004197,0.0000
 1080,0.00001765,-0.00008036,-0.00000078,-0.00002221,0.00041679,-0.0001
 3084,-0.00003646,-0.00032700,0.00032033,-0.00075025,0.00327726,-0.0003
 7262,-0.00141735,0.02068089,0.12466951,0.00003246,0.00001606,-0.000011
 25,-0.00001287,-0.00003693,0.00002369,-0.00000859,-0.00002051,-0.00004
 877,-0.00000330,0.00002790,0.00004251,0.00006912,0.00004614,-0.0000079
 8,-0.00027853,-0.00009610,0.00007269,-0.00038787,-0.00027243,-0.000007
 74,0.00020858,0.00023555,0.00007906,-0.00416394,-0.00326197,0.00074651
 ,0.00092565,0.01508752,-0.02383179,0.00642809,0.11758273,-0.25918052,-
 0.00126570,-0.00273437,0.00136773,-0.00042130,0.00002441,0.00161536,-0
 .00000027,0.00000387,0.00000578,-0.00000220,0.00000358,0.00000966,0.00
 001808,-0.00000903,-0.00000655,0.00001322,0.00000679,0.00000122,-0.000
 00694,0.00000366,0.00000470,0.00002884,-0.00000706,0.00000843,0.000060
 44,0.00004175,0.00003855,0.00026769,0.00000861,-0.00012131,-0.00000898
 ,0.00035011,-0.00136776,0.00119876,-0.00097157,0.00065632,-0.00328602,
 -0.12625324,0.27899532,-0.00002006,-0.00001434,0.00000915,-0.00000130,
 0.00003917,-0.00001486,-0.00004126,-0.00004290,0.00009194,0.00010252,-
 0.00008604,-0.00019217,-0.00074344,0.00022023,-0.00077869,0.00279594,0
 .00056448,-0.00149382,0.00645958,-0.00531670,0.00464573,-0.00067903,-0
 .00109099,0.00002151,0.00076860,0.00039795,0.00005259,0.00030369,-0.00
 232891,0.00170153,-0.00126235,-0.00709324,-0.01494420,-0.04303271,-0.0
 2341513,-0.04152806,0.00350480,0.00168034,0.00821544,0.00000049,-0.000
 00550,-0.00000388,-0.00000185,0.00000186,-0.00000402,0.00001204,-0.000
 00150,0.00000875,-0.00000121,-0.00000418,0.00000280,0.00006597,0.00001
 536,0.00003742,-0.00027330,0.00007999,0.00006769,-0.00017123,-0.000222
 71,0.00098964,-0.00017208,0.00045250,0.00016884,-0.00002383,0.00005604
 ,-0.00008849,-0.00060842,-0.00038032,-0.00045333,-0.00006042,0.0002944
 2,0.00052821,0.03811212,0.00001948,0.00001069,-0.00000573,-0.00000785,
 -0.00002596,0.00001460,0.00000296,-0.00002898,-0.00005774,0.00000924,0
 .00000538,0.00007286,0.00053903,0.00014444,0.00019229,-0.00124779,-0.0
 0067918,0.00171845,-0.00357665,0.00222241,0.00070127,-0.00095931,-0.00
 133274,-0.00006520,0.00047749,0.00059437,-0.00015040,-0.00157444,-0.00
 488916,0.00206611,-0.00546106,-0.00794253,-0.02721900,-0.02425063,-0.0
 8459401,-0.08989055,0.00142893,0.00653641,0.02052576,-0.00000039,0.000
 00227,0.00000301,0.00000024,-0.00000022,0.00000427,0.00001277,-0.00001
 099,-0.00001263,0.00000133,0.00000607,-0.00000236,-0.00002285,0.000006
 32,-0.00003629,0.00010887,-0.00002935,-0.00001389,0.00010538,0.0001818
 2,-0.00040941,0.00008982,0.00004096,-0.00003462,-0.00003698,0.00012972
 ,-0.00018443,-0.00108483,-0.00037098,-0.00089634,0.00034683,0.00086700
 ,0.00017619,0.03195879,0.09005852,0.00004230,0.00003036,-0.00001990,-0
 .00002007,-0.00005312,0.00004228,-0.00000216,-0.00000564,-0.00008926,-
 0.00001449,0.00006078,0.00010566,0.00003689,-0.00013372,0.00016706,-0.
 00075879,0.00057576,-0.00089731,0.00227665,0.00299806,0.00042036,0.000
 03579,-0.00026099,0.00007244,0.00023154,0.00023146,-0.00005528,0.00045
 737,-0.00070919,0.00148744,0.00075804,0.00192148,-0.00058240,-0.041349
 11,-0.08748852,-0.28529678,-0.00421433,-0.00964432,-0.02449379,0.00000
 185,0.00000301,0.00000749,0.00000090,-0.00000121,0.00001373,0.00001673
 ,-0.00000680,-0.00000199,0.00002380,0.00000707,0.00000491,-0.00002416,
 0.00000592,0.00001914,0.00010753,-0.00004906,0.00000280,0.00010425,0.0
 0000320,-0.00019822,-0.00009253,-0.00004506,-0.00008421,-0.00003458,-0
 .00005946,-0.00000263,-0.00010246,0.00001239,-0.00016361,-0.00037995,-
 0.00018572,0.00101230,0.04264483,0.09266161,0.30760560,0.00002305,0.00
 001526,-0.00000212,-0.00002466,-0.00001855,0.00001357,0.00002312,-0.00
 004592,-0.00003782,-0.00020359,0.00014916,0.00015160,0.00033132,0.0000
 1535,0.00042685,-0.00105405,0.00064967,0.00152246,-0.00035985,-0.00755
 121,-0.00629592,0.00459472,0.00201777,-0.00024304,-0.00057961,-0.00266
 979,0.00195068,0.00011160,0.00143232,-0.00320373,0.00911338,-0.0029913
 9,0.00415351,0.00067753,-0.01150184,-0.00617188,-0.09016348,-0.1020636
 8,-0.02347967,0.00000087,-0.00000090,0.00000360,0.00000069,-0.00000416
 ,0.00000489,0.00000515,0.00000074,0.00000096,-0.00001028,0.00000195,-0
 .00000049,0.00000858,0.00002945,-0.00006762,0.00005283,-0.00011592,-0.
 00018687,0.00028514,0.00038511,-0.00121977,-0.00055148,0.00046030,-0.0
 0017896,-0.00015254,0.00005945,0.00011020,-0.00102641,0.00045596,0.000
 25207,-0.00083612,-0.00060936,0.00006737,-0.00503324,0.00312163,0.0002
 5417,0.08476733,0.00001616,0.00002644,-0.00001211,-0.00001773,-0.00004
 231,0.00004063,-0.00000884,-0.00012204,-0.00013834,0.00029874,0.000008
 78,0.00031044,0.00088047,-0.00001286,-0.00020013,-0.00256431,0.0015964
 7,0.00230667,-0.00352180,-0.00186214,-0.00072209,0.00017991,-0.0010578
 6,-0.00075780,0.00004734,0.00152549,-0.00106810,0.00024873,-0.00062171
 ,0.00179589,-0.00521011,0.00248557,0.00244842,-0.01108613,-0.01710861,
 -0.00479516,-0.10388054,-0.23956232,-0.05639434,0.00000297,-0.00000193
 ,0.00000187,0.00000862,-0.00000841,0.00000522,0.00004244,-0.00001960,-
 0.00001575,0.00001242,0.00000591,0.00000821,-0.00006912,0.00007262,-0.
 00003071,0.00052022,-0.00012819,-0.00007001,0.00080150,0.00031107,-0.0
 0131525,0.00041133,-0.00045966,-0.00016851,-0.00006210,-0.00001547,-0.
 00009219,0.00054579,-0.00042491,-0.00029477,-0.00061592,-0.00057352,0.
 00004833,0.00424135,-0.00090227,0.00013171,0.11877860,0.25689144,-0.00
 000242,-0.00000250,0.00000412,-0.00001639,0.00000768,-0.00000039,-0.00
 005901,-0.00011442,0.00002598,0.00011322,0.00002376,0.00004106,0.00023
 052,0.00074621,-0.00016694,-0.00208188,-0.00382950,-0.00059802,-0.0141
 6288,-0.02500667,-0.01003315,0.00141530,0.00095763,-0.00516843,-0.0001
 4296,-0.00004836,0.00002325,0.00031750,0.00026779,-0.00066329,0.000767
 31,0.00099515,-0.00214447,0.01118635,0.02349923,0.00557594,-0.03010329
 ,-0.05885033,-0.07072075,0.00000058,-0.00000417,-0.00000133,0.00000081
 ,0.00000030,0.00000191,0.00004253,-0.00001838,-0.00001233,0.00000399,0
 .00000280,-0.00000302,-0.00003506,0.00004091,-0.00000459,0.00022552,-0
 .00004499,0.00002724,0.00062145,0.00156801,0.00097224,-0.00104354,-0.0
 0102207,-0.00043996,-0.00020205,-0.00002615,0.00020822,0.00001851,0.00
 008029,0.00030622,0.00041447,0.00095775,-0.00009613,0.00031545,0.00084
 218,0.00092416,0.03217596,0.05897786,0.08194247\\0.00000297,0.00000582
 ,0.00000053,-0.00000225,0.00000088,-0.00000045,0.00000046,-0.00000523,
 -0.00000015,0.00000376,-0.00000233,-0.00000009,-0.00000506,0.00000220,
 -0.00000351,0.00001146,0.00000551,-0.00000294,-0.00001712,-0.00000475,
 -0.00000153,0.00000133,0.00000007,0.00000263,0.00000178,0.00000733,-0.
 00000253,0.00000109,-0.00000689,0.00000315,0.00000170,0.00000467,0.000
 00185,0.00000121,0.00000700,-0.00000439,-0.00000214,-0.00001034,0.0000
 0258,0.00000175,-0.00000104,-0.00000055,0.00000004,-0.00000039,-0.0000
 0061,-0.00000224,0.00000034,0.00000110,-0.00000010,0.00000013,-0.00000
 048,-0.00000013,0.00000045,-0.00000002,0.00000309,-0.00000008,0.000000
 36,-0.00000426,-0.00000432,0.00000252,0.00000147,0.00000302,0.00000083
 ,0.00000119,0.00000019,-0.00000204,-0.00000051,0.00000186,0.00000047,0
 .00000041,-0.00000008,0.00000020,0.00000004,-0.00000390,0.00000091,0.0
 0000007,-0.00000010,0.00000218\\\@


            THE IRISH PIG
 'TWAS AN EVENING IN NOVEMBER,
 AS I VERY WELL REMEMBER
 I WAS STROLLING DOWN THE STREET IN DRUNKEN PRIDE,
 BUT MY KNEES WERE ALL A'FLUTTER
 SO I LANDED IN THE GUTTER,
 AND A PIG CAME UP AND LAY DOWN BY MY SIDE.

 YES, I LAY THERE IN THE GUTTER
 THINKING THOUGHTS I COULD NOT UTTER
 WHEN A COLLEEN PASSING BY DID SOFTLY SAY,
 'YE CAN TELL A MAN THAT BOOZES
 BY THE COMPANY THAT HE CHOOSES.' -
 AT THAT, THE PIG GOT UP AND WALKED AWAY!
     -- THE ECONOMIST, AUGUST 23, 1986
 Job cpu time:       0 days  4 hours 12 minutes 30.1 seconds.
 Elapsed time:       0 days  1 hours  3 minutes  9.0 seconds.
 File lengths (MBytes):  RWF=    375 Int=      0 D2E=      0 Chk=     16 Scr=      1
 Normal termination of Gaussian 16 at Tue May 16 15:04:43 2023.
### All Done ###
