### Starting Gaussian ###
 Entering Gaussian System, Link 0=g16
 Initial command:
 /cluster/software/gaussian/gaussian-16-A.03/avx2/g16/l1.exe "/local/scratch/cz9n3/Gau-29803.inp" -scrdir="/local/scratch/cz9n3/"
 Entering Link 1 = /cluster/software/gaussian/gaussian-16-A.03/avx2/g16/l1.exe PID=     29804.
  
 Copyright (c) 1988,1990,1992,1993,1995,1998,2003,2009,2016,
            Gaussian, Inc.  All Rights Reserved.
  
 This is part of the Gaussian(R) 16 program.  It is based on
 the Gaussian(R) 09 system (copyright 2009, Gaussian, Inc.),
 the Gaussian(R) 03 system (copyright 2003, Gaussian, Inc.),
 the Gaussian(R) 98 system (copyright 1998, Gaussian, Inc.),
 the Gaussian(R) 94 system (copyright 1995, Gaussian, Inc.),
 the Gaussian 92(TM) system (copyright 1992, Gaussian, Inc.),
 the Gaussian 90(TM) system (copyright 1990, Gaussian, Inc.),
 the Gaussian 88(TM) system (copyright 1988, Gaussian, Inc.),
 the Gaussian 86(TM) system (copyright 1986, Carnegie Mellon
 University), and the Gaussian 82(TM) system (copyright 1983,
 Carnegie Mellon University). Gaussian is a federally registered
 trademark of Gaussian, Inc.
  
 This software contains proprietary and confidential information,
 including trade secrets, belonging to Gaussian, Inc.
  
 This software is provided under written license and may be
 used, copied, transmitted, or stored only in accord with that
 written license.
  
 The following legend is applicable only to US Government
 contracts under FAR:
  
                    RESTRICTED RIGHTS LEGEND
  
 Use, reproduction and disclosure by the US Government is
 subject to restrictions as set forth in subparagraphs (a)
 and (c) of the Commercial Computer Software - Restricted
 Rights clause in FAR 52.227-19.
  
 Gaussian, Inc.
 340 Quinnipiac St., Bldg. 40, Wallingford CT 06492
  
  
 ---------------------------------------------------------------
 Warning -- This program may not be used in any manner that
 competes with the business of Gaussian, Inc. or will provide
 assistance to any competitor of Gaussian, Inc.  The licensee
 of this program is prohibited from giving any competitor of
 Gaussian, Inc. access to this program.  By using this program,
 the user acknowledges that Gaussian, Inc. is engaged in the
 business of creating and licensing software in the field of
 computational chemistry and represents and warrants to the
 licensee that it is not a competitor of Gaussian, Inc. and that
 it will not use this program in any manner prohibited above.
 ---------------------------------------------------------------
  

 Cite this work as:
 Gaussian 16, Revision A.03,
 M. J. Frisch, G. W. Trucks, H. B. Schlegel, G. E. Scuseria, 
 M. A. Robb, J. R. Cheeseman, G. Scalmani, V. Barone, 
 G. A. Petersson, H. Nakatsuji, X. Li, M. Caricato, A. V. Marenich, 
 J. Bloino, B. G. Janesko, R. Gomperts, B. Mennucci, H. P. Hratchian, 
 J. V. Ortiz, A. F. Izmaylov, J. L. Sonnenberg, D. Williams-Young, 
 F. Ding, F. Lipparini, F. Egidi, J. Goings, B. Peng, A. Petrone, 
 T. Henderson, D. Ranasinghe, V. G. Zakrzewski, J. Gao, N. Rega, 
 G. Zheng, W. Liang, M. Hada, M. Ehara, K. Toyota, R. Fukuda, 
 J. Hasegawa, M. Ishida, T. Nakajima, Y. Honda, O. Kitao, H. Nakai, 
 T. Vreven, K. Throssell, J. A. Montgomery, Jr., J. E. Peralta, 
 F. Ogliaro, M. J. Bearpark, J. J. Heyd, E. N. Brothers, K. N. Kudin, 
 V. N. Staroverov, T. A. Keith, R. Kobayashi, J. Normand, 
 K. Raghavachari, A. P. Rendell, J. C. Burant, S. S. Iyengar, 
 J. Tomasi, M. Cossi, J. M. Millam, M. Klene, C. Adamo, R. Cammi, 
 J. W. Ochterski, R. L. Martin, K. Morokuma, O. Farkas, 
 J. B. Foresman, and D. J. Fox, Gaussian, Inc., Wallingford CT, 2016.
 
 ******************************************
 Gaussian 16:  ES64L-G16RevA.03 25-Dec-2016
                15-May-2023 
 ******************************************
 %chk=N[SH]dC1CdCCdCCqdOr[SH]dN1.chk
 %NProcShared=20
 Will use up to   20 processors via shared memory.
 -----------------------------
 # opt freq b3lyp/6-31g(2df,p)
 -----------------------------
 1/18=20,19=15,26=3,38=1/1,3;
 2/9=110,12=2,17=6,18=5,40=1/2;
 3/5=1,6=6,7=104,11=2,25=1,30=1,71=1,74=-5/1,2,3;
 4//1;
 5/5=2,38=5/2;
 6/7=2,8=2,9=2,10=2,28=1/1;
 7//1,2,3,16;
 1/18=20,19=15,26=3/3(2);
 2/9=110/2;
 99//99;
 2/9=110/2;
 3/5=1,6=6,7=104,11=2,25=1,30=1,71=1,74=-5/1,2,3;
 4/5=5,16=3,69=1/1;
 5/5=2,38=5/2;
 7//1,2,3,16;
 1/18=20,19=15,26=3/3(-5);
 2/9=110/2;
 6/7=2,8=2,9=2,10=2,19=2,28=1/1;
 99/9=1/99;
 -------------------
 Title Card Required
 -------------------
 Symbolic Z-matrix:
 Charge =  0 Multiplicity = 1
 N                     1.30537  -0.08487  -0.64025 
 S                     2.85354  -0.65486  -1.11111 
 C                     4.17879  -0.3701   -2.78484 
 C                     5.19383   0.15226  -1.87615 
 C                     5.82488   0.99599  -2.7406 
 C                     7.1761    1.05877  -3.02901 
 C                     7.27597   1.30561  -4.36895 
 C                     7.8487    0.04195  -4.61904 
 O                     9.03893  -0.23825  -4.45356 
 S                     6.325    -1.28095  -4.7904 
 N                     4.70344  -0.83254  -4.21757 
 H                     1.06474  -0.01137   0.39363 
 H                     0.61369  -0.82488  -0.81893 
 H                     3.40742  -1.1012    0.00917 
 H                     5.40838  -0.21123  -0.91292 
 H                     5.21411   1.22632  -3.5935 
 H                     7.80366   0.2858   -2.5124 
 H                     6.40054   1.41396  -5.05365 
 H                     6.64888  -0.89985  -6.09599 
 

 GradGradGradGradGradGradGradGradGradGradGradGradGradGradGradGradGradGrad
 Berny optimization.
 Initialization pass.
                           ----------------------------
                           !    Initial Parameters    !
                           ! (Angstroms and Degrees)  !
 --------------------------                            --------------------------
 ! Name  Definition              Value          Derivative Info.                !
 --------------------------------------------------------------------------------
 ! R1    R(1,2)                  1.7156         estimate D2E/DX2                !
 ! R2    R(1,12)                 1.0641         estimate D2E/DX2                !
 ! R3    R(1,13)                 1.0286         estimate D2E/DX2                !
 ! R4    R(2,3)                  2.1538         estimate D2E/DX2                !
 ! R5    R(2,14)                 1.327          estimate D2E/DX2                !
 ! R6    R(3,4)                  1.4591         estimate D2E/DX2                !
 ! R7    R(3,11)                 1.5943         estimate D2E/DX2                !
 ! R8    R(4,5)                  1.3629         estimate D2E/DX2                !
 ! R9    R(4,15)                 1.0517         estimate D2E/DX2                !
 ! R10   R(5,6)                  1.3831         estimate D2E/DX2                !
 ! R11   R(5,16)                 1.074          estimate D2E/DX2                !
 ! R12   R(6,7)                  1.3661         estimate D2E/DX2                !
 ! R13   R(6,17)                 1.1217         estimate D2E/DX2                !
 ! R14   R(7,8)                  1.4098         estimate D2E/DX2                !
 ! R15   R(7,18)                 1.1167         estimate D2E/DX2                !
 ! R16   R(8,9)                  1.2339         estimate D2E/DX2                !
 ! R17   R(8,10)                 2.0251         estimate D2E/DX2                !
 ! R18   R(10,11)                1.7773         estimate D2E/DX2                !
 ! R19   R(10,19)                1.3981         estimate D2E/DX2                !
 ! A1    A(2,1,12)             119.5832         estimate D2E/DX2                !
 ! A2    A(2,1,13)             108.6703         estimate D2E/DX2                !
 ! A3    A(12,1,13)             93.8079         estimate D2E/DX2                !
 ! A4    A(1,2,3)              136.436          estimate D2E/DX2                !
 ! A5    A(1,2,14)             104.8738         estimate D2E/DX2                !
 ! A6    A(3,2,14)             116.3393         estimate D2E/DX2                !
 ! A7    A(2,3,4)               89.5082         estimate D2E/DX2                !
 ! A8    A(2,3,11)             149.5975         estimate D2E/DX2                !
 ! A9    A(4,3,11)             115.7587         estimate D2E/DX2                !
 ! A10   A(3,4,5)               98.5535         estimate D2E/DX2                !
 ! A11   A(3,4,15)             126.0584         estimate D2E/DX2                !
 ! A12   A(5,4,15)             134.4654         estimate D2E/DX2                !
 ! A13   A(4,5,6)              127.7876         estimate D2E/DX2                !
 ! A14   A(4,5,16)             111.9102         estimate D2E/DX2                !
 ! A15   A(6,5,16)             112.3488         estimate D2E/DX2                !
 ! A16   A(5,6,7)              106.508          estimate D2E/DX2                !
 ! A17   A(5,6,17)             114.7883         estimate D2E/DX2                !
 ! A18   A(7,6,17)             122.367          estimate D2E/DX2                !
 ! A19   A(6,7,8)               92.3921         estimate D2E/DX2                !
 ! A20   A(6,7,18)             124.1684         estimate D2E/DX2                !
 ! A21   A(8,7,18)             107.2594         estimate D2E/DX2                !
 ! A22   A(7,8,9)              124.8646         estimate D2E/DX2                !
 ! A23   A(7,8,10)             107.1509         estimate D2E/DX2                !
 ! A24   A(9,8,10)             126.0699         estimate D2E/DX2                !
 ! A25   A(8,10,11)            119.6299         estimate D2E/DX2                !
 ! A26   A(8,10,19)             74.1366         estimate D2E/DX2                !
 ! A27   A(11,10,19)           116.3319         estimate D2E/DX2                !
 ! A28   A(3,11,10)            131.5347         estimate D2E/DX2                !
 ! D1    D(12,1,2,3)          -151.6344         estimate D2E/DX2                !
 ! D2    D(12,1,2,14)            9.3396         estimate D2E/DX2                !
 ! D3    D(13,1,2,3)           102.5564         estimate D2E/DX2                !
 ! D4    D(13,1,2,14)          -96.4696         estimate D2E/DX2                !
 ! D5    D(1,2,3,4)            119.9569         estimate D2E/DX2                !
 ! D6    D(1,2,3,11)           -92.4633         estimate D2E/DX2                !
 ! D7    D(14,2,3,4)           -39.4594         estimate D2E/DX2                !
 ! D8    D(14,2,3,11)          108.1203         estimate D2E/DX2                !
 ! D9    D(2,3,4,5)           -150.5372         estimate D2E/DX2                !
 ! D10   D(2,3,4,15)            39.1512         estimate D2E/DX2                !
 ! D11   D(11,3,4,5)            46.9956         estimate D2E/DX2                !
 ! D12   D(11,3,4,15)         -123.316          estimate D2E/DX2                !
 ! D13   D(2,3,11,10)         -123.0551         estimate D2E/DX2                !
 ! D14   D(4,3,11,10)           20.4142         estimate D2E/DX2                !
 ! D15   D(3,4,5,6)           -127.4218         estimate D2E/DX2                !
 ! D16   D(3,4,5,16)            18.723          estimate D2E/DX2                !
 ! D17   D(15,4,5,6)            41.5887         estimate D2E/DX2                !
 ! D18   D(15,4,5,16)         -172.2666         estimate D2E/DX2                !
 ! D19   D(4,5,6,7)            141.5896         estimate D2E/DX2                !
 ! D20   D(4,5,6,17)             2.8354         estimate D2E/DX2                !
 ! D21   D(16,5,6,7)            -4.4352         estimate D2E/DX2                !
 ! D22   D(16,5,6,17)         -143.1894         estimate D2E/DX2                !
 ! D23   D(5,6,7,8)           -113.4589         estimate D2E/DX2                !
 ! D24   D(5,6,7,18)            -0.6746         estimate D2E/DX2                !
 ! D25   D(17,6,7,8)            21.4164         estimate D2E/DX2                !
 ! D26   D(17,6,7,18)          134.2008         estimate D2E/DX2                !
 ! D27   D(6,7,8,9)            -81.165          estimate D2E/DX2                !
 ! D28   D(6,7,8,10)            83.8458         estimate D2E/DX2                !
 ! D29   D(18,7,8,9)           151.8503         estimate D2E/DX2                !
 ! D30   D(18,7,8,10)          -43.1388         estimate D2E/DX2                !
 ! D31   D(7,8,10,11)          -15.6483         estimate D2E/DX2                !
 ! D32   D(7,8,10,19)           95.9981         estimate D2E/DX2                !
 ! D33   D(9,8,10,11)          149.1308         estimate D2E/DX2                !
 ! D34   D(9,8,10,19)          -99.2229         estimate D2E/DX2                !
 ! D35   D(8,10,11,3)          -57.9023         estimate D2E/DX2                !
 ! D36   D(19,10,11,3)        -143.9243         estimate D2E/DX2                !
 --------------------------------------------------------------------------------
 Trust Radius=3.00D-01 FncErr=1.00D-07 GrdErr=1.00D-06 EigMax=2.50D+02 EigMin=1.00D-04
 Number of steps in this run=     93 maximum allowed number of steps=    114.
 GradGradGradGradGradGradGradGradGradGradGradGradGradGradGradGradGradGrad

                          Input orientation:                          
 ---------------------------------------------------------------------
 Center     Atomic      Atomic             Coordinates (Angstroms)
 Number     Number       Type             X           Y           Z
 ---------------------------------------------------------------------
      1          7           0        1.305370   -0.084870   -0.640250
      2         16           0        2.853540   -0.654860   -1.111110
      3          6           0        4.178790   -0.370100   -2.784840
      4          6           0        5.193830    0.152260   -1.876150
      5          6           0        5.824880    0.995990   -2.740600
      6          6           0        7.176100    1.058770   -3.029010
      7          6           0        7.275970    1.305610   -4.368950
      8          6           0        7.848700    0.041950   -4.619040
      9          8           0        9.038930   -0.238250   -4.453560
     10         16           0        6.325000   -1.280950   -4.790400
     11          7           0        4.703440   -0.832540   -4.217570
     12          1           0        1.064740   -0.011370    0.393630
     13          1           0        0.613690   -0.824880   -0.818930
     14          1           0        3.407420   -1.101200    0.009170
     15          1           0        5.408380   -0.211230   -0.912920
     16          1           0        5.214110    1.226320   -3.593500
     17          1           0        7.803660    0.285800   -2.512400
     18          1           0        6.400540    1.413960   -5.053650
     19          1           0        6.648880   -0.899850   -6.095990
 ---------------------------------------------------------------------
                    Distance matrix (angstroms):
                    1          2          3          4          5
     1  N    0.000000
     2  S    1.715642   0.000000
     3  C    3.596827   2.153775   0.000000
     4  C    4.087028   2.591078   1.459069   0.000000
     5  C    5.099578   3.769536   2.139573   1.362857   0.000000
     6  C    6.440463   5.029850   3.329438   2.465814   1.383082
     7  C    7.175284   5.832225   3.861338   3.446676   2.202964
     8  C    7.659114   6.143512   4.123386   3.818894   2.921400
     9  O    8.623967   7.043052   5.140328   4.645464   3.845478
    10  S    6.622012   5.097077   3.075408   3.438966   3.104232
    11  N    4.990301   3.619916   1.594310   2.586998   2.604341
    12  H    1.064055   2.424485   4.464153   4.714664   5.787668
    13  H    1.028573   2.265216   4.096531   4.801062   5.845074
    14  H    2.423487   1.327038   2.989316   2.883896   4.219426
    15  H    4.114001   2.600633   2.245265   1.051650   2.229634
    16  H    5.071405   3.908118   2.067456   2.025662   1.074025
    17  H    6.772748   5.229928   3.693794   2.689584   2.114714
    18  H    6.905458   5.692526   3.642326   3.625540   2.419976
    19  H    7.679999   6.270060   4.164816   4.585974   3.941044
                    6          7          8          9         10
     6  C    0.000000
     7  C    1.366142   0.000000
     8  C    2.003624   1.409752   0.000000
     9  O    2.679877   2.344929   1.233914   0.000000
    10  S    3.049780   2.787877   2.025115   2.926790   0.000000
    11  N    3.332233   3.348509   3.289160   4.382390   1.777263
    12  H    7.085788   7.937001   8.435154   9.334583   7.493753
    13  H    7.176198   7.843953   8.218126   9.194528   6.971344
    14  H    5.300845   6.318730   6.515527   7.237026   5.619649
    15  H    3.035716   4.211038   4.444613   5.071268   4.125451
    16  H    2.048445   2.204286   3.065213   4.184963   2.992165
    17  H    1.121695   2.182945   2.121184   2.359793   3.135351
    18  H    2.197003   1.116661   2.041682   3.170332   2.708791
    19  H    3.677026   2.870534   2.123190   2.974497   1.398106
                   11         12         13         14         15
    11  N    0.000000
    12  H    5.931073   0.000000
    13  H    5.317600   1.528249   0.000000
    14  H    4.429128   2.612219   2.926949   0.000000
    15  H    3.435648   4.540289   4.834713   2.376160   0.000000
    16  H    2.211143   5.886115   5.750611   4.654107   3.047917
    17  H    3.710748   7.344819   7.469747   5.254428   2.922797
    18  H    2.936995   7.757267   7.512183   6.396635   4.557551
    19  H    2.705130   8.607391   8.017263   6.915243   5.373756
                   16         17         18         19
    16  H    0.000000
    17  H    2.959582   0.000000
    18  H    1.890731   3.114393   0.000000
    19  H    3.583521   3.947328   2.549875   0.000000
 Stoichiometry    C6H8N2OS2
 Framework group  C1[X(C6H8N2OS2)]
 Deg. of freedom    51
 Full point group                 C1      NOp   1
 Largest Abelian subgroup         C1      NOp   1
 Largest concise Abelian subgroup C1      NOp   1
                         Standard orientation:                         
 ---------------------------------------------------------------------
 Center     Atomic      Atomic             Coordinates (Angstroms)
 Number     Number       Type             X           Y           Z
 ---------------------------------------------------------------------
      1          7           0       -4.677099   -0.094737    0.428952
      2         16           0       -3.160973    0.041904   -0.362324
      3          6           0       -1.115919    0.369066    0.228834
      4          6           0       -0.752343   -0.913176   -0.364927
      5          6           0        0.295971   -1.223400    0.448817
      6          6           0        1.580307   -1.578456    0.078232
      7          6           0        2.421441   -0.986275    0.977209
      8          6           0        2.969560   -0.137117   -0.005592
      9          8           0        3.849968   -0.461767   -0.806858
     10         16           0        1.732146    1.456999   -0.174981
     11          7           0        0.092079    1.372350    0.504488
     12          1           0       -5.447978   -0.681953   -0.010521
     13          1           0       -5.189978    0.789249    0.312819
     14          1           0       -3.348150   -0.509534   -1.554763
     15          1           0       -1.129243   -1.308216   -1.263736
     16          1           0        0.275941   -0.657633    1.361525
     17          1           0        1.773003   -1.560192   -1.026636
     18          1           0        2.081979   -0.339578    1.821886
     19          1           0        2.746961    1.852400    0.701665
 ---------------------------------------------------------------------
 Rotational constants (GHZ):           2.2215737           0.3825570           0.3482265
 Standard basis: 6-31G(2df,p) (6D, 7F)
 There are   389 symmetry adapted cartesian basis functions of A   symmetry.
 There are   356 symmetry adapted basis functions of A   symmetry.
   356 basis functions,   588 primitive gaussians,   389 cartesian basis functions
    49 alpha electrons       49 beta electrons
       nuclear repulsion energy       758.6119632068 Hartrees.
 NAtoms=   19 NActive=   19 NUniq=   19 SFac= 1.00D+00 NAtFMM=   60 NAOKFM=F Big=F
 Integral buffers will be    131072 words long.
 Raffenetti 2 integral format.
 Two-electron integral symmetry is turned on.
 One-electron integrals computed using PRISM.
 PrsmSu:  requested number of processors reduced to:  13 ShMem   1 Linda.
 NBasis=   356 RedAO= T EigKep=  5.17D-04  NBF=   356
 NBsUse=   356 1.00D-06 EigRej= -1.00D+00 NBFU=   356
 ExpMin= 1.17D-01 ExpMax= 2.19D+04 ExpMxC= 3.30D+03 IAcc=3 IRadAn=         5 AccDes= 0.00D+00
 Harris functional with IExCor=  402 and IRadAn=       5 diagonalized for initial guess.
 HarFok:  IExCor=  402 AccDes= 0.00D+00 IRadAn=         5 IDoV= 1 UseB2=F ITyADJ=14
 ICtDFT=  3500011 ScaDFX=  1.000000  1.000000  1.000000  1.000000
 FoFCou: FMM=F IPFlag=           0 FMFlag=      100000 FMFlg1=           0
         NFxFlg=           0 DoJE=T BraDBF=F KetDBF=T FulRan=T
         wScrn=  0.000000 ICntrl=       500 IOpCl=  0 I1Cent=   200000004 NGrid=           0
         NMat0=    1 NMatS0=      1 NMatT0=    0 NMatD0=    1 NMtDS0=    0 NMtDT0=    0
 Petite list used in FoFCou.
 Requested convergence on RMS density matrix=1.00D-08 within 128 cycles.
 Requested convergence on MAX density matrix=1.00D-06.
 Requested convergence on             energy=1.00D-06.
 No special actions if energy rises.
 Integral accuracy reduced to 1.0D-05 until final iterations.
 EnCoef did     3 forward-backward iterations
 Initial convergence to 1.0D-05 achieved.  Increase integral accuracy.
 SCF Done:  E(RB3LYP) =  -1214.06343526     A.U. after   20 cycles
            NFock= 20  Conv=0.56D-08     -V/T= 2.0039

 **********************************************************************

            Population analysis using the SCF density.

 **********************************************************************

 Orbital symmetries:
       Occupied  (A) (A) (A) (A) (A) (A) (A) (A) (A) (A) (A) (A)
                 (A) (A) (A) (A) (A) (A) (A) (A) (A) (A) (A) (A)
                 (A) (A) (A) (A) (A) (A) (A) (A) (A) (A) (A) (A)
                 (A) (A) (A) (A) (A) (A) (A) (A) (A) (A) (A) (A)
                 (A)
       Virtual   (A) (A) (A) (A) (A) (A) (A) (A) (A) (A) (A) (A)
                 (A) (A) (A) (A) (A) (A) (A) (A) (A) (A) (A) (A)
                 (A) (A) (A) (A) (A) (A) (A) (A) (A) (A) (A) (A)
                 (A) (A) (A) (A) (A) (A) (A) (A) (A) (A) (A) (A)
                 (A) (A) (A) (A) (A) (A) (A) (A) (A) (A) (A) (A)
                 (A) (A) (A) (A) (A) (A) (A) (A) (A) (A) (A) (A)
                 (A) (A) (A) (A) (A) (A) (A) (A) (A) (A) (A) (A)
                 (A) (A) (A) (A) (A) (A) (A) (A) (A) (A) (A) (A)
                 (A) (A) (A) (A) (A) (A) (A) (A) (A) (A) (A) (A)
                 (A) (A) (A) (A) (A) (A) (A) (A) (A) (A) (A) (A)
                 (A) (A) (A) (A) (A) (A) (A) (A) (A) (A) (A) (A)
                 (A) (A) (A) (A) (A) (A) (A) (A) (A) (A) (A) (A)
                 (A) (A) (A) (A) (A) (A) (A) (A) (A) (A) (A) (A)
                 (A) (A) (A) (A) (A) (A) (A) (A) (A) (A) (A) (A)
                 (A) (A) (A) (A) (A) (A) (A) (A) (A) (A) (A) (A)
                 (A) (A) (A) (A) (A) (A) (A) (A) (A) (A) (A) (A)
                 (A) (A) (A) (A) (A) (A) (A) (A) (A) (A) (A) (A)
                 (A) (A) (A) (A) (A) (A) (A) (A) (A) (A) (A) (A)
                 (A) (A) (A) (A) (A) (A) (A) (A) (A) (A) (A) (A)
                 (A) (A) (A) (A) (A) (A) (A) (A) (A) (A) (A) (A)
                 (A) (A) (A) (A) (A) (A) (A) (A) (A) (A) (A) (A)
                 (A) (A) (A) (A) (A) (A) (A) (A) (A) (A) (A) (A)
                 (A) (A) (A) (A) (A) (A) (A) (A) (A) (A) (A) (A)
                 (A) (A) (A) (A) (A) (A) (A) (A) (A) (A) (A) (A)
                 (A) (A) (A) (A) (A) (A) (A) (A) (A) (A) (A) (A)
                 (A) (A) (A) (A) (A) (A) (A)
 The electronic state is 1-A.
 Alpha  occ. eigenvalues --  -88.94825 -88.89968 -19.15605 -14.35099 -14.34449
 Alpha  occ. eigenvalues --  -10.31040 -10.24256 -10.23555 -10.21532 -10.21434
 Alpha  occ. eigenvalues --  -10.21174  -8.00634  -7.96263  -5.96986  -5.96787
 Alpha  occ. eigenvalues --   -5.96377  -5.92808  -5.92438  -5.91625  -1.05297
 Alpha  occ. eigenvalues --   -0.90193  -0.89663  -0.84247  -0.82073  -0.71975
 Alpha  occ. eigenvalues --   -0.70183  -0.68101  -0.60268  -0.55472  -0.54827
 Alpha  occ. eigenvalues --   -0.50317  -0.49268  -0.47446  -0.46059  -0.45895
 Alpha  occ. eigenvalues --   -0.44288  -0.42175  -0.41247  -0.38976  -0.37821
 Alpha  occ. eigenvalues --   -0.37056  -0.32433  -0.30915  -0.30583  -0.27508
 Alpha  occ. eigenvalues --   -0.23697  -0.23329  -0.21289  -0.16942
 Alpha virt. eigenvalues --   -0.10549  -0.08291  -0.04078  -0.01700  -0.00754
 Alpha virt. eigenvalues --    0.01562   0.03139   0.05890   0.06364   0.09585
 Alpha virt. eigenvalues --    0.10949   0.12862   0.14189   0.14600   0.16844
 Alpha virt. eigenvalues --    0.20016   0.23126   0.23868   0.25657   0.26566
 Alpha virt. eigenvalues --    0.27349   0.27718   0.31163   0.31366   0.32450
 Alpha virt. eigenvalues --    0.33209   0.33804   0.35451   0.36713   0.37973
 Alpha virt. eigenvalues --    0.38349   0.39973   0.40317   0.42383   0.43940
 Alpha virt. eigenvalues --    0.46877   0.48658   0.49733   0.50393   0.50806
 Alpha virt. eigenvalues --    0.53730   0.54330   0.55256   0.55695   0.57366
 Alpha virt. eigenvalues --    0.59432   0.60700   0.60765   0.62302   0.62847
 Alpha virt. eigenvalues --    0.65409   0.66198   0.67740   0.69872   0.70276
 Alpha virt. eigenvalues --    0.71112   0.73090   0.74366   0.74815   0.75524
 Alpha virt. eigenvalues --    0.75738   0.76275   0.76992   0.78928   0.80351
 Alpha virt. eigenvalues --    0.80706   0.82054   0.82430   0.82850   0.83962
 Alpha virt. eigenvalues --    0.84401   0.86758   0.88435   0.89700   0.91335
 Alpha virt. eigenvalues --    0.92655   0.94328   0.95374   0.97260   0.98281
 Alpha virt. eigenvalues --    0.99299   1.02175   1.03358   1.05341   1.06297
 Alpha virt. eigenvalues --    1.07283   1.08042   1.09838   1.11822   1.12838
 Alpha virt. eigenvalues --    1.14399   1.15196   1.19029   1.23211   1.24395
 Alpha virt. eigenvalues --    1.25883   1.30303   1.31894   1.34541   1.35961
 Alpha virt. eigenvalues --    1.37117   1.39092   1.40387   1.42455   1.42610
 Alpha virt. eigenvalues --    1.45751   1.47435   1.48145   1.50040   1.51030
 Alpha virt. eigenvalues --    1.51407   1.51994   1.55291   1.57044   1.57734
 Alpha virt. eigenvalues --    1.60160   1.60617   1.63780   1.64418   1.66416
 Alpha virt. eigenvalues --    1.67420   1.70329   1.71486   1.73180   1.74247
 Alpha virt. eigenvalues --    1.75510   1.76262   1.79890   1.81451   1.83156
 Alpha virt. eigenvalues --    1.84285   1.85630   1.87986   1.88809   1.92035
 Alpha virt. eigenvalues --    1.93812   1.95636   1.97770   2.01837   2.04876
 Alpha virt. eigenvalues --    2.06859   2.07754   2.12083   2.13800   2.14967
 Alpha virt. eigenvalues --    2.16042   2.20581   2.21423   2.27157   2.28457
 Alpha virt. eigenvalues --    2.29502   2.31877   2.33617   2.35417   2.39337
 Alpha virt. eigenvalues --    2.40763   2.43905   2.46053   2.49626   2.49948
 Alpha virt. eigenvalues --    2.53717   2.55133   2.58581   2.59947   2.60934
 Alpha virt. eigenvalues --    2.62087   2.65039   2.67309   2.68421   2.71444
 Alpha virt. eigenvalues --    2.74850   2.77300   2.78150   2.80123   2.81415
 Alpha virt. eigenvalues --    2.83768   2.86934   2.88700   2.90063   2.91090
 Alpha virt. eigenvalues --    2.94834   2.95306   2.98612   3.00027   3.02405
 Alpha virt. eigenvalues --    3.03134   3.06964   3.08363   3.08525   3.09428
 Alpha virt. eigenvalues --    3.12741   3.13430   3.15124   3.19531   3.21988
 Alpha virt. eigenvalues --    3.24520   3.25780   3.27958   3.31320   3.33653
 Alpha virt. eigenvalues --    3.35943   3.38476   3.39953   3.45122   3.46034
 Alpha virt. eigenvalues --    3.51367   3.55834   3.59454   3.61027   3.61520
 Alpha virt. eigenvalues --    3.62733   3.68081   3.68487   3.70256   3.73360
 Alpha virt. eigenvalues --    3.76042   3.77652   3.80585   3.84652   3.89149
 Alpha virt. eigenvalues --    3.90373   3.91459   3.96425   3.98159   4.02477
 Alpha virt. eigenvalues --    4.03811   4.07102   4.09226   4.10574   4.15064
 Alpha virt. eigenvalues --    4.16348   4.17279   4.18340   4.19384   4.22648
 Alpha virt. eigenvalues --    4.23358   4.26094   4.28478   4.29512   4.31099
 Alpha virt. eigenvalues --    4.31420   4.33913   4.36796   4.37615   4.39409
 Alpha virt. eigenvalues --    4.42299   4.43345   4.44381   4.49629   4.50420
 Alpha virt. eigenvalues --    4.52165   4.52312   4.53664   4.55936   4.58577
 Alpha virt. eigenvalues --    4.59067   4.60628   4.62822   4.65724   4.68876
 Alpha virt. eigenvalues --    4.70319   4.72342   4.74637   4.77696   4.78516
 Alpha virt. eigenvalues --    4.80682   4.81178   4.83465   4.84677   4.87074
 Alpha virt. eigenvalues --    4.92470   4.95418   4.99295   5.01353   5.04975
 Alpha virt. eigenvalues --    5.06169   5.08577   5.09505   5.14050   5.15876
 Alpha virt. eigenvalues --    5.21831   5.22687   5.31194   5.37601   5.41797
 Alpha virt. eigenvalues --    5.45074   5.47734   5.53370   5.55371   5.66052
 Alpha virt. eigenvalues --    5.79571   6.03353   6.23436   6.30844   6.44782
 Alpha virt. eigenvalues --    6.80059   7.90538   9.28428  10.54542  10.98234
 Alpha virt. eigenvalues --   11.26439  11.36199  11.43693  11.74647  11.97346
 Alpha virt. eigenvalues --   12.31423  13.03064
          Condensed to atoms (all electrons):
               1          2          3          4          5          6
     1  N    6.681514   0.194911   0.006015  -0.000651  -0.000000   0.000000
     2  S    0.194911  15.975976  -0.187692  -0.008811  -0.000585  -0.000651
     3  C    0.006015  -0.187692   5.616823   0.336850  -0.043394   0.002721
     4  C   -0.000651  -0.008811   0.336850   4.941369   0.605451  -0.027989
     5  C   -0.000000  -0.000585  -0.043394   0.605451   4.822392   0.405505
     6  C    0.000000  -0.000651   0.002721  -0.027989   0.405505   4.954339
     7  C   -0.000000  -0.000048   0.002748  -0.003873  -0.073824   0.575384
     8  C    0.000000  -0.000013  -0.000179   0.000202   0.001332  -0.050464
     9  O   -0.000000   0.000000   0.000011  -0.000013   0.001206  -0.020767
    10  S    0.000006  -0.002293  -0.022385   0.010077   0.012372  -0.024508
    11  N   -0.000008   0.004241   0.351136  -0.055590  -0.021979  -0.003916
    12  H    0.300756  -0.012074  -0.000300   0.000019  -0.000000  -0.000000
    13  H    0.317158  -0.052499  -0.000720   0.000016  -0.000000  -0.000000
    14  H    0.006846   0.136363   0.016906  -0.008486   0.000389   0.000026
    15  H    0.000287  -0.021627  -0.030253   0.358574  -0.026646  -0.000974
    16  H    0.000008  -0.000707  -0.016559  -0.035884   0.386332  -0.047515
    17  H    0.000000   0.000027  -0.000495  -0.001965  -0.035402   0.369546
    18  H   -0.000000  -0.000001   0.000184   0.000710  -0.014840  -0.031009
    19  H   -0.000000   0.000012   0.000590  -0.000015   0.000462  -0.000199
               7          8          9         10         11         12
     1  N   -0.000000   0.000000  -0.000000   0.000006  -0.000008   0.300756
     2  S   -0.000048  -0.000013   0.000000  -0.002293   0.004241  -0.012074
     3  C    0.002748  -0.000179   0.000011  -0.022385   0.351136  -0.000300
     4  C   -0.003873   0.000202  -0.000013   0.010077  -0.055590   0.000019
     5  C   -0.073824   0.001332   0.001206   0.012372  -0.021979  -0.000000
     6  C    0.575384  -0.050464  -0.020767  -0.024508  -0.003916  -0.000000
     7  C    5.254059   0.317778  -0.048518  -0.115256   0.006152   0.000000
     8  C    0.317778   4.664198   0.677065   0.196369  -0.005549  -0.000000
     9  O   -0.048518   0.677065   7.710358  -0.033087   0.000179   0.000000
    10  S   -0.115256   0.196369  -0.033087  15.683862   0.078261  -0.000000
    11  N    0.006152  -0.005549   0.000179   0.078261   6.977617   0.000000
    12  H    0.000000  -0.000000   0.000000  -0.000000   0.000000   0.512722
    13  H   -0.000000  -0.000000   0.000000  -0.000001   0.000002  -0.036169
    14  H   -0.000001   0.000000  -0.000000   0.000107  -0.000303  -0.012812
    15  H   -0.000161  -0.000080  -0.000001   0.001268  -0.000446  -0.000048
    16  H   -0.029275  -0.001037  -0.000084   0.008689  -0.007753  -0.000000
    17  H   -0.038802  -0.000766   0.002188  -0.000222  -0.000595  -0.000000
    18  H    0.367025  -0.036266   0.002771  -0.003431   0.000364   0.000000
    19  H    0.003740   0.004017   0.000866   0.176760  -0.003818   0.000000
              13         14         15         16         17         18
     1  N    0.317158   0.006846   0.000287   0.000008   0.000000  -0.000000
     2  S   -0.052499   0.136363  -0.021627  -0.000707   0.000027  -0.000001
     3  C   -0.000720   0.016906  -0.030253  -0.016559  -0.000495   0.000184
     4  C    0.000016  -0.008486   0.358574  -0.035884  -0.001965   0.000710
     5  C   -0.000000   0.000389  -0.026646   0.386332  -0.035402  -0.014840
     6  C   -0.000000   0.000026  -0.000974  -0.047515   0.369546  -0.031009
     7  C   -0.000000  -0.000001  -0.000161  -0.029275  -0.038802   0.367025
     8  C   -0.000000   0.000000  -0.000080  -0.001037  -0.000766  -0.036266
     9  O    0.000000  -0.000000  -0.000001  -0.000084   0.002188   0.002771
    10  S   -0.000001   0.000107   0.001268   0.008689  -0.000222  -0.003431
    11  N    0.000002  -0.000303  -0.000446  -0.007753  -0.000595   0.000364
    12  H   -0.036169  -0.012812  -0.000048  -0.000000  -0.000000   0.000000
    13  H    0.524351  -0.001309  -0.000009  -0.000000   0.000000  -0.000000
    14  H   -0.001309   0.761977   0.010131   0.000049  -0.000000  -0.000000
    15  H   -0.000009   0.010131   0.558323   0.006439   0.001504  -0.000029
    16  H   -0.000000   0.000049   0.006439   0.594250   0.005630  -0.004717
    17  H    0.000000  -0.000000   0.001504   0.005630   0.524679   0.003817
    18  H   -0.000000  -0.000000  -0.000029  -0.004717   0.003817   0.565969
    19  H    0.000000  -0.000000  -0.000005  -0.000872   0.000129   0.002782
              19
     1  N   -0.000000
     2  S    0.000012
     3  C    0.000590
     4  C   -0.000015
     5  C    0.000462
     6  C   -0.000199
     7  C    0.003740
     8  C    0.004017
     9  O    0.000866
    10  S    0.176760
    11  N   -0.003818
    12  H    0.000000
    13  H    0.000000
    14  H   -0.000000
    15  H   -0.000005
    16  H   -0.000872
    17  H    0.000129
    18  H    0.002782
    19  H    0.654755
 Mulliken charges:
               1
     1  N   -0.506842
     2  S   -0.024529
     3  C   -0.032009
     4  C   -0.109991
     5  C   -0.018769
     6  C   -0.099530
     7  C   -0.217127
     8  C    0.233393
     9  O   -0.292174
    10  S    0.033413
    11  N   -0.317994
    12  H    0.247907
    13  H    0.249180
    14  H    0.090117
    15  H    0.143753
    16  H    0.143007
    17  H    0.170730
    18  H    0.146671
    19  H    0.160796
 Sum of Mulliken charges =  -0.00000
 Mulliken charges with hydrogens summed into heavy atoms:
               1
     1  N   -0.009754
     2  S    0.065588
     3  C   -0.032009
     4  C    0.033761
     5  C    0.124238
     6  C    0.071200
     7  C   -0.070456
     8  C    0.233393
     9  O   -0.292174
    10  S    0.194209
    11  N   -0.317994
 Electronic spatial extent (au):  <R**2>=           3035.2833
 Charge=             -0.0000 electrons
 Dipole moment (field-independent basis, Debye):
    X=             -2.5101    Y=             -1.2292    Z=             -1.0213  Tot=              2.9756
 Quadrupole moment (field-independent basis, Debye-Ang):
   XX=            -71.0228   YY=            -80.5072   ZZ=            -77.8412
   XY=              6.1208   XZ=             12.8254   YZ=              3.1973
 Traceless Quadrupole moment (field-independent basis, Debye-Ang):
   XX=              5.4343   YY=             -4.0501   ZZ=             -1.3842
   XY=              6.1208   XZ=             12.8254   YZ=              3.1973
 Octapole moment (field-independent basis, Debye-Ang**2):
  XXX=           -168.4956  YYY=              1.4701  ZZZ=             -6.1588  XYY=              1.1042
  XXY=             24.2736  XXZ=             -1.8663  XZZ=              2.2003  YZZ=             -2.6933
  YYZ=             -5.0546  XYZ=             -0.9966
 Hexadecapole moment (field-independent basis, Debye-Ang**3):
 XXXX=          -2668.0265 YYYY=           -553.7672 ZZZZ=           -214.6775 XXXY=             67.9655
 XXXZ=            173.3464 YYYX=             16.9769 YYYZ=             13.7320 ZZZX=              7.5147
 ZZZY=              9.9015 XXYY=           -591.4632 XXZZ=           -601.3463 YYZZ=           -129.1850
 XXYZ=             40.6019 YYXZ=             -1.2180 ZZXY=              6.6912
 N-N= 7.586119632068D+02 E-N=-4.383724654204D+03  KE= 1.209338274897D+03
 PrsmSu:  requested number of processors reduced to:  13 ShMem   1 Linda.
 Calling FoFJK, ICntrl=      2127 FMM=F ISym2X=0 I1Cent= 0 IOpClX= 0 NMat=1 NMatS=1 NMatT=0.
 ***** Axes restored to original set *****
 -------------------------------------------------------------------
 Center     Atomic                   Forces (Hartrees/Bohr)
 Number     Number              X              Y              Z
 -------------------------------------------------------------------
      1        7          -0.051552982   -0.012110809    0.044396315
      2       16          -0.032725736    0.000541345    0.018534378
      3        6           0.035817078   -0.055227641   -0.123623679
      4        6          -0.000580910    0.006701485   -0.048474042
      5        6          -0.010206048    0.018393351    0.034908837
      6        6          -0.006580177    0.005158085    0.030290426
      7        6           0.001142314   -0.010696727   -0.041539501
      8        6           0.115166136   -0.020151671   -0.006973076
      9        8          -0.058456857   -0.015662060   -0.017294570
     10       16           0.029012051   -0.005277892   -0.002867356
     11        7          -0.053052262    0.029056605    0.075125248
     12        1           0.025295953    0.010771055   -0.023702625
     13        1           0.005987641    0.001322309   -0.013607329
     14        1           0.004901636   -0.011912948    0.025548536
     15        1           0.011654845   -0.005429575    0.018326725
     16        1          -0.004439605    0.016502435    0.007967759
     17        1           0.001548758    0.034531524   -0.002460589
     18        1           0.011075196    0.021618273    0.022128769
     19        1          -0.024007030   -0.008127145    0.003315773
 -------------------------------------------------------------------
 Cartesian Forces:  Max     0.123623679 RMS     0.034207957

 GradGradGradGradGradGradGradGradGradGradGradGradGradGradGradGradGradGrad
 Berny optimization.
 FormGI is forming the generalized inverse of G from B-inverse, IUseBI=4.
 Internal  Forces:  Max     0.079470556 RMS     0.024166967
 Search for a local minimum.
 Step number   1 out of a maximum of   93
 All quantities printed in internal units (Hartrees-Bohrs-Radians)
 Mixed Optimization -- RFO/linear search
 Second derivative matrix not updated -- first step.
 ITU=  0
     Eigenvalues ---    0.00230   0.00566   0.00792   0.00801   0.00982
     Eigenvalues ---    0.01089   0.01437   0.02075   0.02476   0.02894
     Eigenvalues ---    0.03120   0.03609   0.04805   0.05585   0.05667
     Eigenvalues ---    0.07682   0.09903   0.10482   0.11707   0.12766
     Eigenvalues ---    0.12964   0.14556   0.14938   0.15641   0.15719
     Eigenvalues ---    0.16000   0.16000   0.19465   0.20429   0.21408
     Eigenvalues ---    0.22172   0.22270   0.23218   0.24107   0.24194
     Eigenvalues ---    0.24518   0.27487   0.27663   0.31392   0.31905
     Eigenvalues ---    0.34072   0.36408   0.36726   0.37992   0.39649
     Eigenvalues ---    0.42998   0.43021   0.47048   0.49837   0.51866
     Eigenvalues ---    0.89475
 RFO step:  Lambda=-1.40701109D-01 EMin= 2.30000000D-03
 Linear search not attempted -- first point.
 Maximum step size (   0.300) exceeded in Quadratic search.
    -- Step size scaled by   0.523
 Iteration  1 RMS(Cart)=  0.10472383 RMS(Int)=  0.00293914
 Iteration  2 RMS(Cart)=  0.00387427 RMS(Int)=  0.00080637
 Iteration  3 RMS(Cart)=  0.00000697 RMS(Int)=  0.00080634
 Iteration  4 RMS(Cart)=  0.00000001 RMS(Int)=  0.00080634
 Variable       Old X    -DE/DX   Delta X   Delta X   Delta X     New X
                                 (Linear)    (Quad)   (Total)
    R1        3.24209   0.02023   0.00000   0.02198   0.02198   3.26407
    R2        2.01077  -0.02801   0.00000  -0.02813  -0.02813   1.98264
    R3        1.94372  -0.00262   0.00000  -0.00240  -0.00240   1.94132
    R4        4.07005   0.07086   0.00000   0.15094   0.15094   4.22098
    R5        2.50774   0.02762   0.00000   0.03476   0.03476   2.54250
    R6        2.75724   0.03713   0.00000   0.03747   0.03796   2.79520
    R7        3.01281  -0.07947   0.00000  -0.11496  -0.11534   2.89747
    R8        2.57543   0.01400   0.00000   0.01385   0.01440   2.58983
    R9        1.98733   0.02104   0.00000   0.02048   0.02048   2.00781
   R10        2.61365   0.03829   0.00000   0.03515   0.03595   2.64960
   R11        2.02961  -0.00026   0.00000  -0.00027  -0.00027   2.02934
   R12        2.58163   0.03567   0.00000   0.03151   0.03180   2.61343
   R13        2.11970  -0.02406   0.00000  -0.02768  -0.02768   2.09202
   R14        2.66405   0.05841   0.00000   0.05470   0.05492   2.71896
   R15        2.11018  -0.02015   0.00000  -0.02292  -0.02292   2.08726
   R16        2.33176  -0.05515   0.00000  -0.02785  -0.02785   2.30391
   R17        3.82691   0.02818   0.00000   0.04913   0.04845   3.87536
   R18        3.35854   0.03098   0.00000   0.03332   0.03257   3.39111
   R19        2.64204  -0.01087   0.00000  -0.01565  -0.01565   2.62639
    A1        2.08712  -0.01946   0.00000  -0.03149  -0.03144   2.05568
    A2        1.89665  -0.00525   0.00000  -0.00599  -0.00592   1.89073
    A3        1.63726   0.01996   0.00000   0.04050   0.04061   1.67787
    A4        2.38126   0.01357   0.00000   0.01998   0.01994   2.40120
    A5        1.83039  -0.01361   0.00000  -0.02125  -0.02130   1.80909
    A6        2.03050   0.00157   0.00000   0.00527   0.00524   2.03574
    A7        1.56221   0.01977   0.00000   0.02631   0.02634   1.58856
    A8        2.61097  -0.00910   0.00000  -0.01402  -0.01369   2.59728
    A9        2.02037  -0.01096   0.00000  -0.01270  -0.01281   2.00756
   A10        1.72008   0.04374   0.00000   0.07733   0.07719   1.79728
   A11        2.20013  -0.01687   0.00000  -0.02999  -0.02976   2.17037
   A12        2.34686  -0.02830   0.00000  -0.05079  -0.05092   2.29594
   A13        2.23031  -0.02558   0.00000  -0.03755  -0.03730   2.19302
   A14        1.95320   0.00437   0.00000   0.00519   0.00460   1.95780
   A15        1.96086   0.01319   0.00000   0.01965   0.01976   1.98062
   A16        1.85891  -0.00403   0.00000   0.01589   0.01670   1.87561
   A17        2.00343   0.00130   0.00000  -0.00521  -0.00508   1.99835
   A18        2.13571  -0.00863   0.00000  -0.02313  -0.02395   2.11175
   A19        1.61255   0.03606   0.00000   0.06992   0.06894   1.68149
   A20        2.16715  -0.02762   0.00000  -0.04681  -0.04740   2.11975
   A21        1.87203  -0.00817   0.00000  -0.00532  -0.00318   1.86885
   A22        2.17930   0.04282   0.00000   0.05378   0.05379   2.23309
   A23        1.87014  -0.01247   0.00000  -0.00942  -0.00977   1.86036
   A24        2.20034  -0.03192   0.00000  -0.04557  -0.04545   2.15489
   A25        2.08794   0.04713   0.00000   0.06651   0.06488   2.15282
   A26        1.29393   0.02553   0.00000   0.05728   0.05845   1.35238
   A27        2.03037  -0.01786   0.00000  -0.03814  -0.04101   1.98937
   A28        2.29571   0.00912   0.00000   0.00598   0.00511   2.30083
    D1       -2.64652   0.00606   0.00000   0.01711   0.01711  -2.62941
    D2        0.16301   0.01057   0.00000   0.03117   0.03107   0.19408
    D3        1.78995  -0.00549   0.00000  -0.01364  -0.01355   1.77640
    D4       -1.68371  -0.00098   0.00000   0.00042   0.00042  -1.68329
    D5        2.09364   0.00179   0.00000   0.00835   0.00818   2.10182
    D6       -1.61379   0.00372   0.00000   0.01207   0.01234  -1.60145
    D7       -0.68870  -0.00147   0.00000  -0.00387  -0.00413  -0.69283
    D8        1.88706   0.00045   0.00000  -0.00015   0.00002   1.88708
    D9       -2.62737  -0.00628   0.00000  -0.01208  -0.01230  -2.63967
   D10        0.68332   0.00310   0.00000   0.00935   0.00899   0.69231
   D11        0.82023  -0.00401   0.00000  -0.00832  -0.00903   0.81120
   D12       -2.15227   0.00537   0.00000   0.01311   0.01227  -2.14000
   D13       -2.14772   0.00631   0.00000   0.02383   0.02396  -2.12376
   D14        0.35629   0.01236   0.00000   0.03253   0.03333   0.38962
   D15       -2.22393   0.01565   0.00000   0.03454   0.03334  -2.19059
   D16        0.32678   0.00617   0.00000   0.01885   0.01806   0.34483
   D17        0.72586   0.00798   0.00000   0.01560   0.01485   0.74071
   D18       -3.00662  -0.00150   0.00000  -0.00009  -0.00044  -3.00706
   D19        2.47120  -0.03364   0.00000  -0.07441  -0.07527   2.39593
   D20        0.04949  -0.01802   0.00000  -0.05179  -0.05239  -0.00291
   D21       -0.07741  -0.02164   0.00000  -0.05462  -0.05537  -0.13278
   D22       -2.49913  -0.00602   0.00000  -0.03199  -0.03249  -2.53162
   D23       -1.98023   0.02195   0.00000   0.04474   0.04453  -1.93570
   D24       -0.01177   0.02976   0.00000   0.07531   0.07409   0.06232
   D25        0.37379   0.01016   0.00000   0.03113   0.03125   0.40504
   D26        2.34224   0.01797   0.00000   0.06170   0.06082   2.40306
   D27       -1.41660  -0.01629   0.00000  -0.03488  -0.03458  -1.45118
   D28        1.46339  -0.02895   0.00000  -0.04865  -0.04960   1.41378
   D29        2.65029   0.00088   0.00000  -0.01193  -0.01195   2.63834
   D30       -0.75291  -0.01178   0.00000  -0.02570  -0.02697  -0.77988
   D31       -0.27311   0.00094   0.00000  -0.00390  -0.00456  -0.27768
   D32        1.67548  -0.01069   0.00000  -0.02461  -0.02228   1.65320
   D33        2.60282   0.00252   0.00000   0.00133  -0.00004   2.60278
   D34       -1.73177  -0.00911   0.00000  -0.01939  -0.01776  -1.74952
   D35       -1.01059   0.02167   0.00000   0.03430   0.03460  -0.97599
   D36       -2.51195  -0.02187   0.00000  -0.04653  -0.04368  -2.55563
         Item               Value     Threshold  Converged?
 Maximum Force            0.079471     0.000450     NO 
 RMS     Force            0.024167     0.000300     NO 
 Maximum Displacement     0.354346     0.001800     NO 
 RMS     Displacement     0.103627     0.001200     NO 
 Predicted change in Energy=-6.330644D-02
 GradGradGradGradGradGradGradGradGradGradGradGradGradGradGradGradGradGrad

                          Input orientation:                          
 ---------------------------------------------------------------------
 Center     Atomic      Atomic             Coordinates (Angstroms)
 Number     Number       Type             X           Y           Z
 ---------------------------------------------------------------------
      1          7           0        1.212909   -0.180850   -0.589582
      2         16           0        2.793592   -0.674313   -1.080911
      3          6           0        4.153747   -0.353981   -2.823481
      4          6           0        5.185153    0.237267   -1.943404
      5          6           0        5.843048    1.102292   -2.778339
      6          6           0        7.224877    1.117180   -3.015469
      7          6           0        7.410926    1.295091   -4.374268
      8          6           0        7.922085   -0.023609   -4.638703
      9          8           0        9.065008   -0.425762   -4.503103
     10         16           0        6.295656   -1.264846   -4.778873
     11          7           0        4.659089   -0.816123   -4.195334
     12          1           0        1.023103   -0.101477    0.439218
     13          1           0        0.563759   -0.958324   -0.761321
     14          1           0        3.366689   -1.089515    0.063358
     15          1           0        5.422760   -0.122657   -0.972384
     16          1           0        5.257865    1.355410   -3.642465
     17          1           0        7.794625    0.349096   -2.457803
     18          1           0        6.557360    1.454997   -5.056793
     19          1           0        6.533719   -0.929318   -6.106413
 ---------------------------------------------------------------------
                    Distance matrix (angstroms):
                    1          2          3          4          5
     1  N    0.000000
     2  S    1.727271   0.000000
     3  C    3.697135   2.233648   0.000000
     4  C    4.217390   2.700822   1.479157   0.000000
     5  C    5.279706   3.916218   2.230808   1.370478   0.000000
     6  C    6.611624   5.156380   3.410721   2.466586   1.402108
     7  C    7.410645   6.003709   3.966559   3.461525   2.245529
     8  C    7.837930   6.275567   4.195777   3.850129   3.008489
     9  O    8.776735   7.148694   5.191027   4.695204   3.961160
    10  S    6.675292   5.127192   3.039902   3.395503   3.132145
    11  N    5.028039   3.633156   1.533273   2.541173   2.662696
    12  H    1.049168   2.402824   4.528785   4.807733   5.918918
    13  H    1.027305   2.270452   4.183987   4.917727   6.015429
    14  H    2.427090   1.345431   3.081283   3.015668   4.360230
    15  H    4.227619   2.688611   2.256206   1.062489   2.222299
    16  H    5.295456   4.093162   2.193588   2.035273   1.073881
    17  H    6.862221   5.287110   3.726128   2.662040   2.116294
    18  H    7.155077   5.874312   3.746657   3.613725   2.413710
    19  H    7.701081   6.269709   4.095476   4.528818   3.959867
                    6          7          8          9         10
     6  C    0.000000
     7  C    1.382967   0.000000
     8  C    2.102947   1.438812   0.000000
     9  O    2.824855   2.390381   1.219174   0.000000
    10  S    3.105977   2.821491   2.050753   2.906789   0.000000
    11  N    3.422428   3.473017   3.387004   4.433872   1.794497
    12  H    7.202916   8.119379   8.566639   9.444783   7.508775
    13  H    7.332080   8.063185   8.369751   9.303536   7.006376
    14  H    5.406875   6.460241   6.633036   7.332392   5.661871
    15  H    2.993163   4.187556   4.438281   5.081714   4.068894
    16  H    2.078223   2.274828   3.161052   4.290408   3.038778
    17  H    1.107049   2.171398   2.216186   2.529334   3.199857
    18  H    2.174098   1.104530   2.055128   3.183100   2.746503
    19  H    3.770914   2.952595   2.214056   3.038354   1.389827
                   11         12         13         14         15
    11  N    0.000000
    12  H    5.933817   0.000000
    13  H    5.346438   1.544823   0.000000
    14  H    4.458868   2.570969   2.924674   0.000000
    15  H    3.384006   4.620611   4.934853   2.496999   0.000000
    16  H    2.319429   6.059361   5.974026   4.825694   3.056338
    17  H    3.769395   7.378974   7.541407   5.294570   2.838092
    18  H    3.082779   7.953411   7.758765   6.547585   4.523130
    19  H    2.679417   8.596365   8.013194   6.936989   5.314433
                   16         17         18         19
    16  H    0.000000
    17  H    2.975103   0.000000
    18  H    1.923260   3.083600   0.000000
    19  H    3.594277   4.066520   2.605230   0.000000
 Stoichiometry    C6H8N2OS2
 Framework group  C1[X(C6H8N2OS2)]
 Deg. of freedom    51
 Full point group                 C1      NOp   1
 Largest Abelian subgroup         C1      NOp   1
 Largest concise Abelian subgroup C1      NOp   1
                         Standard orientation:                         
 ---------------------------------------------------------------------
 Center     Atomic      Atomic             Coordinates (Angstroms)
 Number     Number       Type             X           Y           Z
 ---------------------------------------------------------------------
      1          7           0       -4.781044   -0.067422    0.361225
      2         16           0       -3.221097    0.039880   -0.372612
      3          6           0       -1.110498    0.367821    0.280849
      4          6           0       -0.705142   -0.938087   -0.283242
      5          6           0        0.349936   -1.302592    0.511840
      6          6           0        1.631787   -1.648250    0.060968
      7          6           0        2.545654   -1.039528    0.901744
      8          6           0        3.045348   -0.096193   -0.062934
      9          8           0        3.900122   -0.275413   -0.913597
     10         16           0        1.701335    1.451740   -0.118802
     11          7           0        0.041588    1.341845    0.554534
     12          1           0       -5.502080   -0.667791   -0.108263
     13          1           0       -5.268941    0.824730    0.215010
     14          1           0       -3.397616   -0.529752   -1.578657
     15          1           0       -1.062388   -1.330466   -1.203729
     16          1           0        0.353101   -0.775928    1.447701
     17          1           0        1.756801   -1.612621   -1.038422
     18          1           0        2.220198   -0.459843    1.783803
     19          1           0        2.649825    1.909047    0.788311
 ---------------------------------------------------------------------
 Rotational constants (GHZ):           2.1721465           0.3696078           0.3369780
 Standard basis: 6-31G(2df,p) (6D, 7F)
 There are   389 symmetry adapted cartesian basis functions of A   symmetry.
 There are   356 symmetry adapted basis functions of A   symmetry.
   356 basis functions,   588 primitive gaussians,   389 cartesian basis functions
    49 alpha electrons       49 beta electrons
       nuclear repulsion energy       748.7708395822 Hartrees.
 NAtoms=   19 NActive=   19 NUniq=   19 SFac= 1.00D+00 NAtFMM=   60 NAOKFM=F Big=F
 Integral buffers will be    131072 words long.
 Raffenetti 2 integral format.
 Two-electron integral symmetry is turned on.
 One-electron integrals computed using PRISM.
 PrsmSu:  requested number of processors reduced to:  13 ShMem   1 Linda.
 NBasis=   356 RedAO= T EigKep=  5.47D-04  NBF=   356
 NBsUse=   356 1.00D-06 EigRej= -1.00D+00 NBFU=   356
 Initial guess from the checkpoint file:  "N[SH]dC1CdCCdCCqdOr[SH]dN1.chk"
 B after Tr=     0.000000   -0.000000   -0.000000
         Rot=    0.999857   -0.016261   -0.000923   -0.004648 Ang=  -1.94 deg.
 ExpMin= 1.17D-01 ExpMax= 2.19D+04 ExpMxC= 3.30D+03 IAcc=2 IRadAn=         4 AccDes= 0.00D+00
 Harris functional with IExCor=  402 and IRadAn=       4 diagonalized for initial guess.
 HarFok:  IExCor=  402 AccDes= 0.00D+00 IRadAn=         4 IDoV= 1 UseB2=F ITyADJ=14
 ICtDFT=  3500011 ScaDFX=  1.000000  1.000000  1.000000  1.000000
 FoFCou: FMM=F IPFlag=           0 FMFlag=      100000 FMFlg1=           0
         NFxFlg=           0 DoJE=T BraDBF=F KetDBF=T FulRan=T
         wScrn=  0.000000 ICntrl=       500 IOpCl=  0 I1Cent=   200000004 NGrid=           0
         NMat0=    1 NMatS0=      1 NMatT0=    0 NMatD0=    1 NMtDS0=    0 NMtDT0=    0
 Petite list used in FoFCou.
 Requested convergence on RMS density matrix=1.00D-08 within 128 cycles.
 Requested convergence on MAX density matrix=1.00D-06.
 Requested convergence on             energy=1.00D-06.
 No special actions if energy rises.
 Integral accuracy reduced to 1.0D-05 until final iterations.
 Initial convergence to 1.0D-05 achieved.  Increase integral accuracy.
 SCF Done:  E(RB3LYP) =  -1214.13064672     A.U. after   17 cycles
            NFock= 17  Conv=0.87D-08     -V/T= 2.0042
 PrsmSu:  requested number of processors reduced to:  13 ShMem   1 Linda.
 Calling FoFJK, ICntrl=      2127 FMM=F ISym2X=0 I1Cent= 0 IOpClX= 0 NMat=1 NMatS=1 NMatT=0.
 ***** Axes restored to original set *****
 -------------------------------------------------------------------
 Center     Atomic                   Forces (Hartrees/Bohr)
 Number     Number              X              Y              Z
 -------------------------------------------------------------------
      1        7          -0.040587591   -0.014155526    0.034222907
      2       16          -0.026815015    0.001864804    0.025107617
      3        6           0.065702252   -0.049171487   -0.129740062
      4        6          -0.005093604    0.004015555   -0.048150552
      5        6          -0.005045386    0.007355001    0.029488105
      6        6          -0.016922069    0.002294388    0.006438843
      7        6           0.006180892   -0.023197546   -0.019931042
      8        6           0.091419486   -0.010402208   -0.000367613
      9        8          -0.049940470   -0.005319406   -0.011449493
     10       16           0.029756209   -0.003509505   -0.000536306
     11        7          -0.069209576    0.035448386    0.090037380
     12        1           0.019028238    0.010299081   -0.017753620
     13        1           0.005007581    0.001794963   -0.010328609
     14        1           0.001565025   -0.009516195    0.014352427
     15        1           0.007115042   -0.002692491    0.012127728
     16        1          -0.003628677    0.013768627    0.003885910
     17        1           0.007378473    0.026507192    0.000407940
     18        1           0.007970689    0.019290354    0.015058668
     19        1          -0.023881498   -0.004673987    0.007129774
 -------------------------------------------------------------------
 Cartesian Forces:  Max     0.129740062 RMS     0.033094402

 GradGradGradGradGradGradGradGradGradGradGradGradGradGradGradGradGradGrad
 Berny optimization.
 Using GEDIIS/GDIIS optimizer.
 FormGI is forming the generalized inverse of G from B-inverse, IUseBI=4.
 Internal  Forces:  Max     0.105694805 RMS     0.020500467
 Search for a local minimum.
 Step number   2 out of a maximum of   93
 All quantities printed in internal units (Hartrees-Bohrs-Radians)
 Mixed Optimization -- RFO/linear search
 Update second derivatives using D2CorX and points    1    2
 DE= -6.72D-02 DEPred=-6.33D-02 R= 1.06D+00
 TightC=F SS=  1.41D+00  RLast= 3.58D-01 DXNew= 5.0454D-01 1.0751D+00
 Trust test= 1.06D+00 RLast= 3.58D-01 DXMaxT set to 5.05D-01
 ITU=  1  0
 Use linear search instead of GDIIS.
 Linear search step of   0.601 exceeds DXMaxT=   0.505 but not scaled.
 Quartic linear search produced a step of  2.00000.
 Iteration  1 RMS(Cart)=  0.19355081 RMS(Int)=  0.01642579
 Iteration  2 RMS(Cart)=  0.01998256 RMS(Int)=  0.00446392
 Iteration  3 RMS(Cart)=  0.00013479 RMS(Int)=  0.00446327
 Iteration  4 RMS(Cart)=  0.00000087 RMS(Int)=  0.00446327
 Variable       Old X    -DE/DX   Delta X   Delta X   Delta X     New X
                                 (Linear)    (Quad)   (Total)
    R1        3.26407   0.01630   0.04395   0.00000   0.04395   3.30802
    R2        1.98264  -0.02007  -0.05626   0.00000  -0.05626   1.92638
    R3        1.94132  -0.00280  -0.00479   0.00000  -0.00479   1.93653
    R4        4.22098   0.06242   0.30188   0.00000   0.30188   4.52286
    R5        2.54250   0.01581   0.06951   0.00000   0.06951   2.61201
    R6        2.79520   0.01479   0.07592   0.00000   0.07871   2.87392
    R7        2.89747  -0.10569  -0.23068   0.00000  -0.23237   2.66510
    R8        2.58983   0.00298   0.02880   0.00000   0.03165   2.62148
    R9        2.00781   0.01359   0.04097   0.00000   0.04097   2.04878
   R10        2.64960   0.02174   0.07190   0.00000   0.07595   2.72555
   R11        2.02934   0.00210  -0.00054   0.00000  -0.00054   2.02880
   R12        2.61343   0.01254   0.06359   0.00000   0.06521   2.67864
   R13        2.09202  -0.01439  -0.05535   0.00000  -0.05535   2.03666
   R14        2.71896   0.02894   0.10983   0.00000   0.11038   2.82935
   R15        2.08726  -0.01267  -0.04585   0.00000  -0.04585   2.04141
   R16        2.30391  -0.04634  -0.05571   0.00000  -0.05571   2.24820
   R17        3.87536   0.02432   0.09690   0.00000   0.09311   3.96847
   R18        3.39111   0.02749   0.06514   0.00000   0.06140   3.45251
   R19        2.62639  -0.01203  -0.03129   0.00000  -0.03129   2.59510
    A1        2.05568  -0.01606  -0.06289   0.00000  -0.06263   1.99305
    A2        1.89073  -0.00395  -0.01185   0.00000  -0.01155   1.87918
    A3        1.67787   0.01622   0.08122   0.00000   0.08183   1.75970
    A4        2.40120   0.01346   0.03989   0.00000   0.03964   2.44084
    A5        1.80909  -0.01121  -0.04260   0.00000  -0.04289   1.76620
    A6        2.03574  -0.00058   0.01048   0.00000   0.01031   2.04606
    A7        1.58856   0.01133   0.05269   0.00000   0.05334   1.64190
    A8        2.59728  -0.00960  -0.02738   0.00000  -0.02553   2.57175
    A9        2.00756  -0.00213  -0.02562   0.00000  -0.02670   1.98086
   A10        1.79728   0.03537   0.15439   0.00000   0.15256   1.94984
   A11        2.17037  -0.01408  -0.05952   0.00000  -0.05759   2.11279
   A12        2.29594  -0.02193  -0.10185   0.00000  -0.10191   2.19403
   A13        2.19302  -0.02037  -0.07459   0.00000  -0.07131   2.12171
   A14        1.95780   0.00410   0.00920   0.00000   0.00514   1.96294
   A15        1.98062   0.01028   0.03953   0.00000   0.03950   2.02012
   A16        1.87561  -0.00295   0.03340   0.00000   0.03833   1.91394
   A17        1.99835   0.00389  -0.01016   0.00000  -0.00938   1.98897
   A18        2.11175  -0.00730  -0.04790   0.00000  -0.05233   2.05942
   A19        1.68149   0.01823   0.13788   0.00000   0.13131   1.81279
   A20        2.11975  -0.02067  -0.09479   0.00000  -0.09716   2.02259
   A21        1.86885   0.00046  -0.00635   0.00000   0.00534   1.87419
   A22        2.23309   0.03361   0.10757   0.00000   0.10782   2.34091
   A23        1.86036  -0.01224  -0.01955   0.00000  -0.02252   1.83784
   A24        2.15489  -0.02292  -0.09090   0.00000  -0.08940   2.06549
   A25        2.15282   0.04003   0.12977   0.00000   0.11884   2.27166
   A26        1.35238   0.02256   0.11691   0.00000   0.12111   1.47349
   A27        1.98937  -0.02158  -0.08201   0.00000  -0.09608   1.89329
   A28        2.30083  -0.00719   0.01023   0.00000   0.00626   2.30709
    D1       -2.62941   0.00471   0.03422   0.00000   0.03424  -2.59517
    D2        0.19408   0.00988   0.06215   0.00000   0.06162   0.25570
    D3        1.77640  -0.00457  -0.02709   0.00000  -0.02656   1.74984
    D4       -1.68329   0.00059   0.00084   0.00000   0.00081  -1.68248
    D5        2.10182   0.00131   0.01636   0.00000   0.01546   2.11728
    D6       -1.60145   0.00425   0.02467   0.00000   0.02612  -1.57534
    D7       -0.69283  -0.00348  -0.00827   0.00000  -0.00972  -0.70255
    D8        1.88708  -0.00054   0.00004   0.00000   0.00094   1.88802
    D9       -2.63967  -0.00538  -0.02461   0.00000  -0.02546  -2.66513
   D10        0.69231  -0.00049   0.01798   0.00000   0.01621   0.70852
   D11        0.81120  -0.00212  -0.01805   0.00000  -0.02166   0.78954
   D12       -2.14000   0.00277   0.02453   0.00000   0.02001  -2.11999
   D13       -2.12376   0.00332   0.04792   0.00000   0.04895  -2.07481
   D14        0.38962   0.00758   0.06666   0.00000   0.07133   0.46095
   D15       -2.19059   0.00815   0.06668   0.00000   0.05997  -2.13062
   D16        0.34483   0.00208   0.03611   0.00000   0.03226   0.37709
   D17        0.74071   0.00483   0.02970   0.00000   0.02518   0.76589
   D18       -3.00706  -0.00124  -0.00088   0.00000  -0.00253  -3.00958
   D19        2.39593  -0.02497  -0.15055   0.00000  -0.15465   2.24128
   D20       -0.00291  -0.01505  -0.10479   0.00000  -0.10797  -0.11087
   D21       -0.13278  -0.01684  -0.11075   0.00000  -0.11445  -0.24724
   D22       -2.53162  -0.00693  -0.06499   0.00000  -0.06777  -2.59939
   D23       -1.93570   0.01470   0.08906   0.00000   0.08798  -1.84772
   D24        0.06232   0.02017   0.14819   0.00000   0.14081   0.20313
   D25        0.40504   0.00992   0.06250   0.00000   0.06351   0.46855
   D26        2.40306   0.01539   0.12163   0.00000   0.11634   2.51940
   D27       -1.45118  -0.01341  -0.06917   0.00000  -0.06636  -1.51754
   D28        1.41378  -0.02485  -0.09920   0.00000  -0.10398   1.30980
   D29        2.63834   0.00093  -0.02390   0.00000  -0.02402   2.61431
   D30       -0.77988  -0.01052  -0.05394   0.00000  -0.06165  -0.84154
   D31       -0.27768   0.00068  -0.00912   0.00000  -0.01293  -0.29061
   D32        1.65320  -0.01075  -0.04456   0.00000  -0.03216   1.62104
   D33        2.60278   0.00096  -0.00008   0.00000  -0.00666   2.59612
   D34       -1.74952  -0.01047  -0.03552   0.00000  -0.02590  -1.77542
   D35       -0.97599   0.01499   0.06920   0.00000   0.06894  -0.90705
   D36       -2.55563  -0.01763  -0.08736   0.00000  -0.07069  -2.62632
         Item               Value     Threshold  Converged?
 Maximum Force            0.105695     0.000450     NO 
 RMS     Force            0.020500     0.000300     NO 
 Maximum Displacement     0.670414     0.001800     NO 
 RMS     Displacement     0.198676     0.001200     NO 
 Predicted change in Energy=-9.608900D-02
 GradGradGradGradGradGradGradGradGradGradGradGradGradGradGradGradGradGrad

                          Input orientation:                          
 ---------------------------------------------------------------------
 Center     Atomic      Atomic             Coordinates (Angstroms)
 Number     Number       Type             X           Y           Z
 ---------------------------------------------------------------------
      1          7           0        1.052924   -0.373942   -0.488589
      2         16           0        2.682508   -0.717776   -1.027652
      3          6           0        4.109244   -0.321643   -2.908034
      4          6           0        5.167345    0.402503   -2.090170
      5          6           0        5.877726    1.311984   -2.859976
      6          6           0        7.311334    1.229602   -2.994904
      7          6           0        7.663171    1.251421   -4.367847
      8          6           0        8.052179   -0.164334   -4.661092
      9          8           0        9.065820   -0.780530   -4.570485
     10         16           0        6.243816   -1.227903   -4.754601
     11          7           0        4.577420   -0.773237   -4.159370
     12          1           0        0.960081   -0.270289    0.521265
     13          1           0        0.488608   -1.214260   -0.648468
     14          1           0        3.288631   -1.076183    0.161752
     15          1           0        5.450515    0.050257   -1.104697
     16          1           0        5.342640    1.609189   -3.741993
     17          1           0        7.767716    0.481498   -2.367517
     18          1           0        6.871729    1.517260   -5.053359
     19          1           0        6.312563   -0.963057   -6.100333
 ---------------------------------------------------------------------
                    Distance matrix (angstroms):
                    1          2          3          4          5
     1  N    0.000000
     2  S    1.750530   0.000000
     3  C    3.898403   2.393394   0.000000
     4  C    4.482900   2.925472   1.520812   0.000000
     5  C    5.634230   4.205563   2.408023   1.387227   0.000000
     6  C    6.929695   5.393366   3.559114   2.469682   1.442299
     7  C    7.834910   6.312024   4.151624   3.483909   2.337767
     8  C    8.151276   6.507039   4.317950   3.905536   3.186186
     9  O    9.001872   7.300841   5.248044   4.769658   4.179521
    10  S    6.772996   5.180086   2.964374   3.303968   3.189773
    11  N    5.104523   3.660796   1.410308   2.451931   2.779814
    12  H    1.019396   2.359267   4.656174   4.997330   6.174108
    13  H    1.024768   2.281113   4.360208   5.155872   6.349431
    14  H    2.431969   1.382216   3.265933   3.284391   4.640861
    15  H    4.460756   2.873617   2.278013   1.084167   2.203513
    16  H    5.737518   4.456312   2.438210   2.053130   1.073593
    17  H    7.024997   5.393778   3.784391   2.616312   2.122330
    18  H    7.633628   6.225053   3.951621   3.595567   2.416839
    19  H    7.713789   6.242560   3.931513   4.388358   3.983065
                    6          7          8          9         10
     6  C    0.000000
     7  C    1.417476   0.000000
     8  C    2.295232   1.497225   0.000000
     9  O    3.098597   2.477360   1.189696   0.000000
    10  S    3.205536   2.882914   2.100024   2.863172   0.000000
    11  N    3.583522   3.696560   3.563205   4.507194   1.826990
    12  H    7.412930   8.435071   8.784412   9.585889   7.527923
    13  H    7.617600   8.449126   8.626187   9.441341   7.069861
    14  H    5.609212   6.713538   6.839786   7.473780   5.738175
    15  H    2.902824   4.121504   4.411650   5.076646   3.947761
    16  H    2.139623   2.429929   3.366263   4.501025   3.144294
    17  H    1.077756   2.145934   2.399689   2.851466   3.307944
    18  H    2.124438   1.080267   2.091673   3.213572   2.831864
    19  H    3.930519   3.119224   2.394918   3.155023   1.373268
                   11         12         13         14         15
    11  N    0.000000
    12  H    5.936871   0.000000
    13  H    5.407340   1.575323   0.000000
    14  H    4.519385   2.490153   2.918159   0.000000
    15  H    3.281991   4.786491   5.140785   2.747089   0.000000
    16  H    2.536872   6.396455   6.411193   5.164242   3.065492
    17  H    3.868215   7.433313   7.669169   5.374548   2.673968
    18  H    3.362952   8.319817   8.222440   6.838269   4.445659
    19  H    2.610381   8.542514   7.981503   6.954902   5.169750
                   16         17         18         19
    16  H    0.000000
    17  H    3.006970   0.000000
    18  H    2.016493   3.014854   0.000000
    19  H    3.622011   4.258887   2.749689   0.000000
 Stoichiometry    C6H8N2OS2
 Framework group  C1[X(C6H8N2OS2)]
 Deg. of freedom    51
 Full point group                 C1      NOp   1
 Largest Abelian subgroup         C1      NOp   1
 Largest concise Abelian subgroup C1      NOp   1
                         Standard orientation:                         
 ---------------------------------------------------------------------
 Center     Atomic      Atomic             Coordinates (Angstroms)
 Number     Number       Type             X           Y           Z
 ---------------------------------------------------------------------
      1          7           0       -4.966372   -0.016385    0.226146
      2         16           0       -3.329207    0.047187   -0.390299
      3          6           0       -1.089424    0.355540    0.394959
      4          6           0       -0.604267   -0.985684   -0.132875
      5          6           0        0.462940   -1.473016    0.607379
      6          6           0        1.732046   -1.776347   -0.007101
      7          6           0        2.773665   -1.132777    0.707101
      8          6           0        3.174456    0.000028   -0.186097
      9          8           0        3.937549    0.110395   -1.092124
     10         16           0        1.647310    1.428019    0.010793
     11          7           0       -0.044592    1.259128    0.679251
     12          1           0       -5.586406   -0.632985   -0.297808
     13          1           0       -5.402218    0.893356    0.045704
     14          1           0       -3.488836   -0.530302   -1.635910
     15          1           0       -0.923270   -1.354081   -1.101348
     16          1           0        0.511485   -1.042526    1.589684
     17          1           0        1.729026   -1.693262   -1.081646
     18          1           0        2.498909   -0.709136    1.662096
     19          1           0        2.451516    1.956812    0.990332
 ---------------------------------------------------------------------
 Rotational constants (GHZ):           2.0443172           0.3486072           0.3186008
 Standard basis: 6-31G(2df,p) (6D, 7F)
 There are   389 symmetry adapted cartesian basis functions of A   symmetry.
 There are   356 symmetry adapted basis functions of A   symmetry.
   356 basis functions,   588 primitive gaussians,   389 cartesian basis functions
    49 alpha electrons       49 beta electrons
       nuclear repulsion energy       732.0713628741 Hartrees.
 NAtoms=   19 NActive=   19 NUniq=   19 SFac= 1.00D+00 NAtFMM=   60 NAOKFM=F Big=F
 Integral buffers will be    131072 words long.
 Raffenetti 2 integral format.
 Two-electron integral symmetry is turned on.
 One-electron integrals computed using PRISM.
 PrsmSu:  requested number of processors reduced to:  13 ShMem   1 Linda.
 NBasis=   356 RedAO= T EigKep=  4.91D-04  NBF=   356
 NBsUse=   356 1.00D-06 EigRej= -1.00D+00 NBFU=   356
 Initial guess from the checkpoint file:  "N[SH]dC1CdCCdCCqdOr[SH]dN1.chk"
 B after Tr=    -0.000000    0.000000    0.000000
         Rot=    0.999180   -0.039536   -0.002043   -0.008481 Ang=  -4.64 deg.
 ExpMin= 1.17D-01 ExpMax= 2.19D+04 ExpMxC= 3.30D+03 IAcc=2 IRadAn=         4 AccDes= 0.00D+00
 Harris functional with IExCor=  402 and IRadAn=       4 diagonalized for initial guess.
 HarFok:  IExCor=  402 AccDes= 0.00D+00 IRadAn=         4 IDoV= 1 UseB2=F ITyADJ=14
 ICtDFT=  3500011 ScaDFX=  1.000000  1.000000  1.000000  1.000000
 FoFCou: FMM=F IPFlag=           0 FMFlag=      100000 FMFlg1=           0
         NFxFlg=           0 DoJE=T BraDBF=F KetDBF=T FulRan=T
         wScrn=  0.000000 ICntrl=       500 IOpCl=  0 I1Cent=   200000004 NGrid=           0
         NMat0=    1 NMatS0=      1 NMatT0=    0 NMatD0=    1 NMtDS0=    0 NMtDT0=    0
 Petite list used in FoFCou.
 Requested convergence on RMS density matrix=1.00D-08 within 128 cycles.
 Requested convergence on MAX density matrix=1.00D-06.
 Requested convergence on             energy=1.00D-06.
 No special actions if energy rises.
 Integral accuracy reduced to 1.0D-05 until final iterations.
 Initial convergence to 1.0D-05 achieved.  Increase integral accuracy.
 SCF Done:  E(RB3LYP) =  -1214.22415976     A.U. after   16 cycles
            NFock= 16  Conv=0.92D-08     -V/T= 2.0046
 PrsmSu:  requested number of processors reduced to:  13 ShMem   1 Linda.
 Calling FoFJK, ICntrl=      2127 FMM=F ISym2X=0 I1Cent= 0 IOpClX= 0 NMat=1 NMatS=1 NMatT=0.
 ***** Axes restored to original set *****
 -------------------------------------------------------------------
 Center     Atomic                   Forces (Hartrees/Bohr)
 Number     Number              X              Y              Z
 -------------------------------------------------------------------
      1        7          -0.018878774   -0.015640672    0.007217518
      2       16          -0.017912727    0.001198370    0.035015824
      3        6           0.100682490   -0.020484362   -0.119519728
      4        6          -0.004751982    0.001434035   -0.032178100
      5        6          -0.001340320   -0.018285772    0.021856610
      6        6          -0.028287642   -0.003551809   -0.035932921
      7        6           0.005271341   -0.035697193    0.019710960
      8        6           0.037679234    0.013318581    0.009288743
      9        8          -0.016942208    0.002061347   -0.004712689
     10       16           0.024771385    0.002927563    0.001889740
     11        7          -0.084525568    0.028818265    0.091036546
     12        1           0.008791051    0.009155877   -0.001002976
     13        1           0.003576141    0.002547709   -0.004352471
     14        1          -0.003883937   -0.004539912   -0.005363420
     15        1           0.000107115    0.000276678    0.000527290
     16        1          -0.001368245    0.011014785   -0.003348555
     17        1           0.015104246    0.010185870    0.011881603
     18        1           0.000411294    0.015349722   -0.001594313
     19        1          -0.018502894   -0.000089079    0.009580340
 -------------------------------------------------------------------
 Cartesian Forces:  Max     0.119519728 RMS     0.030533872

 GradGradGradGradGradGradGradGradGradGradGradGradGradGradGradGradGradGrad
 Berny optimization.
 Using GEDIIS/GDIIS optimizer.
 FormGI is forming the generalized inverse of G from B-inverse, IUseBI=4.
 Internal  Forces:  Max     0.118242729 RMS     0.016883833
 Search for a local minimum.
 Step number   3 out of a maximum of   93
 All quantities printed in internal units (Hartrees-Bohrs-Radians)
 Mixed Optimization -- RFO/linear search
 Update second derivatives using D2CorX and points    2    3
 ITU=  0  1  0
 Use linear search instead of GDIIS.
 Linear search step of   0.615 exceeds DXMaxT=   0.505 but not scaled.
 Quartic linear search produced a step of  1.02394.
 Iteration  1 RMS(Cart)=  0.18678966 RMS(Int)=  0.01700438
 Iteration  2 RMS(Cart)=  0.02059361 RMS(Int)=  0.00522780
 Iteration  3 RMS(Cart)=  0.00013890 RMS(Int)=  0.00522747
 Iteration  4 RMS(Cart)=  0.00000087 RMS(Int)=  0.00522747
 Variable       Old X    -DE/DX   Delta X   Delta X   Delta X     New X
                                 (Linear)    (Quad)   (Total)
    R1        3.30802   0.00586   0.04500   0.00000   0.04500   3.35303
    R2        1.92638  -0.00086  -0.05761   0.00000  -0.05761   1.86877
    R3        1.93653  -0.00338  -0.00491   0.00000  -0.00491   1.93162
    R4        4.52286   0.04284   0.30910   0.00000   0.30910   4.83196
    R5        2.61201  -0.00514   0.07118   0.00000   0.07118   2.68319
    R6        2.87392  -0.01731   0.08060   0.00000   0.08395   2.95787
    R7        2.66510  -0.11824  -0.23793   0.00000  -0.23947   2.42563
    R8        2.62148  -0.02025   0.03241   0.00000   0.03573   2.65721
    R9        2.04878   0.00042   0.04195   0.00000   0.04195   2.09073
   R10        2.72555  -0.00554   0.07777   0.00000   0.08198   2.80753
   R11        2.02880   0.00648  -0.00056   0.00000  -0.00056   2.02824
   R12        2.67864  -0.02355   0.06677   0.00000   0.06862   2.74726
   R13        2.03666   0.00624  -0.05668   0.00000  -0.05668   1.97998
   R14        2.82935  -0.01418   0.11303   0.00000   0.11288   2.94222
   R15        2.04141   0.00449  -0.04695   0.00000  -0.04695   1.99446
   R16        2.24820  -0.01586  -0.05704   0.00000  -0.05704   2.19116
   R17        3.96847   0.01661   0.09534   0.00000   0.09093   4.05940
   R18        3.45251   0.01902   0.06287   0.00000   0.05900   3.51151
   R19        2.59510  -0.01033  -0.03204   0.00000  -0.03204   2.56306
    A1        1.99305  -0.00944  -0.06413   0.00000  -0.06385   1.92920
    A2        1.87918  -0.00175  -0.01182   0.00000  -0.01152   1.86767
    A3        1.75970   0.00930   0.08379   0.00000   0.08444   1.84414
    A4        2.44084   0.00882   0.04059   0.00000   0.04025   2.48109
    A5        1.76620  -0.00447  -0.04392   0.00000  -0.04429   1.72191
    A6        2.04606  -0.00303   0.01056   0.00000   0.01032   2.05638
    A7        1.64190  -0.00304   0.05462   0.00000   0.05595   1.69785
    A8        2.57175  -0.01220  -0.02614   0.00000  -0.02407   2.54768
    A9        1.98086   0.01418  -0.02734   0.00000  -0.02912   1.95174
   A10        1.94984   0.01442   0.15621   0.00000   0.15344   2.10327
   A11        2.11279  -0.00601  -0.05896   0.00000  -0.05619   2.05660
   A12        2.19403  -0.00809  -0.10435   0.00000  -0.10366   2.09038
   A13        2.12171  -0.00980  -0.07301   0.00000  -0.06744   2.05427
[...]
 Iteration  1 RMS(Cart)=  0.07926199 RMS(Int)=  0.06849910
 Iteration  2 RMS(Cart)=  0.00794475 RMS(Int)=  0.06483002
 Iteration  3 RMS(Cart)=  0.00686296 RMS(Int)=  0.06163193
 Iteration  4 RMS(Cart)=  0.00601950 RMS(Int)=  0.05880230
 Iteration  5 RMS(Cart)=  0.00534599 RMS(Int)=  0.05626783
 Iteration  6 RMS(Cart)=  0.00479782 RMS(Int)=  0.05397428
 Iteration  7 RMS(Cart)=  0.00434425 RMS(Int)=  0.05188064
 Iteration  8 RMS(Cart)=  0.00396400 RMS(Int)=  0.04995503
 Iteration  9 RMS(Cart)=  0.00364133 RMS(Int)=  0.04817234
 Iteration 10 RMS(Cart)=  0.00336502 RMS(Int)=  0.04651232
 Iteration 11 RMS(Cart)=  0.00312621 RMS(Int)=  0.04495853
 Iteration 12 RMS(Cart)=  0.00291830 RMS(Int)=  0.04349741
 Iteration 13 RMS(Cart)=  0.00273618 RMS(Int)=  0.04211758
 Iteration 14 RMS(Cart)=  0.00257574 RMS(Int)=  0.04080946
 Iteration 15 RMS(Cart)=  0.00243369 RMS(Int)=  0.03956490
 Iteration 16 RMS(Cart)=  0.00230750 RMS(Int)=  0.03837684
 Iteration 17 RMS(Cart)=  0.00219495 RMS(Int)=  0.03723918
 Iteration 18 RMS(Cart)=  0.00208850 RMS(Int)=  0.03615086
 Iteration 19 RMS(Cart)=  0.00196606 RMS(Int)=  0.03512641
 Iteration 20 RMS(Cart)=  0.00185659 RMS(Int)=  0.03415906
 Iteration 21 RMS(Cart)=  0.00175802 RMS(Int)=  0.03324313
 Iteration 22 RMS(Cart)=  0.00166939 RMS(Int)=  0.03237344
 Iteration 23 RMS(Cart)=  0.00158900 RMS(Int)=  0.03154569
 Iteration 24 RMS(Cart)=  0.00151595 RMS(Int)=  0.03075606
 Iteration 25 RMS(Cart)=  0.00144941 RMS(Int)=  0.03000115
 Iteration 26 RMS(Cart)=  0.00138864 RMS(Int)=  0.02927795
 Iteration 27 RMS(Cart)=  0.00133299 RMS(Int)=  0.02858380
 Iteration 28 RMS(Cart)=  0.00128195 RMS(Int)=  0.02791630
 Iteration 29 RMS(Cart)=  0.00123505 RMS(Int)=  0.02727328
 Iteration 30 RMS(Cart)=  0.00119186 RMS(Int)=  0.02665281
 Iteration 31 RMS(Cart)=  0.00115207 RMS(Int)=  0.02605312
 Iteration 32 RMS(Cart)=  0.00111534 RMS(Int)=  0.02547262
 Iteration 33 RMS(Cart)=  0.00108140 RMS(Int)=  0.02490984
 Iteration 34 RMS(Cart)=  0.00105004 RMS(Int)=  0.02436346
 Iteration 35 RMS(Cart)=  0.00102104 RMS(Int)=  0.02383223
 Iteration 36 RMS(Cart)=  0.00099421 RMS(Int)=  0.02331504
 Iteration 37 RMS(Cart)=  0.00096940 RMS(Int)=  0.02281082
 Iteration 38 RMS(Cart)=  0.00094645 RMS(Int)=  0.02231862
 Iteration 39 RMS(Cart)=  0.00092524 RMS(Int)=  0.02183752
 Iteration 40 RMS(Cart)=  0.00090567 RMS(Int)=  0.02136668
 Iteration 41 RMS(Cart)=  0.00088762 RMS(Int)=  0.02090530
 Iteration 42 RMS(Cart)=  0.00087100 RMS(Int)=  0.02045264
 Iteration 43 RMS(Cart)=  0.00085575 RMS(Int)=  0.02000799
 Iteration 44 RMS(Cart)=  0.00084180 RMS(Int)=  0.01957068
 Iteration 45 RMS(Cart)=  0.00082906 RMS(Int)=  0.01914008
 Iteration 46 RMS(Cart)=  0.00081750 RMS(Int)=  0.01871558
 Iteration 47 RMS(Cart)=  0.00080708 RMS(Int)=  0.01829659
 Iteration 48 RMS(Cart)=  0.00079776 RMS(Int)=  0.01788255
 Iteration 49 RMS(Cart)=  0.00078948 RMS(Int)=  0.01747291
 Iteration 50 RMS(Cart)=  0.00078224 RMS(Int)=  0.01706715
 Iteration 51 RMS(Cart)=  0.00077601 RMS(Int)=  0.01666474
 Iteration 52 RMS(Cart)=  0.00077077 RMS(Int)=  0.01626517
 Iteration 53 RMS(Cart)=  0.00076652 RMS(Int)=  0.01586796
 Iteration 54 RMS(Cart)=  0.00076326 RMS(Int)=  0.01547257
 Iteration 55 RMS(Cart)=  0.00076099 RMS(Int)=  0.01507853
 Iteration 56 RMS(Cart)=  0.00075971 RMS(Int)=  0.01468532
 Iteration 57 RMS(Cart)=  0.00075946 RMS(Int)=  0.01429243
 Iteration 58 RMS(Cart)=  0.00076024 RMS(Int)=  0.01389934
 Iteration 59 RMS(Cart)=  0.00076210 RMS(Int)=  0.01350550
 Iteration 60 RMS(Cart)=  0.00076509 RMS(Int)=  0.01311037
 Iteration 61 RMS(Cart)=  0.00076926 RMS(Int)=  0.01271335
 Iteration 62 RMS(Cart)=  0.00077469 RMS(Int)=  0.01231382
 Iteration 63 RMS(Cart)=  0.00078146 RMS(Int)=  0.01191115
 Iteration 64 RMS(Cart)=  0.00078969 RMS(Int)=  0.01150461
 Iteration 65 RMS(Cart)=  0.00079949 RMS(Int)=  0.01109345
 Iteration 66 RMS(Cart)=  0.00081110 RMS(Int)=  0.01067683
 Iteration 67 RMS(Cart)=  0.00082467 RMS(Int)=  0.01025380
 Iteration 68 RMS(Cart)=  0.00084048 RMS(Int)=  0.00982333
 Iteration 69 RMS(Cart)=  0.00085888 RMS(Int)=  0.00938423
 Iteration 70 RMS(Cart)=  0.00088030 RMS(Int)=  0.00893514
 Iteration 71 RMS(Cart)=  0.00090533 RMS(Int)=  0.00847446
 Iteration 72 RMS(Cart)=  0.00093470 RMS(Int)=  0.00800030
 Iteration 73 RMS(Cart)=  0.00096949 RMS(Int)=  0.00751036
 Iteration 74 RMS(Cart)=  0.00101113 RMS(Int)=  0.00700183
 Iteration 75 RMS(Cart)=  0.00106175 RMS(Int)=  0.00647118
 Iteration 76 RMS(Cart)=  0.00112463 RMS(Int)=  0.00591384
 Iteration 77 RMS(Cart)=  0.00120465 RMS(Int)=  0.00532395
 Iteration 78 RMS(Cart)=  0.00131096 RMS(Int)=  0.00469354
 Iteration 79 RMS(Cart)=  0.00145936 RMS(Int)=  0.00401270
 Iteration 80 RMS(Cart)=  0.00168329 RMS(Int)=  0.00327240
 Iteration 81 RMS(Cart)=  0.00205596 RMS(Int)=  0.00249569
 Iteration 82 RMS(Cart)=  0.00252196 RMS(Int)=  0.00198807
 Iteration 83 RMS(Cart)=  0.00039063 RMS(Int)=  0.00194047
 Iteration 84 RMS(Cart)=  0.00012562 RMS(Int)=  0.00193942
 Iteration 85 RMS(Cart)=  0.00000097 RMS(Int)=  0.00193942
 ITry= 2 IFail=0 DXMaxC= 6.93D-01 DCOld= 1.00D+10 DXMaxT= 7.50D-01 DXLimC= 3.00D+00 Rises=F
 Variable       Old X    -DE/DX   Delta X   Delta X   Delta X     New X
                                 (Linear)    (Quad)   (Total)
    R1        3.27211  -0.00672  -0.04363   0.00268  -0.04229   3.22982
    R2        1.92110  -0.00226  -0.00764   0.00054  -0.00737   1.91373
    R3        1.91149   0.00227   0.00091   0.00018   0.00100   1.91249
    R4       12.77575  -0.00006  -0.07218   0.00316  -0.07061  12.70515
    R5        2.51548   0.01507   0.05154  -0.00397   0.04956   2.56504
    R6        2.68775  -0.00192  -0.00798   0.00139  -0.00766   2.68009
    R7        2.18517   0.00418   0.00408   0.00332   0.00535   2.19052
    R8        2.52732   0.01136   0.01820   0.00280   0.01931   2.54663
    R9        2.04497   0.00236   0.00784  -0.00074   0.00748   2.05244
   R10        2.70634   0.00493   0.02116   0.00064   0.02111   2.72745
   R11        2.05504  -0.00063  -0.00232  -0.00037  -0.00250   2.05254
   R12        2.53943  -0.00013  -0.00118   0.00171  -0.00064   2.53879
   R13        2.04996   0.00245   0.00596  -0.00020   0.00586   2.05582
   R14        2.74240   0.00839   0.04530  -0.00344   0.04320   2.78560
   R15        2.04586   0.00506   0.00704   0.00002   0.00705   2.05292
   R16        2.25634   0.01134   0.01925  -0.00004   0.01923   2.27557
   R17        3.52268  -0.00659  -0.07932  -0.00035  -0.07949   3.44319
   R18       15.01201   0.00260  -0.17483   0.02048  -0.16421  14.84779
   R19        2.52550   0.00405   0.01433   0.00044   0.01454   2.54004
    A1        1.90444   0.00669   0.05688  -0.00341   0.05527   1.95971
    A2        1.93741   0.00049   0.02520  -0.00162   0.02449   1.96189
    A3        1.93026  -0.00329  -0.00672  -0.00181  -0.00747   1.92279
    A4        2.87230   0.00766   0.26466  -0.00613   0.26802   3.14033
    A5        1.90550  -0.01532  -0.09606  -0.01655  -0.09543   1.81007
    A6        1.46652   0.00857  -0.13041  -0.02495  -0.13398   1.33253
    A7        2.10397   0.00096   0.02876  -0.00669   0.02576   2.12973
    A8        0.96954   0.00099   0.02912   0.00127   0.03011   0.99965
    A9        2.99891   0.00407   0.12105  -0.00807   0.11705   3.11596
   A10        2.10734   0.00362   0.04388  -0.00586   0.04064   2.14799
   A11        2.03735  -0.00165  -0.01160   0.00131  -0.01070   2.02665
   A12        2.13570  -0.00190  -0.02955   0.00427  -0.02718   2.10852
   A13        2.15827   0.00079  -0.01856   0.00427  -0.01649   2.14178
   A14        2.06468   0.00157   0.02388  -0.00245   0.02268   2.08736
   A15        2.06020  -0.00235  -0.00529  -0.00179  -0.00617   2.05403
   A16        2.12957   0.00010   0.02956  -0.00229   0.02816   2.15773
   A17        2.06247  -0.00196  -0.03240   0.00184  -0.03136   2.03112
   A18        2.09110   0.00187   0.00283   0.00046   0.00318   2.09428
   A19        2.28506  -0.01307  -0.08614   0.00398  -0.08440   2.20066
   A20        2.05100   0.00725   0.06339  -0.00138   0.06277   2.11377
   A21        1.94410   0.00590   0.02555  -0.00235   0.02446   1.96855
   A22        2.19993  -0.01037  -0.06031   0.00237  -0.05937   2.14056
   A23        1.98508   0.00581   0.02964  -0.00017   0.03010   2.01517
   A24        2.09818   0.00456   0.03060  -0.00219   0.02922   2.12740
   A25        1.10196   0.00572   0.07664  -0.00750   0.07313   1.17510
   A26        1.59016  -0.00057   0.03652   0.01102   0.04002   1.63018
   A27        2.69094   0.00510   0.10213   0.00101   0.10605   2.79699
   A28        0.12903  -0.00372  -0.04355   0.00570  -0.04154   0.08749
    D1       -2.69275   0.00093   0.16888  -0.31728   0.01261  -2.68014
    D2        1.01138   0.00081   0.07980   0.02867   0.09165   1.10303
    D3        1.45882   0.00024   0.11784  -0.31167  -0.03551   1.42331
    D4       -1.12024   0.00013   0.02876   0.03428   0.04353  -1.07671
    D5        0.43539  -0.00086  -0.01742   0.25539   0.11298   0.54837
    D6       -2.85498   0.00339   0.10873   0.24835   0.23507  -2.61991
    D7        3.04588  -0.00336   0.04076  -0.07183   0.00269   3.04857
    D8       -0.24449   0.00090   0.16692  -0.07887   0.12478  -0.11971
    D9        3.10900   0.00079   0.02729  -0.00759   0.02379   3.13279
   D10        0.04572  -0.00013  -0.04472  -0.00389  -0.04669  -0.00097
   D11        2.07449  -0.00031  -0.01269   0.00645  -0.00900   2.06550
   D12       -0.98879  -0.00122  -0.08469   0.01015  -0.07948  -1.06826
   D13       -2.48557   0.00041  -0.16871  -0.01277  -0.17480  -2.66037
   D14       -1.37098  -0.00080  -0.19666  -0.02351  -0.20781  -1.57879
   D15       -3.06958  -0.00027  -0.06796   0.00292  -0.06729  -3.13687
   D16        0.06283  -0.00031  -0.05460   0.00627  -0.05148   0.01134
   D17       -0.01081   0.00072   0.00825  -0.00116   0.00734  -0.00347
   D18        3.12160   0.00069   0.02161   0.00219   0.02315  -3.13844
   D19        3.01542   0.00086   0.16228  -0.00238   0.16259  -3.10518
   D20       -0.13615   0.00166   0.16115  -0.00110   0.16099   0.02484
   D21       -0.11701   0.00088   0.14902  -0.00572   0.14692   0.02991
   D22        3.01460   0.00168   0.14789  -0.00444   0.14532  -3.12326
   D23        3.02577   0.00293   0.10019  -0.00194   0.09739   3.12315
   D24       -0.02405   0.00136   0.03195  -0.00570   0.02872   0.00467
   D25       -0.10569   0.00215   0.10154  -0.00325   0.09923  -0.00646
   D26        3.12768   0.00057   0.03331  -0.00701   0.03056  -3.12495
   D27        3.07297   0.00085   0.18016  -0.02060   0.17196  -3.03826
   D28       -0.06844  -0.00049   0.19240  -0.02093   0.18296   0.11453
   D29       -0.15603   0.00247   0.24568  -0.01700   0.23790   0.08187
   D30        2.98575   0.00114   0.25792  -0.01734   0.24891  -3.04853
   D31        0.01633   0.00167  -0.06075   0.00384  -0.05778  -0.04145
   D32        3.12382   0.00117   0.06593  -0.03206   0.05388  -3.10549
   D33       -3.12509   0.00043  -0.04857   0.00352  -0.04686   3.11124
   D34       -0.01760  -0.00007   0.07811  -0.03237   0.06481   0.04721
   D35       -2.63727   0.00090   0.12550  -0.03580   0.10869  -2.52858
   D36       -2.71563  -0.00108   0.47945  -0.11855   0.41805  -2.29757
         Item               Value     Threshold  Converged?
 Maximum Force            0.015318     0.000450     NO 
 RMS     Force            0.004653     0.000300     NO 
 Maximum Displacement     0.692710     0.001800     NO 
 RMS     Displacement     0.212518     0.001200     NO 
 Predicted change in Energy=-2.992186D-04
 GradGradGradGradGradGradGradGradGradGradGradGradGradGradGradGradGradGrad

                          Input orientation:                          
 ---------------------------------------------------------------------
 Center     Atomic      Atomic             Coordinates (Angstroms)
 Number     Number       Type             X           Y           Z
 ---------------------------------------------------------------------
      1          7           0       -1.315053   -1.914414    2.529981
      2         16           0       -0.213929   -1.291035    1.381023
      3          6           0        4.124067    1.158354   -3.133920
      4          6           0        5.381108    0.548308   -3.377021
      5          6           0        6.262136    1.015384   -4.283499
      6          6           0        7.537153    0.385047   -4.528723
      7          6           0        8.445774    0.857599   -5.398212
      8          6           0        9.769897    0.271719   -5.674510
      9          8           0       10.578940    0.803542   -6.390510
     10         16           0       10.100610   -1.330194   -4.871762
     11          7           0        3.083239    1.631913   -2.943902
     12          1           0       -2.211904   -2.141866    2.118290
     13          1           0       -1.440889   -1.294219    3.319768
     14          1           0       -0.799431   -0.138718    0.966555
     15          1           0        5.603754   -0.338237   -2.790425
     16          1           0        6.020479    1.905384   -4.857294
     17          1           0        7.749743   -0.514631   -3.955227
     18          1           0        8.258782    1.762864   -5.968913
     19          1           0       11.351492   -1.406238   -5.357771
 ---------------------------------------------------------------------
                    Distance matrix (angstroms):
                    1          2          3          4          5
     1  N    0.000000
     2  S    1.709146   0.000000
     3  C    8.432420   6.723275   0.000000
     4  C    9.262627   7.571434   1.418241   0.000000
     5  C   10.602878   8.907625   2.431730   1.347617   0.000000
     6  C   11.553111   9.890077   3.767312   2.449816   1.443305
     7  C   12.876880  11.205584   4.888213   3.684162   2.456778
     8  C   13.963129  12.324752   6.254288   4.961494   3.846081
     9  O   15.113886  13.463655   7.238554   6.013628   4.808241
    10  S   13.617801  12.061865   6.703137   5.294971   4.536703
    11  N    7.866690   6.174133   1.159175   2.577207   3.504284
    12  H    1.012702   2.293334   8.866887   9.751374  11.079732
    13  H    1.012047   2.294378   8.867578   9.735581  11.067092
    14  H    2.421417   1.357361   6.537364   7.585363   8.874725
    15  H    8.869101   7.221789   2.132428   1.086107   2.120148
    16  H   11.089307   9.380913   2.669167   2.107524   1.086157
    17  H   11.233337   9.617611   4.076635   2.659811   2.159093
    18  H   13.319606  11.624744   5.049603   4.058824   2.717709
    19  H   14.930380  13.385947   7.984881   6.587041   5.737584
                    6          7          8          9         10
     6  C    0.000000
     7  C    1.343469   0.000000
     8  C    2.512133   1.474075   0.000000
     9  O    3.590802   2.353291   1.204178   0.000000
    10  S    3.103392   2.793219   1.822059   2.662372   0.000000
    11  N    4.889139   5.948107   7.349675   8.291613   7.857113
    12  H   12.066987  13.382103  14.495401  15.642276  14.181595
    13  H   12.042590  13.355882  14.457901  15.593794  14.153045
    14  H    9.998552  11.268395  12.489311  13.582401  12.422418
    15  H    2.698676   4.038274   5.103600   6.246339   5.053480
    16  H    2.172483   2.696757   4.170711   4.934002   5.207364
    17  H    1.087893   2.109426   2.766821   3.958856   2.651746
    18  H    2.119735   1.086356   2.143281   2.545816   3.763386
    19  H    4.294788   3.683720   2.327511   2.558616   1.344133
                   11         12         13         14         15
    11  N    0.000000
    12  H    8.240493   0.000000
    13  H    8.262176   1.660277   0.000000
    14  H    5.788086   2.708167   2.698937   0.000000
    15  H    3.202818   9.403885   9.374185   7.426674   0.000000
    16  H    3.516139  11.524371  11.522752   9.198193   3.078870
    17  H    5.235140  11.780064  11.747384   9.871861   2.448091
    18  H    5.996172  13.794383  13.773487  11.565810   4.643984
    19  H    9.133517  15.504784  15.458242  13.756767   6.385013
                   16         17         18         19
    16  H    0.000000
    17  H    3.108142   0.000000
    18  H    2.503199   3.082375   0.000000
    19  H    6.295794   3.966698   4.470074   0.000000
 Stoichiometry    C6H8N2OS2
 Framework group  C1[X(C6H8N2OS2)]
 Deg. of freedom    51
 Full point group                 C1      NOp   1
 Largest Abelian subgroup         C1      NOp   1
 Largest concise Abelian subgroup C1      NOp   1
                         Standard orientation:                         
 ---------------------------------------------------------------------
 Center     Atomic      Atomic             Coordinates (Angstroms)
 Number     Number       Type             X           Y           Z
 ---------------------------------------------------------------------
      1          7           0       -8.822407    1.125189   -0.034191
      2         16           0       -7.212217    0.552313   -0.017333
      3          6           0       -0.875787   -1.694524    0.044315
      4          6           0        0.234987   -0.813288    0.012529
      5          6           0        1.513070   -1.240033    0.034026
      6          6           0        2.637854   -0.336005    0.007106
      7          6           0        3.918370   -0.741946   -0.012880
      8          6           0        5.105243    0.130839   -0.062653
      9          8           0        6.223443   -0.299538   -0.182858
     10         16           0        4.771873    1.915740    0.088644
     11          7           0       -1.792218   -2.402463    0.095935
     12          1           0       -9.350162    0.811168    0.771061
     13          1           0       -9.309579    0.881779   -0.887217
     14          1           0       -7.349599   -0.795866   -0.094597
     15          1           0        0.003120    0.247174   -0.023351
     16          1           0        1.722459   -2.305308    0.066948
     17          1           0        2.403815    0.726310   -0.007867
     18          1           0        4.172415   -1.798180   -0.013941
     19          1           0        6.065448    2.251044   -0.056017
 ---------------------------------------------------------------------
 Rotational constants (GHZ):           1.6047655           0.0999086           0.0941386
 Standard basis: 6-31G(2df,p) (6D, 7F)
 There are   389 symmetry adapted cartesian basis functions of A   symmetry.
 There are   356 symmetry adapted basis functions of A   symmetry.
   356 basis functions,   588 primitive gaussians,   389 cartesian basis functions
    49 alpha electrons       49 beta electrons
       nuclear repulsion energy       571.2166041876 Hartrees.
 NAtoms=   19 NActive=   19 NUniq=   19 SFac= 1.00D+00 NAtFMM=   60 NAOKFM=F Big=F
 Integral buffers will be    131072 words long.
 Raffenetti 2 integral format.
 Two-electron integral symmetry is turned on.
 One-electron integrals computed using PRISM.
 PrsmSu:  requested number of processors reduced to:  13 ShMem   1 Linda.
 NBasis=   356 RedAO= T EigKep=  1.47D-04  NBF=   356
 NBsUse=   356 1.00D-06 EigRej= -1.00D+00 NBFU=   356
 Lowest energy guess from the checkpoint file:  "N[SH]dC1CdCCdCCqdOr[SH]dN1.chk"
 B after Tr=    -0.000000   -0.000000    0.000000
         Rot=    1.000000   -0.000102   -0.000002    0.000137 Ang=  -0.02 deg.
 B after Tr=    -0.000000   -0.000000    0.000000
         Rot=    0.999991    0.003391   -0.000126   -0.002369 Ang=   0.47 deg.
 Requested convergence on RMS density matrix=1.00D-08 within 128 cycles.
 Requested convergence on MAX density matrix=1.00D-06.
 Requested convergence on             energy=1.00D-06.
 No special actions if energy rises.
 Integral accuracy reduced to 1.0D-05 until final iterations.
slurmstepd: error: *** JOB 27447054 ON lewis4-r630-hpc4rc-node381 CANCELLED AT 2023-05-16T00:41:30 DUE TO TIME LIMIT ***
