### Starting Gaussian ###
 Entering Gaussian System, Link 0=g16
 Initial command:
 /cluster/software/gaussian/gaussian-16-A.03/avx2/g16/l1.exe "/local/scratch/yxie/Gau-14666.inp" -scrdir="/local/scratch/yxie/"
 Entering Link 1 = /cluster/software/gaussian/gaussian-16-A.03/avx2/g16/l1.exe PID=     14667.
  
 Copyright (c) 1988,1990,1992,1993,1995,1998,2003,2009,2016,
            Gaussian, Inc.  All Rights Reserved.
  
 This is part of the Gaussian(R) 16 program.  It is based on
 the Gaussian(R) 09 system (copyright 2009, Gaussian, Inc.),
 the Gaussian(R) 03 system (copyright 2003, Gaussian, Inc.),
 the Gaussian(R) 98 system (copyright 1998, Gaussian, Inc.),
 the Gaussian(R) 94 system (copyright 1995, Gaussian, Inc.),
 the Gaussian 92(TM) system (copyright 1992, Gaussian, Inc.),
 the Gaussian 90(TM) system (copyright 1990, Gaussian, Inc.),
 the Gaussian 88(TM) system (copyright 1988, Gaussian, Inc.),
 the Gaussian 86(TM) system (copyright 1986, Carnegie Mellon
 University), and the Gaussian 82(TM) system (copyright 1983,
 Carnegie Mellon University). Gaussian is a federally registered
 trademark of Gaussian, Inc.
  
 This software contains proprietary and confidential information,
 including trade secrets, belonging to Gaussian, Inc.
  
 This software is provided under written license and may be
 used, copied, transmitted, or stored only in accord with that
 written license.
  
 The following legend is applicable only to US Government
 contracts under FAR:
  
                    RESTRICTED RIGHTS LEGEND
  
 Use, reproduction and disclosure by the US Government is
 subject to restrictions as set forth in subparagraphs (a)
 and (c) of the Commercial Computer Software - Restricted
 Rights clause in FAR 52.227-19.
  
 Gaussian, Inc.
 340 Quinnipiac St., Bldg. 40, Wallingford CT 06492
  
  
 ---------------------------------------------------------------
 Warning -- This program may not be used in any manner that
 competes with the business of Gaussian, Inc. or will provide
 assistance to any competitor of Gaussian, Inc.  The licensee
 of this program is prohibited from giving any competitor of
 Gaussian, Inc. access to this program.  By using this program,
 the user acknowledges that Gaussian, Inc. is engaged in the
 business of creating and licensing software in the field of
 computational chemistry and represents and warrants to the
 licensee that it is not a competitor of Gaussian, Inc. and that
 it will not use this program in any manner prohibited above.
 ---------------------------------------------------------------
  

 Cite this work as:
 Gaussian 16, Revision A.03,
 M. J. Frisch, G. W. Trucks, H. B. Schlegel, G. E. Scuseria, 
 M. A. Robb, J. R. Cheeseman, G. Scalmani, V. Barone, 
 G. A. Petersson, H. Nakatsuji, X. Li, M. Caricato, A. V. Marenich, 
 J. Bloino, B. G. Janesko, R. Gomperts, B. Mennucci, H. P. Hratchian, 
 J. V. Ortiz, A. F. Izmaylov, J. L. Sonnenberg, D. Williams-Young, 
 F. Ding, F. Lipparini, F. Egidi, J. Goings, B. Peng, A. Petrone, 
 T. Henderson, D. Ranasinghe, V. G. Zakrzewski, J. Gao, N. Rega, 
 G. Zheng, W. Liang, M. Hada, M. Ehara, K. Toyota, R. Fukuda, 
 J. Hasegawa, M. Ishida, T. Nakajima, Y. Honda, O. Kitao, H. Nakai, 
 T. Vreven, K. Throssell, J. A. Montgomery, Jr., J. E. Peralta, 
 F. Ogliaro, M. J. Bearpark, J. J. Heyd, E. N. Brothers, K. N. Kudin, 
 V. N. Staroverov, T. A. Keith, R. Kobayashi, J. Normand, 
 K. Raghavachari, A. P. Rendell, J. C. Burant, S. S. Iyengar, 
 J. Tomasi, M. Cossi, J. M. Millam, M. Klene, C. Adamo, R. Cammi, 
 J. W. Ochterski, R. L. Martin, K. Morokuma, O. Farkas, 
 J. B. Foresman, and D. J. Fox, Gaussian, Inc., Wallingford CT, 2016.
 
 ******************************************
 Gaussian 16:  ES64L-G16RevA.03 25-Dec-2016
                16-May-2023 
 ******************************************
 %chk=NC12CdNCdCSCdC1CdCCdCCdCC2dO.chk
 %NProcShared=20
 Will use up to   20 processors via shared memory.
 -----------------------------
 # opt freq b3lyp/6-31g(2df,p)
 -----------------------------
 1/18=20,19=15,26=3,38=1/1,3;
 2/9=110,12=2,17=6,18=5,40=1/2;
 3/5=1,6=6,7=104,11=2,25=1,30=1,71=1,74=-5/1,2,3;
 4//1;
 5/5=2,38=5/2;
 6/7=2,8=2,9=2,10=2,28=1/1;
 7//1,2,3,16;
 1/18=20,19=15,26=3/3(2);
 2/9=110/2;
 99//99;
 2/9=110/2;
 3/5=1,6=6,7=104,11=2,25=1,30=1,71=1,74=-5/1,2,3;
 4/5=5,16=3,69=1/1;
 5/5=2,38=5/2;
 7//1,2,3,16;
 1/18=20,19=15,26=3/3(-5);
 2/9=110/2;
 6/7=2,8=2,9=2,10=2,19=2,28=1/1;
 99/9=1/99;
 -------------------
 Title Card Required
 -------------------
 Symbolic Z-matrix:
 Charge =  0 Multiplicity = 1
 N                     2.16284  -0.33987   1.21742 
 C                     3.99015  -0.60276   1.56893 
 C                     3.41395  -1.8351    1.12041 
 N                     4.38067  -2.40295   0.59189 
 C                     4.76366  -3.1764    1.60934 
 C                     6.08311  -3.28682   1.72212 
 S                     6.46501  -3.90127   3.2619 
 C                     6.84519  -2.05873   3.29651 
 C                     5.50213  -1.25847   3.01515 
 C                     6.12371  -1.29921   4.73903 
 C                     5.99631  -0.33656   5.68507 
 C                     4.80138   0.03314   5.07376 
 C                     4.8833    1.09824   4.25879 
 C                     4.00427   1.00262   3.19822 
 C                     3.97749   1.82151   2.15411 
 C                     3.76104   1.0175    0.99634 
 O                     3.08563   1.53828   0.0812 
 H                     1.64545  -1.00882   0.51551 
 H                     1.92635   0.38962   0.37677 
 H                     2.46419  -2.16904   1.7138 
 H                     4.1343   -3.14673   2.57766 
 H                     6.67518  -2.36701   1.3235 
 H                     7.90778  -2.63041   3.20737 
 H                     6.15276  -2.24334   5.49887 
 H                     6.65995   0.51051   5.89674 
 H                     4.19912  -0.94778   4.8258 
 H                     5.67407   1.81974   4.13117 
 H                     3.62489  -0.03947   3.29501 
 H                     4.31136   2.80139   1.97275 
 
 Add virtual bond connecting atoms H19        and O17        Dist= 3.13D+00.

 GradGradGradGradGradGradGradGradGradGradGradGradGradGradGradGradGradGrad
 Berny optimization.
 Initialization pass.
                           ----------------------------
                           !    Initial Parameters    !
                           ! (Angstroms and Degrees)  !
 --------------------------                            --------------------------
 ! Name  Definition              Value          Derivative Info.                !
 --------------------------------------------------------------------------------
 ! R1    R(1,18)                 1.099          estimate D2E/DX2                !
 ! R2    R(1,19)                 1.1379         estimate D2E/DX2                !
 ! R3    R(2,3)                  1.4324         estimate D2E/DX2                !
 ! R4    R(2,16)                 1.7337         estimate D2E/DX2                !
 ! R5    R(3,4)                  1.2395         estimate D2E/DX2                !
 ! R6    R(3,20)                 1.1686         estimate D2E/DX2                !
 ! R7    R(4,5)                  1.3342         estimate D2E/DX2                !
 ! R8    R(5,6)                  1.3289         estimate D2E/DX2                !
 ! R9    R(5,21)                 1.1553         estimate D2E/DX2                !
 ! R10   R(6,7)                  1.7013         estimate D2E/DX2                !
 ! R11   R(6,22)                 1.1643         estimate D2E/DX2                !
 ! R12   R(7,8)                  1.8817         estimate D2E/DX2                !
 ! R13   R(8,9)                  1.5885         estimate D2E/DX2                !
 ! R14   R(8,10)                 1.7828         estimate D2E/DX2                !
 ! R15   R(8,23)                 1.2099         estimate D2E/DX2                !
 ! R16   R(9,10)                 1.833          estimate D2E/DX2                !
 ! R17   R(10,11)                1.3557         estimate D2E/DX2                !
 ! R18   R(10,24)                1.2123         estimate D2E/DX2                !
 ! R19   R(11,12)                1.3922         estimate D2E/DX2                !
 ! R20   R(11,25)                1.0967         estimate D2E/DX2                !
 ! R21   R(12,13)                1.3436         estimate D2E/DX2                !
 ! R22   R(12,26)                1.1775         estimate D2E/DX2                !
 ! R23   R(13,14)                1.3808         estimate D2E/DX2                !
 ! R24   R(13,27)                1.078          estimate D2E/DX2                !
 ! R25   R(14,15)                1.3272         estimate D2E/DX2                !
 ! R26   R(14,28)                1.1132         estimate D2E/DX2                !
 ! R27   R(15,16)                1.4261         estimate D2E/DX2                !
 ! R28   R(15,29)                1.051          estimate D2E/DX2                !
 ! R29   R(16,17)                1.2509         estimate D2E/DX2                !
 ! R30   R(17,19)                1.6585         estimate D2E/DX2                !
 ! A1    A(18,1,19)             79.6617         estimate D2E/DX2                !
 ! A2    A(3,2,16)             130.3508         estimate D2E/DX2                !
 ! A3    A(2,3,4)              102.3523         estimate D2E/DX2                !
 ! A4    A(2,3,20)             114.4418         estimate D2E/DX2                !
 ! A5    A(4,3,20)             136.0105         estimate D2E/DX2                !
 ! A6    A(3,4,5)               99.4564         estimate D2E/DX2                !
 ! A7    A(4,5,6)              113.4478         estimate D2E/DX2                !
 ! A8    A(4,5,21)             117.8994         estimate D2E/DX2                !
 ! A9    A(6,5,21)             118.159          estimate D2E/DX2                !
 ! A10   A(5,6,7)              109.2515         estimate D2E/DX2                !
 ! A11   A(5,6,22)             114.2195         estimate D2E/DX2                !
 ! A12   A(7,6,22)             118.755          estimate D2E/DX2                !
 ! A13   A(6,7,8)               73.0427         estimate D2E/DX2                !
 ! A14   A(7,8,9)              108.6157         estimate D2E/DX2                !
 ! A15   A(7,8,10)             110.5051         estimate D2E/DX2                !
 ! A16   A(7,8,23)              73.3463         estimate D2E/DX2                !
 ! A17   A(10,8,23)            128.0492         estimate D2E/DX2                !
 ! A18   A(8,10,11)            154.8488         estimate D2E/DX2                !
 ! A19   A(8,10,24)             99.5361         estimate D2E/DX2                !
 ! A20   A(9,10,11)            127.4915         estimate D2E/DX2                !
 ! A21   A(9,10,24)            127.9466         estimate D2E/DX2                !
 ! A22   A(11,10,24)            96.7697         estimate D2E/DX2                !
 ! A23   A(10,11,12)            87.8685         estimate D2E/DX2                !
 ! A24   A(10,11,25)           128.7754         estimate D2E/DX2                !
 ! A25   A(12,11,25)           113.517          estimate D2E/DX2                !
 ! A26   A(11,12,13)           115.1193         estimate D2E/DX2                !
 ! A27   A(11,12,26)           108.0747         estimate D2E/DX2                !
 ! A28   A(13,12,26)           124.3221         estimate D2E/DX2                !
 ! A29   A(12,13,14)           111.8493         estimate D2E/DX2                !
 ! A30   A(12,13,27)           130.3205         estimate D2E/DX2                !
 ! A31   A(14,13,27)           114.9853         estimate D2E/DX2                !
 ! A32   A(13,14,15)           125.0551         estimate D2E/DX2                !
 ! A33   A(13,14,28)           102.4152         estimate D2E/DX2                !
 ! A34   A(15,14,28)           129.7253         estimate D2E/DX2                !
 ! A35   A(14,15,16)           107.0908         estimate D2E/DX2                !
 ! A36   A(14,15,29)           134.7988         estimate D2E/DX2                !
 ! A37   A(16,15,29)           115.7074         estimate D2E/DX2                !
 ! A38   A(2,16,15)            103.8107         estimate D2E/DX2                !
 ! A39   A(2,16,17)            134.5913         estimate D2E/DX2                !
 ! A40   A(15,16,17)           116.1776         estimate D2E/DX2                !
 ! A41   A(16,17,19)            87.6327         estimate D2E/DX2                !
 ! A42   A(1,19,17)            115.4928         estimate D2E/DX2                !
 ! A43   L(9,8,23,7,-1)        181.962          estimate D2E/DX2                !
 ! A44   L(9,8,23,7,-2)        164.7696         estimate D2E/DX2                !
 ! D1    D(18,1,19,17)        -143.5241         estimate D2E/DX2                !
 ! D2    D(16,2,3,4)           109.7774         estimate D2E/DX2                !
 ! D3    D(16,2,3,20)          -94.9167         estimate D2E/DX2                !
 ! D4    D(3,2,16,15)          150.756          estimate D2E/DX2                !
 ! D5    D(3,2,16,17)           -0.9186         estimate D2E/DX2                !
 ! D6    D(2,3,4,5)             96.5153         estimate D2E/DX2                !
 ! D7    D(20,3,4,5)           -50.2811         estimate D2E/DX2                !
 ! D8    D(3,4,5,6)           -141.7744         estimate D2E/DX2                !
 ! D9    D(3,4,5,21)             2.487          estimate D2E/DX2                !
 ! D10   D(4,5,6,7)            164.0588         estimate D2E/DX2                !
 ! D11   D(4,5,6,22)            28.3468         estimate D2E/DX2                !
 ! D12   D(21,5,6,7)            19.897          estimate D2E/DX2                !
 ! D13   D(21,5,6,22)         -115.815          estimate D2E/DX2                !
 ! D14   D(5,6,7,8)           -103.9025         estimate D2E/DX2                !
 ! D15   D(22,6,7,8)            29.5139         estimate D2E/DX2                !
 ! D16   D(6,7,8,9)             61.0377         estimate D2E/DX2                !
 ! D17   D(6,7,8,10)           131.1707         estimate D2E/DX2                !
 ! D18   D(6,7,8,23)          -103.7319         estimate D2E/DX2                !
 ! D19   D(7,8,10,11)          159.1772         estimate D2E/DX2                !
 ! D20   D(7,8,10,24)           29.4578         estimate D2E/DX2                !
 ! D21   D(23,8,10,11)          74.6767         estimate D2E/DX2                !
 ! D22   D(23,8,10,24)         -55.0427         estimate D2E/DX2                !
 ! D23   D(8,10,11,12)         109.0836         estimate D2E/DX2                !
 ! D24   D(8,10,11,25)          -9.7508         estimate D2E/DX2                !
 ! D25   D(9,10,11,12)          29.9106         estimate D2E/DX2                !
 ! D26   D(9,10,11,25)         -88.9238         estimate D2E/DX2                !
 ! D27   D(24,10,11,12)       -120.7239         estimate D2E/DX2                !
 ! D28   D(24,10,11,25)        120.4417         estimate D2E/DX2                !
 ! D29   D(10,11,12,13)        -99.5221         estimate D2E/DX2                !
 ! D30   D(10,11,12,26)         44.3865         estimate D2E/DX2                !
 ! D31   D(25,11,12,13)         32.335          estimate D2E/DX2                !
 ! D32   D(25,11,12,26)        176.2435         estimate D2E/DX2                !
 ! D33   D(11,12,13,14)        147.3108         estimate D2E/DX2                !
 ! D34   D(11,12,13,27)        -12.2697         estimate D2E/DX2                !
 ! D35   D(26,12,13,14)         10.0039         estimate D2E/DX2                !
 ! D36   D(26,12,13,27)       -149.5766         estimate D2E/DX2                !
 ! D37   D(12,13,14,15)       -171.4159         estimate D2E/DX2                !
 ! D38   D(12,13,14,28)         -8.8831         estimate D2E/DX2                !
 ! D39   D(27,13,14,15)         -8.4818         estimate D2E/DX2                !
 ! D40   D(27,13,14,28)        154.051          estimate D2E/DX2                !
 ! D41   D(13,14,15,16)        138.9898         estimate D2E/DX2                !
 ! D42   D(13,14,15,29)        -21.8954         estimate D2E/DX2                !
 ! D43   D(28,14,15,16)        -18.6059         estimate D2E/DX2                !
 ! D44   D(28,14,15,29)       -179.4911         estimate D2E/DX2                !
 ! D45   D(14,15,16,2)         -11.5854         estimate D2E/DX2                !
 ! D46   D(14,15,16,17)        146.2969         estimate D2E/DX2                !
 ! D47   D(29,15,16,2)         153.4699         estimate D2E/DX2                !
 ! D48   D(29,15,16,17)        -48.6478         estimate D2E/DX2                !
 ! D49   D(2,16,17,19)          34.7301         estimate D2E/DX2                !
 ! D50   D(15,16,17,19)       -114.3777         estimate D2E/DX2                !
 ! D51   D(16,17,19,1)           0.7529         estimate D2E/DX2                !
 --------------------------------------------------------------------------------
 Trust Radius=3.00D-01 FncErr=1.00D-07 GrdErr=1.00D-06 EigMax=2.50D+02 EigMin=1.00D-04
 Number of steps in this run=    135 maximum allowed number of steps=    174.
 GradGradGradGradGradGradGradGradGradGradGradGradGradGradGradGradGradGrad

                          Input orientation:                          
 ---------------------------------------------------------------------
 Center     Atomic      Atomic             Coordinates (Angstroms)
 Number     Number       Type             X           Y           Z
 ---------------------------------------------------------------------
      1          7           0        2.162840   -0.339870    1.217420
      2          6           0        3.990150   -0.602760    1.568930
      3          6           0        3.413950   -1.835100    1.120410
      4          7           0        4.380670   -2.402950    0.591890
      5          6           0        4.763660   -3.176400    1.609340
      6          6           0        6.083110   -3.286820    1.722120
      7         16           0        6.465010   -3.901270    3.261900
      8          6           0        6.845190   -2.058730    3.296510
      9          6           0        5.502130   -1.258470    3.015150
     10          6           0        6.123710   -1.299210    4.739030
     11          6           0        5.996310   -0.336560    5.685070
     12          6           0        4.801380    0.033140    5.073760
     13          6           0        4.883300    1.098240    4.258790
     14          6           0        4.004270    1.002620    3.198220
     15          6           0        3.977490    1.821510    2.154110
     16          6           0        3.761040    1.017500    0.996340
     17          8           0        3.085630    1.538280    0.081200
     18          1           0        1.645450   -1.008820    0.515510
     19          1           0        1.926350    0.389620    0.376770
     20          1           0        2.464190   -2.169040    1.713800
     21          1           0        4.134300   -3.146730    2.577660
     22          1           0        6.675180   -2.367010    1.323500
     23          1           0        7.907780   -2.630410    3.207370
     24          1           0        6.152760   -2.243340    5.498870
     25          1           0        6.659950    0.510510    5.896740
     26          1           0        4.199120   -0.947780    4.825800
     27          1           0        5.674070    1.819740    4.131170
     28          1           0        3.624890   -0.039470    3.295010
     29          1           0        4.311360    2.801390    1.972750
 ---------------------------------------------------------------------
                    Distance matrix (angstroms):
                    1          2          3          4          5
     1  N    0.000000
     2  C    1.879290   0.000000
     3  C    1.952025   1.432424   0.000000
     4  N    3.092953   2.085137   1.239490   0.000000
     5  C    3.868303   2.687671   1.964651   1.334208   0.000000
     6  C    4.930289   3.407070   3.097412   2.226420   1.328857
     7  S    5.947448   4.457718   4.261925   3.703834   2.480118
     8  C    5.403841   3.640829   4.069254   3.675230   2.903187
     9  C    3.902117   2.192622   2.878027   2.905115   2.489999
    10  C    5.386145   3.884154   4.552405   4.631976   3.894681
    11  C    5.886884   4.586736   5.454386   5.728939   5.118173
    12  C    4.687471   3.653258   4.587402   5.118466   4.722793
    13  C    4.326545   3.305520   4.540143   5.094813   5.030551
    14  C    3.019389   2.287363   3.566290   4.304944   4.534911
    15  C    2.973534   2.493929   3.841472   4.522073   5.088609
    16  C    2.108453   1.733665   2.876316   3.499571   4.355435
    17  O    2.381173   2.759628   3.545059   4.179860   5.232514
    18  H    1.099029   2.602344   2.043584   3.070971   3.951974
    19  H    1.137882   2.581731   2.777649   3.724031   4.720811
    20  H    1.919132   2.191523   1.168620   2.233001   2.512618
    21  H    3.689901   2.740456   2.088745   2.134757   1.155257
    22  H    4.947905   3.222142   3.310558   2.408593   2.095406
    23  H    6.496985   4.705707   5.018210   4.396928   3.568935
    24  H    6.154143   4.776276   5.180603   5.219601   4.234223
    25  H    6.545470   5.205491   6.233116   6.467210   5.964145
    26  H    4.187648   3.281754   3.890211   4.480678   3.953614
    27  H    5.048028   3.907578   5.246968   5.659549   5.670087
    28  H    2.558165   1.852043   2.828015   3.669346   3.738798
    29  H    3.879971   3.443034   4.798840   5.384861   6.005882
                    6          7          8          9         10
     6  C    0.000000
     7  S    1.701270   0.000000
     8  C    2.137212   1.881672   0.000000
     9  C    2.474605   2.823547   1.588518   0.000000
    10  C    3.613030   3.011497   1.782770   1.832971   0.000000
    11  C    4.941310   4.335734   3.064586   2.867508   1.355698
    12  C    4.888605   4.640052   3.422236   2.529265   1.906766
    13  C    5.206053   5.337668   3.839460   2.735630   2.741717
    14  C    4.989964   5.487024   4.177601   2.718387   3.487770
    15  C    5.542137   6.337599   4.958331   3.542908   4.585517
    16  C    4.944283   6.052976   4.926049   3.505286   4.995706
    17  O    5.912622   7.150228   6.116452   4.719041   6.243129
    18  H    5.132058   6.255964   5.989455   4.602663   6.162569
    19  H    5.710064   6.880054   6.222081   4.739562   6.284846
    20  H    3.787622   4.626424   4.659431   3.428079   4.827081
    21  H    2.132940   2.543565   3.008224   2.372316   3.470245
    22  H    1.164257   2.481032   2.004173   2.338073   3.620796
    23  H    2.442593   1.923446   1.209901   2.776026   2.702033
    24  H    3.918870   2.801833   2.316016   2.749937   1.212263
    25  H    5.672734   5.142391   3.660124   3.573989   2.214257
    26  H    4.318953   4.037715   3.251865   2.252291   1.958336
    27  H    5.661077   5.840477   4.136509   3.278786   3.209286
    28  H    4.366018   4.793837   3.801019   2.255729   3.149006
    29  H    6.345724   7.157218   5.638564   4.357407   5.268001
                   11         12         13         14         15
    11  C    0.000000
    12  C    1.392205   0.000000
    13  C    2.309051   1.343624   0.000000
    14  C    3.456306   2.256751   1.380813   0.000000
    15  C    4.604409   3.521565   2.402767   1.327201   0.000000
    16  C    5.367877   4.321646   3.451024   2.215323   1.426083
    17  O    6.587142   5.489526   4.569191   3.293424   2.274333
    18  H    6.790160   5.641207   5.379175   4.099617   4.016739
    19  H    6.728296   5.518568   4.931103   3.557260   3.068619
    20  H    5.621818   4.647729   4.796268   3.825543   4.290506
    21  H    4.584772   4.097204   4.626767   4.197512   4.988727
    22  H    4.858692   4.830766   4.882081   4.690708   5.050856
    23  H    3.880008   4.497514   4.914854   5.332577   6.031263
    24  H    1.922227   2.681288   3.783581   4.521643   5.695808
    25  H    1.096700   2.087932   2.486924   3.817960   4.787650
    26  H    2.083705   1.177457   2.230650   2.547753   3.854350
    27  H    2.677326   2.200455   1.078038   2.079979   2.605217
    28  H    3.379983   2.133859   1.951115   1.113216   2.211159
    29  H    5.144619   4.185641   2.907544   2.198102   1.050964
                   16         17         18         19         20
    16  C    0.000000
    17  O    1.250948   0.000000
    18  H    2.968651   2.958118   0.000000
    19  H    2.035728   1.658527   1.433104   0.000000
    20  H    3.514343   4.098267   1.858049   2.936607   0.000000
    21  H    4.469978   5.411224   3.875241   4.714311   2.119292
    22  H    4.478186   5.447887   5.272164   5.571956   4.233670
    23  H    5.949063   7.099581   7.006600   7.273952   5.663593
    24  H    6.051957   7.284167   6.831820   7.143594   5.285624
    25  H    5.716173   6.903085   7.510740   7.272665   6.502413
    26  H    4.326546   5.470976   5.010345   5.171846   3.766431
    27  H    3.759047   4.814717   6.107661   5.494194   5.661923
    28  H    2.533694   3.620590   3.547315   3.403716   2.895258
    29  H    2.106773   2.583761   4.873225   3.748608   5.308886
                   21         22         23         24         25
    21  H    0.000000
    22  H    2.938869   0.000000
    23  H    3.860346   2.266638   0.000000
    24  H    3.663845   4.209742   2.912197   0.000000
    25  H    5.547126   5.403228   4.319163   2.828291   0.000000
    26  H    3.145428   4.517875   4.382319   2.438895   3.054375
    27  H    5.426795   5.139466   5.064257   4.313742   2.409000
    28  H    3.229420   4.313764   5.006376   4.013000   4.035228
    29  H    5.981421   5.720274   6.630458   6.424451   5.114851
                   26         27         28         29
    26  H    0.000000
    27  H    3.212033   0.000000
    28  H    1.870317   2.890495   0.000000
    29  H    4.712618   2.734848   3.207818   0.000000
 Stoichiometry    C13H12N2OS
 Framework group  C1[X(C13H12N2OS)]
 Deg. of freedom    81
 Full point group                 C1      NOp   1
 Largest Abelian subgroup         C1      NOp   1
 Largest concise Abelian subgroup C1      NOp   1
                         Standard orientation:                         
 ---------------------------------------------------------------------
 Center     Atomic      Atomic             Coordinates (Angstroms)
 Number     Number       Type             X           Y           Z
 ---------------------------------------------------------------------
      1          7           0       -2.563213   -1.172027    1.165626
      2          6           0       -1.183803   -0.688705   -0.015628
      3          6           0       -0.824689   -1.900521    0.658447
      4          7           0       -0.083662   -2.453518   -0.167028
      5          6           0        1.101360   -2.065976    0.307994
      6          6           0        1.983321   -1.776765   -0.642985
      7         16           0        3.268983   -0.892257    0.034538
      8          6           0        2.195174    0.333570   -0.906191
      9          6           0        0.741543    0.330187   -0.265618
     10          6           0        1.833499    1.754066    0.108525
     11          6           0        1.465474    3.039161    0.334374
     12          6           0        0.266949    2.551080    0.847745
     13          6           0       -0.774985    2.591399    0.000352
     14          6           0       -1.646326    1.540328    0.206896
     15          6           0       -2.669988    1.232889   -0.579908
     16          6           0       -2.698569   -0.188307   -0.694360
     17          8           0       -3.830424   -0.711044   -0.796938
     18          1           0       -2.673553   -2.223133    1.467062
     19          1           0       -3.560535   -1.420820    0.677542
     20          1           0       -0.890092   -1.843223    1.823827
     21          1           0        1.115718   -1.434387    1.275211
     22          1           0        1.507828   -1.401335   -1.637195
     23          1           0        3.173958    0.134679   -1.589043
     24          1           0        2.830793    1.767823    0.797580
     25          1           0        1.332658    3.852798   -0.388886
     26          1           0        0.515026    1.640711    1.552082
     27          1           0       -0.884795    3.094521   -0.946736
     28          1           0       -1.085694    0.902608    0.926795
     29          1           0       -3.247290    1.758601   -1.283381
 ---------------------------------------------------------------------
 Rotational constants (GHZ):           0.6550448           0.4049243           0.2751279
 Standard basis: 6-31G(2df,p) (6D, 7F)
 There are   591 symmetry adapted cartesian basis functions of A   symmetry.
 There are   540 symmetry adapted basis functions of A   symmetry.
   540 basis functions,   856 primitive gaussians,   591 cartesian basis functions
    64 alpha electrons       64 beta electrons
       nuclear repulsion energy      1301.8690364543 Hartrees.
 NAtoms=   29 NActive=   29 NUniq=   29 SFac= 1.00D+00 NAtFMM=   60 NAOKFM=F Big=F
 Integral buffers will be    131072 words long.
 Raffenetti 2 integral format.
 Two-electron integral symmetry is turned on.
 One-electron integrals computed using PRISM.
 PrsmSu:  requested number of processors reduced to:  12 ShMem   1 Linda.
 NBasis=   540 RedAO= T EigKep=  2.34D-04  NBF=   540
 NBsUse=   540 1.00D-06 EigRej= -1.00D+00 NBFU=   540
 ExpMin= 1.17D-01 ExpMax= 2.19D+04 ExpMxC= 3.30D+03 IAcc=3 IRadAn=         5 AccDes= 0.00D+00
 Harris functional with IExCor=  402 and IRadAn=       5 diagonalized for initial guess.
 HarFok:  IExCor=  402 AccDes= 0.00D+00 IRadAn=         5 IDoV= 1 UseB2=F ITyADJ=14
 ICtDFT=  3500011 ScaDFX=  1.000000  1.000000  1.000000  1.000000
 FoFCou: FMM=F IPFlag=           0 FMFlag=      100000 FMFlg1=           0
         NFxFlg=           0 DoJE=T BraDBF=F KetDBF=T FulRan=T
         wScrn=  0.000000 ICntrl=       500 IOpCl=  0 I1Cent=   200000004 NGrid=           0
         NMat0=    1 NMatS0=      1 NMatT0=    0 NMatD0=    1 NMtDS0=    0 NMtDT0=    0
 Petite list used in FoFCou.
 Requested convergence on RMS density matrix=1.00D-08 within 128 cycles.
 Requested convergence on MAX density matrix=1.00D-06.
 Requested convergence on             energy=1.00D-06.
 No special actions if energy rises.
 Integral accuracy reduced to 1.0D-05 until final iterations.
 EnCoef did     2 forward-backward iterations
 EnCoef did     2 forward-backward iterations
 EnCoef did     6 forward-backward iterations
 EnCoef did     2 forward-backward iterations
 Initial convergence to 1.5D-05 achieved.  Increase integral accuracy.
 EnCoef did   100 forward-backward iterations
 SCF Done:  E(RB3LYP) =  -1084.40471554     A.U. after   36 cycles
            NFock= 36  Conv=0.54D-08     -V/T= 2.0044

 **********************************************************************

            Population analysis using the SCF density.

 **********************************************************************

 Orbital symmetries:
       Occupied  (A) (A) (A) (A) (A) (A) (A) (A) (A) (A) (A) (A)
                 (A) (A) (A) (A) (A) (A) (A) (A) (A) (A) (A) (A)
                 (A) (A) (A) (A) (A) (A) (A) (A) (A) (A) (A) (A)
                 (A) (A) (A) (A) (A) (A) (A) (A) (A) (A) (A) (A)
                 (A) (A) (A) (A) (A) (A) (A) (A) (A) (A) (A) (A)
                 (A) (A) (A) (A)
       Virtual   (A) (A) (A) (A) (A) (A) (A) (A) (A) (A) (A) (A)
                 (A) (A) (A) (A) (A) (A) (A) (A) (A) (A) (A) (A)
                 (A) (A) (A) (A) (A) (A) (A) (A) (A) (A) (A) (A)
                 (A) (A) (A) (A) (A) (A) (A) (A) (A) (A) (A) (A)
                 (A) (A) (A) (A) (A) (A) (A) (A) (A) (A) (A) (A)
                 (A) (A) (A) (A) (A) (A) (A) (A) (A) (A) (A) (A)
                 (A) (A) (A) (A) (A) (A) (A) (A) (A) (A) (A) (A)
                 (A) (A) (A) (A) (A) (A) (A) (A) (A) (A) (A) (A)
                 (A) (A) (A) (A) (A) (A) (A) (A) (A) (A) (A) (A)
                 (A) (A) (A) (A) (A) (A) (A) (A) (A) (A) (A) (A)
                 (A) (A) (A) (A) (A) (A) (A) (A) (A) (A) (A) (A)
                 (A) (A) (A) (A) (A) (A) (A) (A) (A) (A) (A) (A)
                 (A) (A) (A) (A) (A) (A) (A) (A) (A) (A) (A) (A)
                 (A) (A) (A) (A) (A) (A) (A) (A) (A) (A) (A) (A)
                 (A) (A) (A) (A) (A) (A) (A) (A) (A) (A) (A) (A)
                 (A) (A) (A) (A) (A) (A) (A) (A) (A) (A) (A) (A)
                 (A) (A) (A) (A) (A) (A) (A) (A) (A) (A) (A) (A)
                 (A) (A) (A) (A) (A) (A) (A) (A) (A) (A) (A) (A)
                 (A) (A) (A) (A) (A) (A) (A) (A) (A) (A) (A) (A)
                 (A) (A) (A) (A) (A) (A) (A) (A) (A) (A) (A) (A)
                 (A) (A) (A) (A) (A) (A) (A) (A) (A) (A) (A) (A)
                 (A) (A) (A) (A) (A) (A) (A) (A) (A) (A) (A) (A)
                 (A) (A) (A) (A) (A) (A) (A) (A) (A) (A) (A) (A)
                 (A) (A) (A) (A) (A) (A) (A) (A) (A) (A) (A) (A)
                 (A) (A) (A) (A) (A) (A) (A) (A) (A) (A) (A) (A)
                 (A) (A) (A) (A) (A) (A) (A) (A) (A) (A) (A) (A)
                 (A) (A) (A) (A) (A) (A) (A) (A) (A) (A) (A) (A)
                 (A) (A) (A) (A) (A) (A) (A) (A) (A) (A) (A) (A)
                 (A) (A) (A) (A) (A) (A) (A) (A) (A) (A) (A) (A)
                 (A) (A) (A) (A) (A) (A) (A) (A) (A) (A) (A) (A)
                 (A) (A) (A) (A) (A) (A) (A) (A) (A) (A) (A) (A)
                 (A) (A) (A) (A) (A) (A) (A) (A) (A) (A) (A) (A)
                 (A) (A) (A) (A) (A) (A) (A) (A) (A) (A) (A) (A)
                 (A) (A) (A) (A) (A) (A) (A) (A) (A) (A) (A) (A)
                 (A) (A) (A) (A) (A) (A) (A) (A) (A) (A) (A) (A)
                 (A) (A) (A) (A) (A) (A) (A) (A) (A) (A) (A) (A)
                 (A) (A) (A) (A) (A) (A) (A) (A) (A) (A) (A) (A)
                 (A) (A) (A) (A) (A) (A) (A) (A) (A) (A) (A) (A)
                 (A) (A) (A) (A) (A) (A) (A) (A) (A) (A) (A) (A)
                 (A) (A) (A) (A) (A) (A) (A) (A)
 The electronic state is 1-A.
 Alpha  occ. eigenvalues --  -88.88610 -19.12727 -14.35330 -14.34791 -10.28863
 Alpha  occ. eigenvalues --  -10.27539 -10.27371 -10.27175 -10.25962 -10.25408
 Alpha  occ. eigenvalues --  -10.23829 -10.22552 -10.22167 -10.21830 -10.19186
 Alpha  occ. eigenvalues --  -10.19101 -10.17719  -7.95135  -5.91494  -5.91331
 Alpha  occ. eigenvalues --   -5.90677  -1.03226  -1.02393  -0.90627  -0.88001
 Alpha  occ. eigenvalues --   -0.85860  -0.83209  -0.77087  -0.74641  -0.71232
 Alpha  occ. eigenvalues --   -0.68736  -0.62808  -0.60441  -0.59444  -0.57932
 Alpha  occ. eigenvalues --   -0.56363  -0.55568  -0.52869  -0.50717  -0.50094
 Alpha  occ. eigenvalues --   -0.49137  -0.46344  -0.45438  -0.44901  -0.43562
 Alpha  occ. eigenvalues --   -0.42490  -0.40389  -0.39562  -0.39124  -0.37590
 Alpha  occ. eigenvalues --   -0.37339  -0.36603  -0.34860  -0.34151  -0.30910
 Alpha  occ. eigenvalues --   -0.30692  -0.30082  -0.28705  -0.25437  -0.24355
 Alpha  occ. eigenvalues --   -0.23650  -0.20119  -0.19218  -0.17219
 Alpha virt. eigenvalues --   -0.14179  -0.11696  -0.06470  -0.05866  -0.02734
 Alpha virt. eigenvalues --   -0.00690   0.00517   0.00903   0.03179   0.04956
 Alpha virt. eigenvalues --    0.06267   0.06678   0.07893   0.09703   0.10532
 Alpha virt. eigenvalues --    0.10747   0.12126   0.12839   0.13908   0.14335
 Alpha virt. eigenvalues --    0.15185   0.16255   0.17171   0.18932   0.20394
 Alpha virt. eigenvalues --    0.23174   0.23953   0.24757   0.26454   0.26783
 Alpha virt. eigenvalues --    0.28989   0.30770   0.31672   0.32724   0.33792
 Alpha virt. eigenvalues --    0.35191   0.35992   0.36852   0.37636   0.39003
 Alpha virt. eigenvalues --    0.39626   0.40903   0.41732   0.43432   0.44335
 Alpha virt. eigenvalues --    0.44822   0.45573   0.46921   0.48491   0.49317
 Alpha virt. eigenvalues --    0.50065   0.50452   0.51560   0.51861   0.52610
 Alpha virt. eigenvalues --    0.53535   0.54822   0.55169   0.55923   0.57091
 Alpha virt. eigenvalues --    0.57342   0.59203   0.60023   0.60788   0.61679
 Alpha virt. eigenvalues --    0.62109   0.62760   0.63880   0.64153   0.64497
 Alpha virt. eigenvalues --    0.65219   0.66125   0.66738   0.67342   0.68381
 Alpha virt. eigenvalues --    0.69070   0.69846   0.70230   0.70930   0.71869
 Alpha virt. eigenvalues --    0.72351   0.73621   0.74437   0.74668   0.75768
 Alpha virt. eigenvalues --    0.76137   0.77308   0.77614   0.77754   0.78177
 Alpha virt. eigenvalues --    0.79527   0.79859   0.80223   0.81129   0.81576
 Alpha virt. eigenvalues --    0.82813   0.83292   0.84284   0.85063   0.85351
 Alpha virt. eigenvalues --    0.85743   0.88411   0.89119   0.90027   0.90338
 Alpha virt. eigenvalues --    0.92597   0.93082   0.93446   0.94220   0.95107
 Alpha virt. eigenvalues --    0.95961   0.98388   0.99468   0.99763   1.01603
 Alpha virt. eigenvalues --    1.03245   1.03652   1.04554   1.04869   1.06198
 Alpha virt. eigenvalues --    1.07058   1.09800   1.11354   1.11870   1.12559
 Alpha virt. eigenvalues --    1.14478   1.15889   1.17182   1.18596   1.19623
 Alpha virt. eigenvalues --    1.21123   1.22393   1.23792   1.25730   1.27613
 Alpha virt. eigenvalues --    1.27946   1.28892   1.30124   1.31018   1.32420
 Alpha virt. eigenvalues --    1.35079   1.36063   1.36477   1.37233   1.38248
 Alpha virt. eigenvalues --    1.39820   1.40703   1.41104   1.41848   1.42565
 Alpha virt. eigenvalues --    1.43925   1.45122   1.47032   1.47759   1.47910
 Alpha virt. eigenvalues --    1.49730   1.51053   1.51948   1.53047   1.54418
 Alpha virt. eigenvalues --    1.55136   1.56330   1.56952   1.57840   1.58360
 Alpha virt. eigenvalues --    1.59480   1.61412   1.61665   1.62357   1.64856
 Alpha virt. eigenvalues --    1.66972   1.67748   1.68311   1.69216   1.70001
 Alpha virt. eigenvalues --    1.71131   1.72922   1.73715   1.74794   1.75243
 Alpha virt. eigenvalues --    1.76748   1.77492   1.79865   1.80936   1.81595
 Alpha virt. eigenvalues --    1.82126   1.84453   1.86882   1.87475   1.88589
 Alpha virt. eigenvalues --    1.89634   1.90709   1.91994   1.94165   1.94693
 Alpha virt. eigenvalues --    1.96445   1.97579   1.98550   2.00557   2.01609
 Alpha virt. eigenvalues --    2.03495   2.04792   2.07549   2.08908   2.11995
 Alpha virt. eigenvalues --    2.12185   2.14626   2.17436   2.21283   2.21513
 Alpha virt. eigenvalues --    2.23178   2.24746   2.26236   2.29399   2.30430
 Alpha virt. eigenvalues --    2.31787   2.33919   2.34602   2.35130   2.37179
 Alpha virt. eigenvalues --    2.39030   2.40381   2.42288   2.43408   2.44081
 Alpha virt. eigenvalues --    2.47535   2.47763   2.51037   2.52066   2.54160
 Alpha virt. eigenvalues --    2.55515   2.57054   2.57570   2.59947   2.61015
 Alpha virt. eigenvalues --    2.62431   2.63327   2.64937   2.67870   2.68924
 Alpha virt. eigenvalues --    2.70556   2.72091   2.72407   2.73767   2.74341
 Alpha virt. eigenvalues --    2.76308   2.78160   2.79133   2.79677   2.80908
 Alpha virt. eigenvalues --    2.83489   2.84741   2.86199   2.88674   2.89259
 Alpha virt. eigenvalues --    2.90527   2.91237   2.92094   2.93144   2.94671
 Alpha virt. eigenvalues --    2.95619   2.97404   2.98536   2.99456   3.01452
 Alpha virt. eigenvalues --    3.02248   3.03387   3.05298   3.06785   3.07984
 Alpha virt. eigenvalues --    3.08348   3.08920   3.10623   3.11201   3.12763
 Alpha virt. eigenvalues --    3.13706   3.14832   3.17697   3.18024   3.18835
 Alpha virt. eigenvalues --    3.19337   3.21790   3.22085   3.22459   3.23072
 Alpha virt. eigenvalues --    3.25374   3.27245   3.27891   3.28758   3.30166
 Alpha virt. eigenvalues --    3.32123   3.33746   3.35184   3.35953   3.36698
 Alpha virt. eigenvalues --    3.37991   3.38571   3.39365   3.40990   3.41670
 Alpha virt. eigenvalues --    3.43465   3.44927   3.47478   3.48017   3.49516
 Alpha virt. eigenvalues --    3.51288   3.51639   3.53824   3.55611   3.56328
 Alpha virt. eigenvalues --    3.58304   3.59297   3.60074   3.61108   3.63729
 Alpha virt. eigenvalues --    3.65053   3.67165   3.68836   3.70210   3.73022
 Alpha virt. eigenvalues --    3.73919   3.76633   3.78914   3.79831   3.81558
 Alpha virt. eigenvalues --    3.83112   3.84281   3.86712   3.87402   3.88759
 Alpha virt. eigenvalues --    3.91215   3.93754   3.95071   3.96875   3.98539
 Alpha virt. eigenvalues --    4.00280   4.00597   4.01826   4.03595   4.04542
 Alpha virt. eigenvalues --    4.06730   4.07711   4.09751   4.10332   4.11887
 Alpha virt. eigenvalues --    4.14953   4.16405   4.17270   4.20371   4.21013
 Alpha virt. eigenvalues --    4.21615   4.23022   4.24535   4.26395   4.27468
 Alpha virt. eigenvalues --    4.28606   4.30471   4.33812   4.35593   4.36943
 Alpha virt. eigenvalues --    4.37745   4.38365   4.40461   4.41913   4.42913
 Alpha virt. eigenvalues --    4.44702   4.46222   4.47518   4.48464   4.48634
 Alpha virt. eigenvalues --    4.51304   4.51945   4.53188   4.54295   4.55294
 Alpha virt. eigenvalues --    4.55884   4.56933   4.58806   4.60172   4.61204
 Alpha virt. eigenvalues --    4.62261   4.63230   4.63796   4.65362   4.67513
 Alpha virt. eigenvalues --    4.67717   4.69380   4.69614   4.71721   4.72718
 Alpha virt. eigenvalues --    4.73559   4.74786   4.75590   4.76078   4.77532
 Alpha virt. eigenvalues --    4.78719   4.80113   4.80779   4.82094   4.83550
 Alpha virt. eigenvalues --    4.84631   4.85911   4.86172   4.88048   4.88223
 Alpha virt. eigenvalues --    4.90239   4.91241   4.93167   4.94749   4.94808
 Alpha virt. eigenvalues --    4.97304   4.97500   4.97974   5.01445   5.02688
 Alpha virt. eigenvalues --    5.04552   5.04836   5.06484   5.08586   5.09416
 Alpha virt. eigenvalues --    5.10408   5.12992   5.13889   5.15640   5.18178
 Alpha virt. eigenvalues --    5.19278   5.22022   5.23276   5.25308   5.29046
 Alpha virt. eigenvalues --    5.29352   5.32660   5.35991   5.39392   5.40495
 Alpha virt. eigenvalues --    5.41005   5.46995   5.47983   5.48728   5.52076
 Alpha virt. eigenvalues --    5.57459   5.58651   5.60877   5.65831   5.68107
 Alpha virt. eigenvalues --    5.70710   5.72043   5.78247   5.85203   5.87209
 Alpha virt. eigenvalues --    5.95760   6.04323   6.16217   6.31907   6.42563
 Alpha virt. eigenvalues --    6.45829   6.67085   6.91461   9.96628  10.57590
 Alpha virt. eigenvalues --   10.82329  10.99075  11.05565  11.17836  11.32779
 Alpha virt. eigenvalues --   11.39130  11.51198  11.67825  11.78011  11.91657
 Alpha virt. eigenvalues --   12.09449  12.20254  12.27157  12.49354  13.19040
 Alpha virt. eigenvalues --   18.28038
          Condensed to atoms (all electrons):
               1          2          3          4          5          6
     1  N    7.167584   0.014907   0.042820   0.000951   0.002221  -0.000062
     2  C    0.014907   5.626674   0.279531  -0.088319  -0.030147   0.004237
     3  C    0.042820   0.279531   5.100273   0.468337  -0.139090  -0.011449
     4  N    0.000951  -0.088319   0.468337   6.375592   0.509216  -0.034115
     5  C    0.002221  -0.030147  -0.139090   0.509216   4.911089   0.509750
     6  C   -0.000062   0.004237  -0.011449  -0.034115   0.509750   5.182809
     7  S    0.000014  -0.000411  -0.000401   0.006005  -0.081253   0.302525
     8  C   -0.000040  -0.005737   0.002631  -0.002105  -0.006693  -0.092664
     9  C    0.002618   0.083933  -0.010845  -0.016042   0.017112  -0.009678
    10  C   -0.000021  -0.006103  -0.000108  -0.000031   0.000694   0.011223
    11  C   -0.000004   0.001011  -0.000029  -0.000023   0.000037   0.000444
    12  C   -0.000183   0.002868   0.000067  -0.000019  -0.000095  -0.000145
    13  C    0.000958  -0.006490   0.000418   0.000094  -0.000122  -0.000159
    14  C   -0.000641  -0.010755  -0.002655   0.000636   0.000179  -0.000004
    15  C   -0.001747  -0.122904   0.007901   0.000028  -0.000013   0.000024
    16  C   -0.023798   0.321123  -0.036120   0.001551   0.000274   0.000017
    17  O   -0.096700  -0.032072   0.001294  -0.000130  -0.000008  -0.000000
    18  H    0.251065   0.005860  -0.037562   0.000918  -0.000275  -0.000034
    19  H    0.256631  -0.007707   0.004841  -0.001139  -0.000031   0.000003
    20  H   -0.028430  -0.065222   0.364718  -0.040732  -0.007766   0.000177
    21  H   -0.000156  -0.005723   0.022549  -0.068253   0.359364  -0.074379
    22  H   -0.000004   0.002212   0.001017  -0.005294  -0.029275   0.349536
    23  H    0.000000  -0.000165  -0.000014  -0.000010   0.004359  -0.012789
    24  H    0.000000  -0.000064  -0.000056  -0.000001  -0.000100   0.001939
    25  H   -0.000000  -0.000022  -0.000000  -0.000000   0.000000   0.000013
    26  H   -0.000146   0.003398   0.000246  -0.000124   0.000062   0.000278
    27  H    0.000002  -0.000245   0.000005   0.000002  -0.000002   0.000003
    28  H    0.004788   0.003724   0.000578   0.000047   0.000109   0.000167
    29  H    0.000205   0.004224  -0.000057   0.000005   0.000000  -0.000000
               7          8          9         10         11         12
     1  N    0.000014  -0.000040   0.002618  -0.000021  -0.000004  -0.000183
     2  C   -0.000411  -0.005737   0.083933  -0.006103   0.001011   0.002868
     3  C   -0.000401   0.002631  -0.010845  -0.000108  -0.000029   0.000067
     4  N    0.006005  -0.002105  -0.016042  -0.000031  -0.000023  -0.000019
     5  C   -0.081253  -0.006693   0.017112   0.000694   0.000037  -0.000095
     6  C    0.302525  -0.092664  -0.009678   0.011223   0.000444  -0.000145
     7  S   16.058500   0.066612  -0.023580  -0.013367  -0.001187  -0.000404
     8  C    0.066612   5.434040   0.320945   0.164601  -0.011831   0.005839
     9  C   -0.023580   0.320945   5.750032   0.219025  -0.049455  -0.063085
    10  C   -0.013367   0.164601   0.219025   5.143305   0.437097  -0.130346
    11  C   -0.001187  -0.011831  -0.049455   0.437097   5.261840   0.412855
    12  C   -0.000404   0.005839  -0.063085  -0.130346   0.412855   5.014909
    13  C    0.000232   0.001994   0.000830  -0.060224  -0.018689   0.565098
    14  C    0.000011   0.000689  -0.009773   0.002916  -0.000980   0.000914
    15  C    0.000016   0.000030   0.008412   0.001071  -0.001269   0.002347
    16  C   -0.000016   0.000056  -0.005474   0.000082   0.000082   0.000229
    17  O   -0.000000   0.000000   0.000060   0.000000  -0.000000   0.000001
    18  H   -0.000002   0.000003  -0.000060  -0.000000   0.000000   0.000005
    19  H   -0.000000   0.000000  -0.000061   0.000001   0.000000   0.000001
    20  H    0.000381   0.000023  -0.002643   0.000011  -0.000008  -0.000016
    21  H    0.001630   0.002454   0.011235   0.000107  -0.000117  -0.000128
    22  H   -0.039456  -0.004832  -0.010880   0.001450  -0.000022  -0.000022
    23  H   -0.099713   0.335170  -0.017580  -0.018752  -0.000753  -0.000118
    24  H   -0.004608  -0.039280  -0.016707   0.324448  -0.068055   0.002367
    25  H   -0.000074  -0.002349  -0.000626  -0.039574   0.349935  -0.038969
    26  H   -0.000780  -0.001431  -0.017823  -0.014219  -0.045822   0.373407
    27  H    0.000014  -0.000012   0.001889   0.001454  -0.005266  -0.050114
    28  H   -0.000050   0.000219  -0.017940   0.003800   0.000797  -0.021236
    29  H   -0.000000   0.000004  -0.000156   0.000011  -0.000037   0.000262
              13         14         15         16         17         18
     1  N    0.000958  -0.000641  -0.001747  -0.023798  -0.096700   0.251065
     2  C   -0.006490  -0.010755  -0.122904   0.321123  -0.032072   0.005860
     3  C    0.000418  -0.002655   0.007901  -0.036120   0.001294  -0.037562
     4  N    0.000094   0.000636   0.000028   0.001551  -0.000130   0.000918
     5  C   -0.000122   0.000179  -0.000013   0.000274  -0.000008  -0.000275
     6  C   -0.000159  -0.000004   0.000024   0.000017  -0.000000  -0.000034
     7  S    0.000232   0.000011   0.000016  -0.000016  -0.000000  -0.000002
     8  C    0.001994   0.000689   0.000030   0.000056   0.000000   0.000003
     9  C    0.000830  -0.009773   0.008412  -0.005474   0.000060  -0.000060
    10  C   -0.060224   0.002916   0.001071   0.000082   0.000000  -0.000000
    11  C   -0.018689  -0.000980  -0.001269   0.000082  -0.000000   0.000000
    12  C    0.565098   0.000914   0.002347   0.000229   0.000001   0.000005
    13  C    4.877119   0.487570  -0.043109   0.002480  -0.000121  -0.000012
    14  C    0.487570   4.731029   0.463853   0.002777   0.002315   0.000010
    15  C   -0.043109   0.463853   5.275636   0.341115  -0.078888  -0.000545
    16  C    0.002480   0.002777   0.341115   4.558607   0.649676   0.008229
    17  O   -0.000121   0.002315  -0.078888   0.649676   7.862012   0.003565
    18  H   -0.000012   0.000010  -0.000545   0.008229   0.003565   0.585305
    19  H   -0.000053  -0.000915   0.006108  -0.042845   0.040850  -0.036645
    20  H    0.000106  -0.000006   0.000227   0.001508  -0.000006  -0.014273
    21  H    0.000025  -0.000162   0.000000   0.000048  -0.000002   0.000178
    22  H    0.000010  -0.000031   0.000014   0.000018  -0.000000  -0.000003
    23  H   -0.000177   0.000002   0.000002   0.000001  -0.000000   0.000000
    24  H    0.002413   0.000054  -0.000003  -0.000000  -0.000000  -0.000000
    25  H   -0.009657   0.000385   0.000009   0.000004   0.000000   0.000000
    26  H   -0.029081  -0.016861   0.000430   0.000132  -0.000000   0.000008
    27  H    0.372903  -0.036968  -0.005106  -0.000659  -0.000001  -0.000000
    28  H   -0.065596   0.364059  -0.015466  -0.023047   0.000266  -0.000367
    29  H   -0.006610  -0.036959   0.377921  -0.034719  -0.000636   0.000002
              19         20         21         22         23         24
     1  N    0.256631  -0.028430  -0.000156  -0.000004   0.000000   0.000000
     2  C   -0.007707  -0.065222  -0.005723   0.002212  -0.000165  -0.000064
     3  C    0.004841   0.364718   0.022549   0.001017  -0.000014  -0.000056
     4  N   -0.001139  -0.040732  -0.068253  -0.005294  -0.000010  -0.000001
     5  C   -0.000031  -0.007766   0.359364  -0.029275   0.004359  -0.000100
     6  C    0.000003   0.000177  -0.074379   0.349536  -0.012789   0.001939
     7  S   -0.000000   0.000381   0.001630  -0.039456  -0.099713  -0.004608
     8  C    0.000000   0.000023   0.002454  -0.004832   0.335170  -0.039280
     9  C   -0.000061  -0.002643   0.011235  -0.010880  -0.017580  -0.016707
    10  C    0.000001   0.000011   0.000107   0.001450  -0.018752   0.324448
    11  C    0.000000  -0.000008  -0.000117  -0.000022  -0.000753  -0.068055
    12  C    0.000001  -0.000016  -0.000128  -0.000022  -0.000118   0.002367
    13  C   -0.000053   0.000106   0.000025   0.000010  -0.000177   0.002413
    14  C   -0.000915  -0.000006  -0.000162  -0.000031   0.000002   0.000054
    15  C    0.006108   0.000227   0.000000   0.000014   0.000002  -0.000003
    16  C   -0.042845   0.001508   0.000048   0.000018   0.000001  -0.000000
    17  O    0.040850  -0.000006  -0.000002  -0.000000  -0.000000  -0.000000
    18  H   -0.036645  -0.014273   0.000178  -0.000003   0.000000  -0.000000
    19  H    0.500911   0.002199  -0.000001   0.000000   0.000000   0.000000
    20  H    0.002199   0.615780   0.013975   0.000039  -0.000001  -0.000001
    21  H   -0.000001   0.013975   0.601324   0.005777   0.000313  -0.000658
    22  H    0.000000   0.000039   0.005777   0.549322   0.001267   0.000106
    23  H    0.000000  -0.000001   0.000313   0.001267   0.598389   0.000316
    24  H    0.000000  -0.000001  -0.000658   0.000106   0.000316   0.653790
    25  H    0.000000  -0.000000  -0.000002   0.000001   0.000126   0.006322
    26  H    0.000002  -0.000071   0.000404   0.000008   0.000023   0.001985
    27  H    0.000001   0.000001  -0.000001   0.000002  -0.000009   0.000004
    28  H    0.000520   0.001409   0.000413   0.000011  -0.000002  -0.000136
    29  H   -0.000025   0.000006   0.000000  -0.000000   0.000000  -0.000000
              25         26         27         28         29
     1  N   -0.000000  -0.000146   0.000002   0.004788   0.000205
     2  C   -0.000022   0.003398  -0.000245   0.003724   0.004224
     3  C   -0.000000   0.000246   0.000005   0.000578  -0.000057
     4  N   -0.000000  -0.000124   0.000002   0.000047   0.000005
     5  C    0.000000   0.000062  -0.000002   0.000109   0.000000
     6  C    0.000013   0.000278   0.000003   0.000167  -0.000000
     7  S   -0.000074  -0.000780   0.000014  -0.000050  -0.000000
     8  C   -0.002349  -0.001431  -0.000012   0.000219   0.000004
     9  C   -0.000626  -0.017823   0.001889  -0.017940  -0.000156
    10  C   -0.039574  -0.014219   0.001454   0.003800   0.000011
    11  C    0.349935  -0.045822  -0.005266   0.000797  -0.000037
    12  C   -0.038969   0.373407  -0.050114  -0.021236   0.000262
    13  C   -0.009657  -0.029081   0.372903  -0.065596  -0.006610
    14  C    0.000385  -0.016861  -0.036968   0.364059  -0.036959
    15  C    0.000009   0.000430  -0.005106  -0.015466   0.377921
    16  C    0.000004   0.000132  -0.000659  -0.023047  -0.034719
    17  O    0.000000  -0.000000  -0.000001   0.000266  -0.000636
    18  H    0.000000   0.000008  -0.000000  -0.000367   0.000002
    19  H    0.000000   0.000002   0.000001   0.000520  -0.000025
    20  H   -0.000000  -0.000071   0.000001   0.001409   0.000006
    21  H   -0.000002   0.000404  -0.000001   0.000413   0.000000
    22  H    0.000001   0.000008   0.000002   0.000011  -0.000000
    23  H    0.000126   0.000023  -0.000009  -0.000002   0.000000
    24  H    0.006322   0.001985   0.000004  -0.000136  -0.000000
    25  H    0.588336   0.006260   0.002760   0.000051  -0.000003
    26  H    0.006260   0.573635   0.003285   0.005883  -0.000009
    27  H    0.002760   0.003285   0.595309   0.007939   0.002234
    28  H    0.000051   0.005883   0.007939   0.577628   0.003349
    29  H   -0.000003  -0.000009   0.002234   0.003349   0.561696
 Mulliken charges:
               1
     1  N   -0.592834
     2  C    0.028384
     3  C   -0.058843
     4  N   -0.107046
     5  C   -0.019594
     6  C   -0.127668
     7  S   -0.170637
     8  C   -0.168336
     9  C   -0.143683
    10  C   -0.028554
    11  C   -0.260553
    12  C   -0.076287
    13  C   -0.072150
    14  C    0.059310
    15  C   -0.216095
    16  C    0.278671
    17  O   -0.351476
    18  H    0.234628
    19  H    0.277351
    20  H    0.158615
    21  H    0.129785
    22  H    0.179028
    23  H    0.210114
    24  H    0.135926
    25  H    0.137075
    26  H    0.156923
    27  H    0.110576
    28  H    0.168082
    29  H    0.129290
 Sum of Mulliken charges =  -0.00000
 Mulliken charges with hydrogens summed into heavy atoms:
               1
     1  N   -0.080854
     2  C    0.028384
     3  C    0.099771
     4  N   -0.107046
     5  C    0.110190
     6  C    0.051359
     7  S   -0.170637
     8  C    0.041778
     9  C   -0.143683
    10  C    0.107372
    11  C   -0.123478
    12  C    0.080637
    13  C    0.038426
    14  C    0.227392
    15  C   -0.086805
    16  C    0.278671
    17  O   -0.351476
 Electronic spatial extent (au):  <R**2>=           3906.1736
 Charge=             -0.0000 electrons
 Dipole moment (field-independent basis, Debye):
    X=              1.7127    Y=              1.9090    Z=              0.8423  Tot=              2.6994
 Quadrupole moment (field-independent basis, Debye-Ang):
   XX=           -117.0802   YY=           -102.2821   ZZ=           -105.4327
   XY=              4.5668   XZ=             -3.3274   YZ=             -8.2930
 Traceless Quadrupole moment (field-independent basis, Debye-Ang):
   XX=             -8.8152   YY=              5.9829   ZZ=              2.8323
   XY=              4.5668   XZ=             -3.3274   YZ=             -8.2930
 Octapole moment (field-independent basis, Debye-Ang**2):
  XXX=             10.9662  YYY=              8.6757  ZZZ=             -3.9536  XYY=            -19.0091
  XXY=              9.5356  XXZ=              8.1551  XZZ=             -1.3162  YZZ=             -4.4463
  YYZ=              2.6199  XYZ=             16.5113
 Hexadecapole moment (field-independent basis, Debye-Ang**3):
 XXXX=          -3235.3087 YYYY=          -1897.3911 ZZZZ=           -376.0983 XXXY=             46.6347
 XXXZ=            -58.9651 YYYX=             57.4959 YYYZ=            -84.8175 ZZZX=             11.9839
 ZZZY=            -12.7392 XXYY=           -784.9210 XXZZ=           -565.7502 YYZZ=           -375.8098
 XXYZ=            -55.6258 YYXZ=             -5.9582 ZZXY=              2.8528
 N-N= 1.301869036454D+03 E-N=-5.146545231683D+03  KE= 1.079642930908D+03
 PrsmSu:  requested number of processors reduced to:  13 ShMem   1 Linda.
 Calling FoFJK, ICntrl=      2127 FMM=F ISym2X=0 I1Cent= 0 IOpClX= 0 NMat=1 NMatS=1 NMatT=0.
 ***** Axes restored to original set *****
 -------------------------------------------------------------------
 Center     Atomic                   Forces (Hartrees/Bohr)
 Number     Number              X              Y              Z
 -------------------------------------------------------------------
      1        7          -0.106273865    0.002818213   -0.081918333
      2        6          -0.061508503    0.046682901   -0.044040353
      3        6          -0.086889117    0.074636359    0.076831226
      4        7           0.043896312   -0.088329232   -0.071291622
      5        6          -0.046788752    0.004588305    0.000650075
      6        6           0.070573333    0.008836822   -0.015111153
      7       16           0.009684711   -0.034135096    0.029392115
      8        6          -0.008255397    0.003176686    0.040948153
      9        6           0.086510513   -0.007284301    0.034507388
     10        6           0.053415850   -0.161906233   -0.015127600
     11        6           0.029910420    0.078120318    0.005023198
     12        6          -0.046394319   -0.021865516    0.036998803
     13        6          -0.033807268    0.039047681    0.002005353
     14        6           0.015122998   -0.004518988    0.058566126
     15        6           0.010341622   -0.038953303   -0.040957816
     16        6          -0.031354775    0.038812613   -0.002663022
     17        8           0.055310937   -0.023256567   -0.017012393
     18        1           0.018520660   -0.001877196    0.038213106
     19        1           0.027633967   -0.014360460    0.054348169
     20        1           0.039330165   -0.013915564   -0.021270894
     21        1           0.009897789   -0.023607046   -0.030938373
     22        1          -0.003763800   -0.050264684   -0.006977179
     23        1          -0.022239206    0.065987891   -0.013085625
     24        1          -0.016480404    0.014704189   -0.048575818
     25        1           0.004405784   -0.008550670    0.008008301
     26        1          -0.000741194    0.057058428    0.018728773
     27        1           0.006051167    0.003775683    0.018636707
     28        1          -0.021475620    0.030663540   -0.023981837
     29        1           0.005365993    0.023915228    0.010094527
 -------------------------------------------------------------------
 Cartesian Forces:  Max     0.161906233 RMS     0.043290466

 GradGradGradGradGradGradGradGradGradGradGradGradGradGradGradGradGradGrad
 Berny optimization.
 FormGI is forming the generalized inverse of G from B-inverse, IUseBI=4.
 Internal  Forces:  Max     0.198747906 RMS     0.047813014
 Search for a local minimum.
 Step number   1 out of a maximum of  135
 All quantities printed in internal units (Hartrees-Bohrs-Radians)
 Mixed Optimization -- RFO/linear search
 Second derivative matrix not updated -- first step.
 ITU=  0
     Eigenvalues ---    0.00230   0.00230   0.00654   0.01280   0.01537
     Eigenvalues ---    0.01798   0.02186   0.02272   0.02446   0.02595
     Eigenvalues ---    0.02673   0.02765   0.02808   0.02963   0.03031
     Eigenvalues ---    0.03262   0.03432   0.03663   0.03784   0.04024
     Eigenvalues ---    0.04114   0.04610   0.05004   0.06262   0.06883
     Eigenvalues ---    0.08052   0.08878   0.10113   0.10427   0.11494
     Eigenvalues ---    0.13232   0.13372   0.13619   0.14504   0.14683
     Eigenvalues ---    0.14768   0.15243   0.15368   0.15483   0.15693
     Eigenvalues ---    0.15839   0.16000   0.16000   0.16593   0.19889
     Eigenvalues ---    0.20656   0.21328   0.22161   0.22218   0.22463
     Eigenvalues ---    0.22585   0.22836   0.23175   0.23791   0.23922
     Eigenvalues ---    0.23956   0.24142   0.24621   0.25000   0.26387
     Eigenvalues ---    0.27105   0.27470   0.28242   0.29818   0.32262
     Eigenvalues ---    0.33790   0.34050   0.35521   0.36232   0.39743
     Eigenvalues ---    0.40332   0.41370   0.46569   0.48679   0.53470
     Eigenvalues ---    0.55692   0.58047   0.59311   0.59809   0.82887
     Eigenvalues ---    0.86465
 RFO step:  Lambda=-4.24427061D-01 EMin= 2.30000000D-03
 Linear search not attempted -- first point.
 Maximum step size (   0.300) exceeded in Quadratic search.
    -- Step size scaled by   0.427
 Iteration  1 RMS(Cart)=  0.16913650 RMS(Int)=  0.00897860
 Iteration  2 RMS(Cart)=  0.02324431 RMS(Int)=  0.00034460
 Iteration  3 RMS(Cart)=  0.00034575 RMS(Int)=  0.00032693
 Iteration  4 RMS(Cart)=  0.00000015 RMS(Int)=  0.00032693
 Variable       Old X    -DE/DX   Delta X   Delta X   Delta X     New X
                                 (Linear)    (Quad)   (Total)
    R1        2.07686  -0.03198   0.00000  -0.01790  -0.01790   2.05897
    R2        2.15029  -0.05113   0.00000  -0.03018  -0.03018   2.12010
    R3        2.70689   0.04488   0.00000   0.02223   0.02242   2.72930
    R4        3.27615   0.01261   0.00000   0.00799   0.00815   3.28430
    R5        2.34230   0.17549   0.00000   0.05785   0.05807   2.40037
    R6        2.20837  -0.03879   0.00000  -0.02379  -0.02379   2.18458
    R7        2.52129   0.05458   0.00000   0.02258   0.02261   2.54390
    R8        2.51118   0.10723   0.00000   0.04511   0.04520   2.55638
    R9        2.18312  -0.03193   0.00000  -0.01927  -0.01927   2.16385
   R10        3.21493   0.05950   0.00000   0.03194   0.03190   3.24683
   R11        2.20013  -0.03924   0.00000  -0.02394  -0.02394   2.17619
   R12        3.55584   0.04873   0.00000   0.03415   0.03397   3.58982
   R13        3.00186  -0.04906   0.00000  -0.03423  -0.03447   2.96739
   R14        3.36895  -0.00192   0.00000  -0.00083  -0.00088   3.36807
   R15        2.28638  -0.04975   0.00000  -0.03196  -0.03196   2.25443
   R16        3.46381  -0.04722   0.00000  -0.03406  -0.03404   3.42977
   R17        2.56190   0.12102   0.00000   0.05386   0.05361   2.61551
   R18        2.29085  -0.04229   0.00000  -0.02724  -0.02724   2.26361
   R19        2.63089   0.09446   0.00000   0.04499   0.04490   2.67579
   R20        2.07246  -0.00239   0.00000  -0.00133  -0.00133   2.07113
   R21        2.53908   0.03785   0.00000   0.01708   0.01702   2.55610
   R22        2.22507  -0.05110   0.00000  -0.03167  -0.03167   2.19340
   R23        2.60936   0.06180   0.00000   0.02872   0.02878   2.63814
   R24        2.03720   0.00476   0.00000   0.00258   0.00258   2.03978
   R25        2.50805   0.04465   0.00000   0.01918   0.01918   2.52723
   R26        2.10367  -0.02347   0.00000  -0.01340  -0.01340   2.09027
   R27        2.69491   0.07104   0.00000   0.03582   0.03603   2.73094
   R28        1.98603   0.02226   0.00000   0.01155   0.01155   1.99759
   R29        2.36395  -0.00801   0.00000  -0.00273  -0.00273   2.36122
   R30        3.13416   0.05321   0.00000   0.04495   0.04495   3.17911
    A1        1.39036   0.05815   0.00000   0.04244   0.04244   1.43280
    A2        2.27505   0.15005   0.00000   0.09492   0.09448   2.36953
    A3        1.78638   0.06224   0.00000   0.04412   0.04448   1.83087
    A4        1.99739  -0.00490   0.00000  -0.00327  -0.00323   1.99415
    A5        2.37383  -0.05321   0.00000  -0.03711  -0.03705   2.33678
    A6        1.73584   0.05624   0.00000   0.03902   0.04011   1.77596
    A7        1.98004   0.05880   0.00000   0.03754   0.03715   2.01719
    A8        2.05773  -0.02918   0.00000  -0.01915  -0.01903   2.03871
    A9        2.06226  -0.01914   0.00000  -0.00953  -0.00936   2.05291
   A10        1.90680  -0.00312   0.00000   0.00059   0.00082   1.90762
   A11        1.99351   0.01161   0.00000   0.01079   0.01057   2.00408
   A12        2.07267  -0.00637   0.00000  -0.00611  -0.00618   2.06648
   A13        1.27484   0.06946   0.00000   0.04756   0.04680   1.32163
   A14        1.89570  -0.00144   0.00000   0.00255   0.00241   1.89811
   A15        1.92868   0.00750   0.00000   0.00707   0.00659   1.93527
   A16        1.28013   0.02617   0.00000   0.02242   0.02254   1.30267
   A17        2.23488   0.01514   0.00000   0.01228   0.01212   2.24700
   A18        2.70262  -0.03491   0.00000  -0.02515  -0.02472   2.67790
   A19        1.73723  -0.00712   0.00000  -0.00558  -0.00561   1.73162
   A20        2.22515  -0.00990   0.00000  -0.01010  -0.01086   2.21429
   A21        2.23309  -0.00811   0.00000  -0.00417  -0.00413   2.22896
   A22        1.68895   0.03773   0.00000   0.02890   0.02899   1.71794
   A23        1.53360   0.08353   0.00000   0.06124   0.06051   1.59411
   A24        2.24755  -0.04137   0.00000  -0.02895  -0.02901   2.21854
   A25        1.98125  -0.01714   0.00000  -0.00980  -0.00873   1.97251
   A26        2.00921   0.02683   0.00000   0.01691   0.01731   2.02652
   A27        1.88626   0.00036   0.00000   0.00173   0.00152   1.88778
   A28        2.16983  -0.03079   0.00000  -0.02129  -0.02140   2.14843
   A29        1.95214  -0.00111   0.00000   0.00148   0.00112   1.95325
   A30        2.27452  -0.02172   0.00000  -0.01753  -0.01741   2.25711
   A31        2.00687   0.01232   0.00000   0.00716   0.00701   2.01388
   A32        2.18262   0.01500   0.00000   0.01020   0.01030   2.19292
   A33        1.78748   0.02803   0.00000   0.02084   0.02075   1.80824
   A34        2.26413  -0.04581   0.00000  -0.03307  -0.03303   2.23111
   A35        1.86909   0.07278   0.00000   0.05033   0.05110   1.92019
   A36        2.35268  -0.05046   0.00000  -0.03521  -0.03545   2.31723
   A37        2.01948  -0.02395   0.00000  -0.01613  -0.01651   2.00297
   A38        1.81184   0.03389   0.00000   0.02514   0.02534   1.83718
   A39        2.34906  -0.00072   0.00000   0.00329   0.00222   2.35128
   A40        2.02768  -0.00296   0.00000   0.00007  -0.00122   2.02647
   A41        1.52948   0.19875   0.00000   0.14506   0.14506   1.67454
   A42        2.01573   0.13167   0.00000   0.08327   0.08327   2.09900
   A43        3.17584   0.02472   0.00000   0.02497   0.02495   3.20078
   A44        2.87577  -0.01366   0.00000  -0.01302  -0.01316   2.86261
    D1       -2.50497  -0.00011   0.00000  -0.00011  -0.00011  -2.50508
    D2        1.91598  -0.00390   0.00000  -0.01070  -0.01174   1.90423
    D3       -1.65661  -0.01342   0.00000  -0.01601  -0.01606  -1.67267
    D4        2.63119   0.07262   0.00000   0.06521   0.06517   2.69635
    D5       -0.01603  -0.00347   0.00000  -0.00641  -0.00692  -0.02295
    D6        1.68451   0.01210   0.00000   0.00674   0.00692   1.69142
    D7       -0.87757  -0.00897   0.00000  -0.00990  -0.00992  -0.88749
    D8       -2.47443   0.00544   0.00000  -0.00117  -0.00119  -2.47562
    D9        0.04341   0.01540   0.00000   0.00942   0.00932   0.05273
   D10        2.86337  -0.01864   0.00000  -0.01601  -0.01594   2.84742
   D11        0.49474  -0.01738   0.00000  -0.01806  -0.01797   0.47677
   D12        0.34727  -0.02488   0.00000  -0.02301  -0.02303   0.32424
   D13       -2.02135  -0.02362   0.00000  -0.02506  -0.02505  -2.04641
   D14       -1.81344   0.01857   0.00000   0.00956   0.00993  -1.80352
   D15        0.51511   0.02642   0.00000   0.02046   0.02067   0.53578
   D16        1.06531  -0.01887   0.00000  -0.01816  -0.01826   1.04705
   D17        2.28936  -0.02714   0.00000  -0.02313  -0.02340   2.26596
   D18       -1.81046  -0.00521   0.00000  -0.00514  -0.00510  -1.81557
   D19        2.77817   0.03251   0.00000   0.02659   0.02700   2.80516
   D20        0.51414   0.00638   0.00000   0.00378   0.00404   0.51818
   D21        1.30335  -0.01181   0.00000  -0.01166  -0.01154   1.29181
   D22       -0.96068  -0.03794   0.00000  -0.03448  -0.03450  -0.99517
   D23        1.90387   0.00337   0.00000   0.00327   0.00330   1.90717
   D24       -0.17018  -0.03195   0.00000  -0.02691  -0.02641  -0.19659
   D25        0.52204   0.05689   0.00000   0.04711   0.04670   0.56874
   D26       -1.55201   0.02156   0.00000   0.01694   0.01700  -1.53502
   D27       -2.10703   0.02235   0.00000   0.02053   0.02043  -2.08660
   D28        2.10210  -0.01298   0.00000  -0.00964  -0.00928   2.09283
   D29       -1.73699   0.03405   0.00000   0.02589   0.02563  -1.71136
   D30        0.77469   0.01646   0.00000   0.01362   0.01333   0.78802
   D31        0.56435   0.02698   0.00000   0.02324   0.02346   0.58782
   D32        3.07603   0.00939   0.00000   0.01096   0.01117   3.08720
   D33        2.57106  -0.03911   0.00000  -0.03409  -0.03417   2.53689
   D34       -0.21415  -0.00596   0.00000  -0.00547  -0.00580  -0.21995
   D35        0.17460  -0.03636   0.00000  -0.03248  -0.03244   0.14216
   D36       -2.61060  -0.00320   0.00000  -0.00386  -0.00407  -2.61468
   D37       -2.99177   0.04817   0.00000   0.03994   0.03972  -2.95205
   D38       -0.15504   0.03093   0.00000   0.02749   0.02738  -0.12766
   D39       -0.14803   0.01341   0.00000   0.01075   0.01038  -0.13765
   D40        2.68870  -0.00383   0.00000  -0.00170  -0.00196   2.68674
   D41        2.42583  -0.01107   0.00000  -0.00859  -0.00846   2.41737
   D42       -0.38215  -0.00721   0.00000  -0.00648  -0.00656  -0.38871
   D43       -0.32473  -0.00672   0.00000  -0.00550  -0.00554  -0.33028
   D44       -3.13271  -0.00286   0.00000  -0.00339  -0.00364  -3.13635
   D45       -0.20220  -0.01185   0.00000  -0.01577  -0.01643  -0.21863
   D46        2.55336   0.04582   0.00000   0.03954   0.03931   2.59267
   D47        2.67855  -0.02512   0.00000  -0.02466  -0.02503   2.65353
   D48       -0.84906   0.03255   0.00000   0.03065   0.03071  -0.81836
   D49        0.60616   0.09464   0.00000   0.08737   0.08739   0.69354
   D50       -1.99627   0.00433   0.00000   0.00419   0.00417  -1.99209
   D51        0.01314   0.05161   0.00000   0.05159   0.05159   0.06473
         Item               Value     Threshold  Converged?
 Maximum Force            0.198748     0.000450     NO 
 RMS     Force            0.047813     0.000300     NO 
 Maximum Displacement     0.989370     0.001800     NO 
 RMS     Displacement     0.186799     0.001200     NO 
 Predicted change in Energy=-1.686151D-01
 GradGradGradGradGradGradGradGradGradGradGradGradGradGradGradGradGradGrad

                          Input orientation:                          
 ---------------------------------------------------------------------
 Center     Atomic      Atomic             Coordinates (Angstroms)
 Number     Number       Type             X           Y           Z
 ---------------------------------------------------------------------
      1          7           0        1.639288   -0.181606    0.989355
      2          6           0        3.918671   -0.640779    1.518882
      3          6           0        3.421281   -1.928808    1.095153
      4          7           0        4.424823   -2.513362    0.580706
      5          6           0        4.857849   -3.269164    1.607076
      6          6           0        6.201041   -3.371810    1.730784
      7         16           0        6.584176   -3.945248    3.304448
      8          6           0        6.967209   -2.086040    3.377230
      9          6           0        5.651767   -1.287016    3.065883
     10          6           0        6.195715   -1.333535    4.796787
     11          6           0        6.049428   -0.331654    5.740441
     12          6           0        4.830022    0.087183    5.155130
     13          6           0        4.905322    1.144171    4.314465
     14          6           0        3.997496    1.036436    3.259392
     15          6           0        3.974860    1.809933    2.168657
     16          6           0        3.718579    1.004663    0.996345
     17          8           0        3.090163    1.563367    0.072112
     18          1           0        1.138212   -0.735455    0.196063
     19          1           0        1.718397    0.596000    0.184523
     20          1           0        2.492855   -2.294785    1.678671
     21          1           0        4.236902   -3.238939    2.568677
     22          1           0        6.794717   -2.477304    1.314171
     23          1           0        8.028994   -2.624788    3.302463
     24          1           0        6.199847   -2.274135    5.538474
     25          1           0        6.738127    0.498164    5.936137
     26          1           0        4.193313   -0.856994    4.930736
     27          1           0        5.718932    1.835605    4.156129
     28          1           0        3.579583    0.019258    3.378584
     29          1           0        4.347670    2.778452    1.967668
 ---------------------------------------------------------------------
                    Distance matrix (angstroms):
                    1          2          3          4          5
     1  N    0.000000
     2  C    2.384706   0.000000
     3  C    2.497881   1.444286   0.000000
     4  N    3.655583   2.154747   1.270219   0.000000
     5  C    4.502636   2.792534   2.030356   1.346174   0.000000
     6  C    5.615756   3.565481   3.195833   2.283542   1.352777
     7  S    6.631483   4.605722   4.353264   3.759237   2.513635
     8  C    6.141299   3.851730   4.219739   3.803534   2.997103
     9  C    4.651224   2.411318   3.044789   3.030746   2.585988
    10  C    6.048513   4.050865   4.664110   4.722646   3.963685
    11  C    6.484186   4.738908   5.571064   5.832842   5.208985
    12  C    5.254209   3.818742   4.746808   5.277535   4.884110
    13  C    4.845722   3.460464   4.691433   5.248751   5.177812
    14  C    3.492541   2.418396   3.715996   4.467553   4.691327
    15  C    3.288142   2.536011   3.929000   4.627627   5.185775
    16  C    2.393895   1.737976   2.950153   3.612207   4.465034
    17  O    2.447714   2.763662   3.653976   4.319688   5.369747
    18  H    1.089559   3.080546   2.728527   3.756423   4.716602
    19  H    1.121911   2.855055   3.178634   4.141236   5.178736
    20  H    2.381021   2.189571   1.156031   2.232891   2.558854
    21  H    4.311512   2.820244   2.133765   2.124571   1.145061
    22  H    5.652803   3.418534   3.424746   2.481061   2.112888
    23  H    7.221354   4.900226   5.156318   4.517789   3.653179
    24  H    6.772876   4.901911   5.251930   5.271375   4.271642
    25  H    7.136589   5.362711   6.350337   6.565158   6.038955
    26  H    4.744857   3.429711   4.056662   4.660462   4.160154
    27  H    5.544465   4.040852   5.368387   5.776840   5.770425
    28  H    3.084397   2.002279   3.005674   3.867392   3.947901
    29  H    4.129694   3.475139   4.876246   5.471098   6.079800
                    6          7          8          9         10
     6  C    0.000000
     7  S    1.718151   0.000000
     8  C    2.225085   1.899649   0.000000
     9  C    2.535855   2.827100   1.570275   0.000000
    10  C    3.681707   3.032989   1.782305   1.814958   0.000000
    11  C    5.034172   4.390680   3.083011   2.867771   1.384069
    12  C    5.056726   4.771014   3.528654   2.632231   2.002990
    13  C    5.361752   5.453519   3.945130   2.833162   2.834921
    14  C    5.159931   5.613387   4.310793   2.858756   3.579457
    15  C    5.656684   6.420331   5.058992   3.634298   4.660542
    16  C    5.084834   6.167706   5.076874   3.643075   5.103600
    17  O    6.065042   7.280176   6.266854   4.863040   6.352877
    18  H    5.910836   7.044384   6.776512   5.377013   6.863141
    19  H    6.182923   7.350691   6.703487   5.226795   6.711368
    20  H    3.861780   4.701710   4.790462   3.594257   4.935364
    21  H    2.139524   2.559282   3.072054   2.461517   3.525903
    22  H    1.151589   2.482013   2.106906   2.406578   3.714246
    23  H    2.523812   1.957324   1.192991   2.738031   2.694671
    24  H    3.962751   2.816238   2.301130   2.718180   1.197850
    25  H    5.740223   5.166565   3.643981   3.550409   2.224287
    26  H    4.538168   4.230644   3.408583   2.406176   2.062680
    27  H    5.764711   5.906967   4.188577   3.308158   3.268213
    28  H    4.592019   4.974976   3.988520   2.469429   3.268868
    29  H    6.427816   7.210900   5.701941   4.408489   5.322370
                   11         12         13         14         15
    11  C    0.000000
    12  C    1.415968   0.000000
    13  C    2.349563   1.352631   0.000000
    14  C    3.498243   2.277719   1.396043   0.000000
    15  C    4.652727   3.552209   2.431767   1.337352   0.000000
    16  C    5.452069   4.401428   3.526719   2.280391   1.445149
    17  O    6.669206   5.571652   4.633367   3.355542   2.288883
    18  H    7.417765   6.236870   5.889427   4.549625   4.291468
    19  H    7.105392   5.886259   5.245322   3.852674   3.240686
    20  H    5.744656   4.818910   4.959217   3.982419   4.391485
    21  H    4.668795   4.254953   4.765105   4.337423   5.071468
    22  H    4.975051   5.018923   5.068201   4.894353   5.202128
    23  H    3.888558   4.584821   4.998653   5.446044   6.114595
    24  H    1.958736   2.756664   3.854713   4.583061   5.743330
    25  H    1.095994   2.102318   2.531070   3.868560   4.852864
    26  H    2.092073   1.160700   2.211653   2.533143   3.845686
    27  H    2.704863   2.201169   1.079404   2.099083   2.644332
    28  H    3.435352   2.173552   1.974560   1.106124   2.196971
    29  H    5.177119   4.199465   2.913641   2.196768   1.057078
                   16         17         18         19         20
    16  C    0.000000
    17  O    1.249505   0.000000
    18  H    3.213527   3.018288   0.000000
    19  H    2.196995   1.682313   1.452419   0.000000
    20  H    3.585293   4.221747   2.542576   3.344982   0.000000
    21  H    4.555112   5.532630   4.636659   5.170475   2.173760
    22  H    4.657009   5.620805   6.023309   6.040722   4.321133
    23  H    6.088577   7.236564   7.791160   7.740714   5.778792
    24  H    6.126838   7.367338   7.518579   7.548898   5.351662
    25  H    5.811691   6.987781   8.113527   7.634679   6.629398
    26  H    4.378421   5.539071   5.636092   5.546434   3.941411
    27  H    3.830941   4.864539   6.578410   5.771876   5.797025
    28  H    2.581745   3.681924   4.081461   3.741480   3.070095
    29  H    2.117912   2.578932   5.078066   3.854320   5.409399
                   21         22         23         24         25
    21  H    0.000000
    22  H    2.948948   0.000000
    23  H    3.910957   2.344887   0.000000
    24  H    3.688319   4.270818   2.910066   0.000000
    25  H    5.617994   5.497198   4.284321   2.851934   0.000000
    26  H    3.354830   4.740490   4.526458   2.530576   3.053419
    27  H    5.519730   5.275909   5.095119   4.362582   2.448660
    28  H    3.421092   4.564177   5.176295   4.097629   4.092289
    29  H    6.048345   5.834215   6.672992   6.458316   5.163598
                   26         27         28         29
    26  H    0.000000
    27  H    3.190239   0.000000
    28  H    1.885115   2.912131   0.000000
    29  H    4.692554   2.749305   3.192772   0.000000
 Stoichiometry    C13H12N2OS
 Framework group  C1[X(C13H12N2OS)]
 Deg. of freedom    81
 Full point group                 C1      NOp   1
 Largest Abelian subgroup         C1      NOp   1
 Largest concise Abelian subgroup C1      NOp   1
[...]
   A14        2.46786  -0.02725   0.02176  -0.06137  -0.02911   2.43875
   A15        2.00998   0.00527   0.01538   0.03581   0.04582   2.05580
   A16        1.92794   0.00167  -0.01422  -0.02544  -0.03538   1.89257
   A17        2.20363   0.00277   0.00427   0.01037   0.01229   2.21592
   A18        2.70714  -0.00072   0.01502  -0.01073   0.00429   2.71143
   A19        1.65413  -0.00595  -0.00371  -0.01961  -0.01657   1.63756
   A20        2.11046   0.01756   0.03435   0.03540   0.06589   2.17635
   A21        2.22786  -0.02035  -0.02644  -0.04869  -0.06946   2.15840
   A22        1.92125   0.00686  -0.01078   0.03096   0.01281   1.93407
   A23        1.87461   0.01193  -0.00259   0.00381  -0.00161   1.87300
   A24        2.17287  -0.00524   0.00369   0.00795   0.01064   2.18351
   A25        2.23425  -0.00684  -0.00114  -0.01449  -0.01211   2.22214
   A26        2.31348  -0.00133   0.00394  -0.00691  -0.00098   2.31251
   A27        1.95140   0.00045  -0.00347   0.00079  -0.00322   1.94818
   A28        1.93600   0.00104  -0.00060   0.00560   0.00361   1.93961
   A29        1.98168  -0.00146  -0.00072   0.00495   0.00292   1.98460
   A30        2.15568  -0.00085   0.00107  -0.00352  -0.00156   2.15412
   A31        2.13716   0.00187  -0.00003  -0.00216  -0.00166   2.13550
   A32        2.34236  -0.00941   0.00412  -0.01054  -0.00447   2.33789
   A33        1.93656   0.00754  -0.00283   0.01048   0.00559   1.94214
   A34        1.97893   0.00161  -0.00145  -0.00102  -0.00216   1.97677
   A35        2.11372  -0.00039   0.00039   0.00695   0.00667   2.12039
   A36        2.17408  -0.00402   0.00164  -0.00737  -0.00463   2.16945
   A37        1.98811   0.00437  -0.00232  -0.00064  -0.00325   1.98486
   A38        1.97577   0.00524  -0.00036   0.00278   0.00255   1.97832
   A39        2.14080  -0.00055  -0.00244  -0.00282  -0.00506   2.13574
   A40        2.16659  -0.00464   0.00280   0.00011   0.00253   2.16912
   A41        2.32532   0.00838  -0.00811   0.05049   0.03228   2.35760
   A42        2.09567  -0.00831  -0.02082  -0.03041  -0.04514   2.05053
   A43        4.39580  -0.02558   0.00753  -0.08681  -0.06449   4.33131
   A44        3.03357   0.01555   0.01551  -0.01164   0.01056   3.04413
    D1       -1.34929  -0.00306   0.00470  -0.02911  -0.01859  -1.36788
    D2        1.89693  -0.00019   0.40868  -0.00364   0.40616   2.30309
    D3       -1.28872  -0.00257   0.40826  -0.01519   0.39623  -0.89249
    D4       -2.92354   0.00238  -0.40999  -0.03605  -0.43847   2.92117
    D5        0.22469  -0.00449  -0.40916  -0.04767  -0.44716  -0.22246
    D6        2.22323   0.00119   0.00736   0.02996   0.03116   2.25440
    D7       -0.87156   0.00335   0.00806   0.04185   0.04166  -0.82990
    D8        3.04342   0.00880   0.00501   0.02095   0.02292   3.06634
    D9       -0.11037   0.00506  -0.00256   0.01059   0.00636  -0.10401
   D10       -3.02783  -0.00578   0.00281   0.00519   0.00578  -3.02205
   D11       -0.09457   0.00128   0.00239   0.04531   0.03857  -0.05601
   D12        0.12622  -0.00204   0.01041   0.01569   0.02263   0.14885
   D13        3.05948   0.00503   0.00999   0.05581   0.05541   3.11489
   D14       -1.72538   0.00852   0.00565   0.06918   0.06266  -1.66272
   D15        1.61664   0.00128   0.00565   0.02987   0.03027   1.64690
   D16        0.14200   0.01333  -0.00068  -0.01559  -0.00946   0.13253
   D17        0.76000  -0.01880  -0.02598  -0.04015  -0.06124   0.69875
   D18       -2.89157  -0.00222  -0.01620  -0.00395  -0.02002  -2.91159
   D19       -2.26837   0.01887   0.01932   0.04449   0.05827  -2.21010
   D20        0.92745   0.01100   0.00965   0.01826   0.02751   0.95495
   D21        1.47631  -0.00057   0.01442   0.01170   0.02134   1.49765
   D22       -1.61106  -0.00844   0.00476  -0.01453  -0.00942  -1.62049
   D23        2.39163   0.00166   0.00015  -0.01101  -0.00826   2.38337
   D24       -0.69586   0.00454   0.00101   0.03983   0.03375  -0.66212
   D25        2.54893  -0.00547   0.03254  -0.05618  -0.01437   2.53456
   D26       -0.53856  -0.00258   0.03339  -0.00535   0.02764  -0.51092
   D27       -0.80750   0.00983   0.01098   0.01608   0.02424  -0.78326
   D28        2.38819   0.01271   0.01183   0.06691   0.06624   2.45444
   D29       -2.39618  -0.00136   0.00020   0.02926   0.02361  -2.37257
   D30        0.27084  -0.00055  -0.00073   0.02977   0.02286   0.29369
   D31        0.68882  -0.00428  -0.00052  -0.02297  -0.01867   0.67015
   D32       -2.92735  -0.00347  -0.00145  -0.02246  -0.01942  -2.94678
   D33        2.51543  -0.00350   0.00428   0.00703   0.00940   2.52483
   D34       -0.48788  -0.00022   0.00192   0.01286   0.01186  -0.47602
   D35       -0.15466  -0.00418   0.00581   0.00745   0.01151  -0.14315
   D36        3.12521  -0.00091   0.00344   0.01328   0.01398   3.13918
   D37       -2.67158  -0.00095  -0.00262  -0.01827  -0.01726  -2.68883
   D38        0.20638  -0.00137  -0.00390  -0.02311  -0.02248   0.18390
   D39        0.33340  -0.00442  -0.00017  -0.02416  -0.01969   0.31372
   D40       -3.07183  -0.00484  -0.00145  -0.02900  -0.02491  -3.09674
   D41        2.63609  -0.00131  -0.00430  -0.01670  -0.01792   2.61817
   D42       -0.36814  -0.00129  -0.00117  -0.00676  -0.00676  -0.37490
   D43       -0.23716  -0.00149  -0.00286  -0.01299  -0.01347  -0.25063
   D44        3.04179  -0.00147   0.00027  -0.00305  -0.00230   3.03949
   D45       -0.30384  -0.00520   0.00201  -0.00920  -0.00558  -0.30942
   D46        2.83099   0.00180   0.00117   0.00260   0.00327   2.83426
   D47        2.71410  -0.00581  -0.00059  -0.01874  -0.01585   2.69824
   D48       -0.43426   0.00120  -0.00143  -0.00694  -0.00701  -0.44126
   D49        1.26664   0.00310  -0.00236   0.00839   0.00448   1.27112
   D50       -1.86757  -0.00456  -0.00144  -0.00451  -0.00517  -1.87274
   D51        0.30035  -0.00088  -0.00570  -0.01238  -0.01560   0.28475
         Item               Value     Threshold  Converged?
 Maximum Force            0.071727     0.000450     NO 
 RMS     Force            0.013093     0.000300     NO 
 Maximum Displacement     0.209141     0.001800     NO 
 RMS     Displacement     0.042896     0.001200     NO 
 Predicted change in Energy=-1.956630D-02
 GradGradGradGradGradGradGradGradGradGradGradGradGradGradGradGradGradGrad

                          Input orientation:                          
 ---------------------------------------------------------------------
 Center     Atomic      Atomic             Coordinates (Angstroms)
 Number     Number       Type             X           Y           Z
 ---------------------------------------------------------------------
      1          7           0       -0.220082    1.011112    0.065827
      2          6           0        3.174272   -0.501669    0.941072
      3          6           0        3.434031   -1.780893    1.043214
      4          7           0        4.772546   -2.034253    1.053105
      5          6           0        5.304822   -2.812055    2.025705
      6          6           0        6.628615   -3.150892    2.006045
      7         16           0        7.345383   -4.317986    3.161994
      8          6           0        7.962099   -3.386807    4.369746
      9          6           0        7.975307   -2.110738    4.768673
     10          6           0        6.716625   -1.545124    5.065009
     11          6           0        6.492804   -0.149488    5.371652
     12          6           0        5.243104    0.200328    4.837434
     13          6           0        4.792654    1.339371    4.096834
     14          6           0        3.817779    1.032050    3.116427
     15          6           0        3.437309    1.618611    1.930967
     16          6           0        2.902824    0.833412    0.834105
     17          8           0        2.270676    1.300776   -0.104932
     18          1           0       -0.066954   -0.010559    0.015130
     19          1           0        0.475879    1.282366   -0.633914
     20          1           0        2.624182   -2.524730    1.161459
     21          1           0        4.656092   -3.143859    2.848100
     22          1           0        7.267148   -2.844108    1.179828
     23          1           0        8.611821   -4.005379    4.982965
     24          1           0        5.817610   -2.136661    5.266189
     25          1           0        7.209824    0.504866    5.837892
     26          1           0        4.645344   -0.679086    4.606617
     27          1           0        5.245212    2.318340    4.176023
     28          1           0        3.454194    0.016266    3.227791
     29          1           0        3.624121    2.658597    1.674183
 ---------------------------------------------------------------------
                    Distance matrix (angstroms):
                    1          2          3          4          5
     1  N    0.000000
     2  C    3.817879   0.000000
     3  C    4.701396   1.309321   0.000000
     4  N    5.930877   2.217171   1.362318   0.000000
     5  C    6.998735   3.324688   2.351263   1.354342   0.000000
     6  C    8.245688   4.481633   3.606841   2.366425   1.366611
     7  S    9.758166   6.074120   5.121009   4.035137   2.779005
     8  C   10.237846   6.557675   5.843643   4.796118   3.589706
     9  C    9.951237   6.347406   5.883113   4.906014   3.891942
    10  C    8.924352   5.535694   5.196714   4.484870   3.582690
    11  C    8.634907   5.546776   5.545534   5.016121   4.438009
    12  C    7.298767   4.467046   4.646943   4.419946   4.121174
    13  C    6.440831   3.995925   4.572362   4.543790   4.667572
    14  C    5.060724   2.738351   3.515412   3.817210   4.263580
    15  C    4.150218   2.354711   3.513508   3.987093   4.809093
    16  C    3.220927   1.366590   2.675911   3.430354   4.525366
    17  O    2.513353   2.271435   3.488312   4.326988   5.537241
    18  H    1.034326   3.406480   4.055606   5.347288   6.383319
    19  H    1.023513   3.597873   4.576787   5.683955   6.867062
    20  H    4.668236   2.108067   1.105953   2.206304   2.831132
    21  H    6.984404   3.579625   2.570743   2.113479   1.098762
    22  H    8.494842   4.721828   3.980185   2.625826   2.137115
    23  H   11.284766   7.627570   6.876007   5.836880   4.594089
    24  H    8.567728   5.326074   4.862256   4.341972   3.349603
    25  H    9.422130   6.424767   6.516919   5.939835   5.400349
    26  H    6.866434   3.953700   3.921619   3.805273   3.412561
    27  H    6.962184   4.765097   5.467959   5.377834   5.563126
    28  H    4.948539   2.361291   2.828880   3.266793   3.587371
    29  H    4.480950   3.275224   4.488132   4.871084   5.733791
                    6          7          8          9         10
     6  C    0.000000
     7  S    1.792229   0.000000
     8  C    2.724136   1.645022   0.000000
     9  C    3.244629   2.801815   1.337037   0.000000
    10  C    3.455936   3.421339   2.329461   1.411388   0.000000
    11  C    4.511561   4.794356   3.693626   2.531383   1.446349
    12  C    4.600769   5.257550   4.525395   3.579202   2.295573
    13  C    5.282481   6.276626   5.697071   4.741719   3.599908
    14  C    5.160499   6.408506   6.186476   5.467364   4.340749
    15  C    5.739183   7.213296   7.174647   6.523346   5.530402
    16  C    5.579394   7.189736   7.477116   7.062502   6.172768
    17  O    6.577629   8.245965   8.624875   8.242164   7.388768
    18  H    7.658725   9.132328   9.737937   9.575222   8.594946
    19  H    8.029901   9.641729  10.143040   9.845939   8.911752
    20  H    4.140156   5.432094   6.287260   6.466678   5.739810
    21  H    2.144750   2.951167   3.647480   3.971540   3.422927
    22  H    1.088335   2.471319   3.309539   3.730835   4.133408
    23  H    3.677677   2.239983   1.086650   2.010158   3.106663
    24  H    3.509264   3.394098   2.639186   2.214464   1.094813
    25  H    5.327797   5.517128   4.226877   2.927555   2.245674
    26  H    4.099532   4.755916   4.288207   3.628298   2.291364
    27  H    6.044427   7.034187   6.322001   5.236543   4.228677
    28  H    4.647634   5.825068   5.762479   5.228664   4.056693
    29  H    6.548838   8.045749   7.913976   7.159277   6.223548
                   11         12         13         14         15
    11  C    0.000000
    12  C    1.403393   0.000000
    13  C    2.594682   1.431368   0.000000
    14  C    3.692943   2.384361   1.416342   0.000000
    15  C    4.929558   3.704048   2.570198   1.376273   0.000000
    16  C    5.868849   4.680209   3.804321   2.466900   1.450971
    17  O    7.065593   5.871396   4.900683   3.583699   2.367897
    18  H    8.470068   7.176057   6.488329   5.078999   4.313291
    19  H    8.620929   7.337090   6.404512   5.029515   3.932142
    20  H    6.191425   5.272332   5.315071   4.230516   4.291921
    21  H    4.325284   3.935176   4.655893   4.267667   5.000768
    22  H    5.043012   5.171405   5.668645   5.538336   5.928552
    23  H    4.416922   5.390492   6.628546   7.200173   8.229187
    24  H    2.101396   2.444464   3.807982   4.319899   5.558022
    25  H    1.076883   2.227476   3.093605   4.380669   5.544038
    26  H    2.068542   1.088100   2.087043   2.415267   3.727983
    27  H    3.012672   2.218884   1.081415   2.194276   2.966212
    28  H    3.722468   2.413509   2.072998   1.084627   2.061443
    29  H    5.457652   4.320920   2.995841   2.182482   1.087386
                   16         17         18         19         20
    16  C    0.000000
    17  O    1.224675   0.000000
    18  H    3.194149   2.683008   0.000000
    19  H    2.871707   1.871218   1.545180   0.000000
    20  H    3.385546   4.045147   3.857115   4.725732   0.000000
    21  H    4.790492   5.845117   6.336438   7.013563   2.712331
    22  H    5.717605   6.617810   7.948243   8.150999   4.653974
    23  H    8.556844   9.708352  10.768431  11.211741   7.255898
    24  H    6.079530   7.296962   8.168355   8.662277   5.215111
    25  H    6.610301   7.768257   9.333901   9.372022   7.216342
    26  H    4.422202   5.635387   6.613201   6.978173   4.400069
    27  H    4.342834   5.311297   7.138341   6.852392   6.277955
    28  H    2.588720   3.762675   4.766591   5.038466   3.378655
    29  H    2.134783   2.615481   4.847771   4.139173   5.303739
                   21         22         23         24         25
    21  H    0.000000
    22  H    3.112972   0.000000
    23  H    4.576861   4.197683   0.000000
    24  H    2.865436   4.393175   3.373416   0.000000
    25  H    5.364102   5.737288   4.799875   3.040192   0.000000
    26  H    3.027805   4.827428   5.190261   1.983373   3.081289
    27  H    5.652084   6.302085   7.209343   4.622027   3.148047
    28  H    3.402222   5.187920   6.771660   3.791556   4.599578
    29  H    6.009288   6.617839   8.957330   6.380314   5.901890
                   26         27         28         29
    26  H    0.000000
    27  H    3.087040   0.000000
    28  H    1.950259   3.066991   0.000000
    29  H    4.558749   3.000486   3.069933   0.000000
 Stoichiometry    C13H12N2OS
 Framework group  C1[X(C13H12N2OS)]
 Deg. of freedom    81
 Full point group                 C1      NOp   1
 Largest Abelian subgroup         C1      NOp   1
 Largest concise Abelian subgroup C1      NOp   1
                         Standard orientation:                         
 ---------------------------------------------------------------------
 Center     Atomic      Atomic             Coordinates (Angstroms)
 Number     Number       Type             X           Y           Z
 ---------------------------------------------------------------------
      1          7           0       -5.937202   -0.855809    1.069098
      2          6           0       -2.288973   -0.940236   -0.053178
      3          6           0       -1.373271   -1.761427    0.395661
      4          7           0       -0.264084   -1.776130   -0.395160
      5          6           0        0.960940   -1.608941    0.157656
      6          6           0        2.092211   -1.707204   -0.602734
      7         16           0        3.738689   -1.673300    0.104404
      8          6           0        4.214996   -0.103456   -0.017333
      9          6           0        3.717242    1.090314   -0.356189
     10          6           0        2.632723    1.548732    0.422069
     11          6           0        1.859182    2.737168    0.137149
     12          6           0        0.534160    2.474246    0.517544
     13          6           0       -0.723280    2.735669   -0.114372
     14          6           0       -1.692965    1.727593    0.108154
     15          6           0       -2.798751    1.295542   -0.588047
     16          6           0       -3.245070   -0.083480   -0.521596
     17          8           0       -4.362057   -0.463581   -0.849761
     18          1           0       -5.302908   -1.608486    1.386871
     19          1           0       -5.883056   -1.054026    0.066423
     20          1           0       -1.511204   -2.314480    1.343416
     21          1           0        1.026830   -1.364974    1.226963
     22          1           0        2.030628   -1.973044   -1.656305
     23          1           0        5.283348   -0.052614    0.174624
     24          1           0        2.385055    1.151337    1.411693
     25          1           0        2.232555    3.613447   -0.365251
     26          1           0        0.470013    1.610763    1.176515
     27          1           0       -0.883597    3.549948   -0.807702
     28          1           0       -1.365436    1.027540    0.869118
     29          1           0       -3.330676    1.892504   -1.325002
 ---------------------------------------------------------------------
 Rotational constants (GHZ):           0.6931451           0.2147860           0.1713304
 Standard basis: 6-31G(2df,p) (6D, 7F)
 There are   591 symmetry adapted cartesian basis functions of A   symmetry.
 There are   540 symmetry adapted basis functions of A   symmetry.
   540 basis functions,   856 primitive gaussians,   591 cartesian basis functions
    64 alpha electrons       64 beta electrons
       nuclear repulsion energy      1148.5727882155 Hartrees.
 NAtoms=   29 NActive=   29 NUniq=   29 SFac= 1.00D+00 NAtFMM=   60 NAOKFM=F Big=F
 Integral buffers will be    131072 words long.
 Raffenetti 2 integral format.
 Two-electron integral symmetry is turned on.
 One-electron integrals computed using PRISM.
 PrsmSu:  requested number of processors reduced to:  12 ShMem   1 Linda.
 NBasis=   540 RedAO= T EigKep=  2.53D-04  NBF=   540
 NBsUse=   540 1.00D-06 EigRej= -1.00D+00 NBFU=   540
 Initial guess from the checkpoint file:  "NC12CdNCdCSCdC1CdCCdCCdCC2dO.chk"
 B after Tr=     0.000000   -0.000000   -0.000000
         Rot=    0.999997    0.001662   -0.000050   -0.001906 Ang=   0.29 deg.
 ExpMin= 1.17D-01 ExpMax= 2.19D+04 ExpMxC= 3.30D+03 IAcc=2 IRadAn=         4 AccDes= 0.00D+00
 Harris functional with IExCor=  402 and IRadAn=       4 diagonalized for initial guess.
 HarFok:  IExCor=  402 AccDes= 0.00D+00 IRadAn=         4 IDoV= 1 UseB2=F ITyADJ=14
 ICtDFT=  3500011 ScaDFX=  1.000000  1.000000  1.000000  1.000000
 FoFCou: FMM=F IPFlag=           0 FMFlag=      100000 FMFlg1=           0
         NFxFlg=           0 DoJE=T BraDBF=F KetDBF=T FulRan=T
         wScrn=  0.000000 ICntrl=       500 IOpCl=  0 I1Cent=   200000004 NGrid=           0
         NMat0=    1 NMatS0=      1 NMatT0=    0 NMatD0=    1 NMtDS0=    0 NMtDT0=    0
 Petite list used in FoFCou.
 Requested convergence on RMS density matrix=1.00D-08 within 128 cycles.
 Requested convergence on MAX density matrix=1.00D-06.
 Requested convergence on             energy=1.00D-06.
 No special actions if energy rises.
 Integral accuracy reduced to 1.0D-05 until final iterations.
slurmstepd: error: *** JOB 27446924 ON lewis4-r630-hpc4-node301 CANCELLED AT 2023-05-16T21:56:56 DUE TO TIME LIMIT ***
