### Starting Gaussian ###
 Entering Gaussian System, Link 0=g16
 Initial command:
 /cluster/software/gaussian/gaussian-16-A.03/avx2/g16/l1.exe "/local/scratch/cz9n3/Gau-17917.inp" -scrdir="/local/scratch/cz9n3/"
 Entering Link 1 = /cluster/software/gaussian/gaussian-16-A.03/avx2/g16/l1.exe PID=     17918.
  
 Copyright (c) 1988,1990,1992,1993,1995,1998,2003,2009,2016,
            Gaussian, Inc.  All Rights Reserved.
  
 This is part of the Gaussian(R) 16 program.  It is based on
 the Gaussian(R) 09 system (copyright 2009, Gaussian, Inc.),
 the Gaussian(R) 03 system (copyright 2003, Gaussian, Inc.),
 the Gaussian(R) 98 system (copyright 1998, Gaussian, Inc.),
 the Gaussian(R) 94 system (copyright 1995, Gaussian, Inc.),
 the Gaussian 92(TM) system (copyright 1992, Gaussian, Inc.),
 the Gaussian 90(TM) system (copyright 1990, Gaussian, Inc.),
 the Gaussian 88(TM) system (copyright 1988, Gaussian, Inc.),
 the Gaussian 86(TM) system (copyright 1986, Carnegie Mellon
 University), and the Gaussian 82(TM) system (copyright 1983,
 Carnegie Mellon University). Gaussian is a federally registered
 trademark of Gaussian, Inc.
  
 This software contains proprietary and confidential information,
 including trade secrets, belonging to Gaussian, Inc.
  
 This software is provided under written license and may be
 used, copied, transmitted, or stored only in accord with that
 written license.
  
 The following legend is applicable only to US Government
 contracts under FAR:
  
                    RESTRICTED RIGHTS LEGEND
  
 Use, reproduction and disclosure by the US Government is
 subject to restrictions as set forth in subparagraphs (a)
 and (c) of the Commercial Computer Software - Restricted
 Rights clause in FAR 52.227-19.
  
 Gaussian, Inc.
 340 Quinnipiac St., Bldg. 40, Wallingford CT 06492
  
  
 ---------------------------------------------------------------
 Warning -- This program may not be used in any manner that
 competes with the business of Gaussian, Inc. or will provide
 assistance to any competitor of Gaussian, Inc.  The licensee
 of this program is prohibited from giving any competitor of
 Gaussian, Inc. access to this program.  By using this program,
 the user acknowledges that Gaussian, Inc. is engaged in the
 business of creating and licensing software in the field of
 computational chemistry and represents and warrants to the
 licensee that it is not a competitor of Gaussian, Inc. and that
 it will not use this program in any manner prohibited above.
 ---------------------------------------------------------------
  

 Cite this work as:
 Gaussian 16, Revision A.03,
 M. J. Frisch, G. W. Trucks, H. B. Schlegel, G. E. Scuseria, 
 M. A. Robb, J. R. Cheeseman, G. Scalmani, V. Barone, 
 G. A. Petersson, H. Nakatsuji, X. Li, M. Caricato, A. V. Marenich, 
 J. Bloino, B. G. Janesko, R. Gomperts, B. Mennucci, H. P. Hratchian, 
 J. V. Ortiz, A. F. Izmaylov, J. L. Sonnenberg, D. Williams-Young, 
 F. Ding, F. Lipparini, F. Egidi, J. Goings, B. Peng, A. Petrone, 
 T. Henderson, D. Ranasinghe, V. G. Zakrzewski, J. Gao, N. Rega, 
 G. Zheng, W. Liang, M. Hada, M. Ehara, K. Toyota, R. Fukuda, 
 J. Hasegawa, M. Ishida, T. Nakajima, Y. Honda, O. Kitao, H. Nakai, 
 T. Vreven, K. Throssell, J. A. Montgomery, Jr., J. E. Peralta, 
 F. Ogliaro, M. J. Bearpark, J. J. Heyd, E. N. Brothers, K. N. Kudin, 
 V. N. Staroverov, T. A. Keith, R. Kobayashi, J. Normand, 
 K. Raghavachari, A. P. Rendell, J. C. Burant, S. S. Iyengar, 
 J. Tomasi, M. Cossi, J. M. Millam, M. Klene, C. Adamo, R. Cammi, 
 J. W. Ochterski, R. L. Martin, K. Morokuma, O. Farkas, 
 J. B. Foresman, and D. J. Fox, Gaussian, Inc., Wallingford CT, 2016.
 
 ******************************************
 Gaussian 16:  ES64L-G16RevA.03 25-Dec-2016
                16-May-2023 
 ******************************************
 %chk=Nc1ccccc2cc-2c2c1CdCCdCNNdCdC2.chk
 %NProcShared=20
 Will use up to   20 processors via shared memory.
 -----------------------------
 # opt freq b3lyp/6-31g(2df,p)
 -----------------------------
 1/18=20,19=15,26=3,38=1/1,3;
 2/9=110,12=2,17=6,18=5,40=1/2;
 3/5=1,6=6,7=104,11=2,25=1,30=1,71=1,74=-5/1,2,3;
 4//1;
 5/5=2,38=5/2;
 6/7=2,8=2,9=2,10=2,28=1/1;
 7//1,2,3,16;
 1/18=20,19=15,26=3/3(2);
 2/9=110/2;
 99//99;
 2/9=110/2;
 3/5=1,6=6,7=104,11=2,25=1,30=1,71=1,74=-5/1,2,3;
 4/5=5,16=3,69=1/1;
 5/5=2,38=5/2;
 7//1,2,3,16;
 1/18=20,19=15,26=3/3(-5);
 2/9=110/2;
 6/7=2,8=2,9=2,10=2,19=2,28=1/1;
 99/9=1/99;
 -------------------
 Title Card Required
 -------------------
 Symbolic Z-matrix:
 Charge =  0 Multiplicity = 1
 N                     0.7879    0.18418  -0.5227 
 C                     1.70386   0.08527  -1.64397 
 C                     2.9962   -0.0496   -1.04643 
 C                     4.28556  -0.22531  -0.77052 
 C                     5.14547  -0.61454  -1.77219 
 C                     6.41469  -0.47204  -2.0849 
 C                     6.15488  -0.29858  -3.46578 
 C                     6.73953  -0.36343  -4.57254 
 C                     5.0192    0.04996  -4.12983 
 C                     3.32079  -0.03885  -4.15983 
 C                     1.69895   0.19961  -3.16869 
 C                    -0.29457   0.41633  -3.21715 
 C                    -1.50812   0.33385  -3.98772 
 C                    -0.86065   0.92666  -5.1231 
 C                    -0.32289  -0.0793   -5.79956 
 N                     0.99657  -0.20714  -5.84497 
 N                     1.56118  -1.18739  -6.53326 
 C                     2.68671  -1.10241  -6.32056 
 C                     3.69719  -0.68911  -5.67021 
 H                     0.79515  -0.42196   0.33056 
 H                    -0.16168   0.44992  -0.69823 
 H                     3.00056  -0.67473  -1.95806 
 H                     4.87054  -0.00049   0.07964 
 H                     4.51747  -1.00905  -2.55628 
 H                     7.28169  -0.21889  -1.50675 
 H                     7.88676  -0.46896  -4.04542 
 H                    -0.92818   1.29839  -2.64342 
 H                    -2.4226    0.11512  -4.72661 
 H                    -0.2729    1.79309  -4.77336 
 H                    -0.86375  -0.98322  -6.04643 
 H                     1.51483   0.46255  -5.25538 
 H                     4.65584  -0.81764  -6.2579 
 

 GradGradGradGradGradGradGradGradGradGradGradGradGradGradGradGradGradGrad
 Berny optimization.
 Initialization pass.
                           ----------------------------
                           !    Initial Parameters    !
                           ! (Angstroms and Degrees)  !
 --------------------------                            --------------------------
 ! Name  Definition              Value          Derivative Info.                !
 --------------------------------------------------------------------------------
 ! R1    R(1,2)                  1.4512         estimate D2E/DX2                !
 ! R2    R(1,20)                 1.0467         estimate D2E/DX2                !
 ! R3    R(1,21)                 1.0016         estimate D2E/DX2                !
 ! R4    R(2,3)                  1.4302         estimate D2E/DX2                !
 ! R5    R(2,11)                 1.529          estimate D2E/DX2                !
 ! R6    R(3,4)                  1.3302         estimate D2E/DX2                !
 ! R7    R(3,22)                 1.1054         estimate D2E/DX2                !
 ! R8    R(4,5)                  1.3763         estimate D2E/DX2                !
 ! R9    R(4,23)                 1.0562         estimate D2E/DX2                !
 ! R10   R(5,6)                  1.3149         estimate D2E/DX2                !
 ! R11   R(5,24)                 1.0793         estimate D2E/DX2                !
 ! R12   R(6,7)                  1.4158         estimate D2E/DX2                !
 ! R13   R(6,25)                 1.0724         estimate D2E/DX2                !
 ! R14   R(7,8)                  1.2534         estimate D2E/DX2                !
 ! R15   R(7,9)                  1.361          estimate D2E/DX2                !
 ! R16   R(8,9)                  1.8238         estimate D2E/DX2                !
 ! R17   R(8,26)                 1.2669         estimate D2E/DX2                !
 ! R18   R(9,10)                 1.701          estimate D2E/DX2                !
 ! R19   R(10,19)                1.6869         estimate D2E/DX2                !
 ! R20   R(12,13)                1.4399         estimate D2E/DX2                !
 ! R21   R(12,27)                1.2283         estimate D2E/DX2                !
 ! R22   R(13,14)                1.4352         estimate D2E/DX2                !
 ! R23   R(13,28)                1.1959         estimate D2E/DX2                !
 ! R24   R(14,15)                1.3262         estimate D2E/DX2                !
 ! R25   R(14,29)                1.1038         estimate D2E/DX2                !
 ! R26   R(15,16)                1.3264         estimate D2E/DX2                !
 ! R27   R(15,30)                1.0819         estimate D2E/DX2                !
 ! R28   R(16,17)                1.3242         estimate D2E/DX2                !
 ! R29   R(16,31)                1.0318         estimate D2E/DX2                !
 ! R30   R(17,18)                1.1486         estimate D2E/DX2                !
 ! R31   R(18,19)                1.2708         estimate D2E/DX2                !
 ! R32   R(19,32)                1.1318         estimate D2E/DX2                !
 ! A1    A(2,1,20)             125.8758         estimate D2E/DX2                !
 ! A2    A(2,1,21)             118.7562         estimate D2E/DX2                !
 ! A3    A(20,1,21)            107.6434         estimate D2E/DX2                !
 ! A4    A(1,2,3)              104.7114         estimate D2E/DX2                !
 ! A5    A(1,2,11)             139.7607         estimate D2E/DX2                !
 ! A6    A(3,2,11)             115.2515         estimate D2E/DX2                !
 ! A7    A(2,3,22)              73.2809         estimate D2E/DX2                !
 ! A8    A(4,3,22)              95.3095         estimate D2E/DX2                !
 ! A9    A(3,4,5)              119.4721         estimate D2E/DX2                !
 ! A10   A(3,4,23)             132.5084         estimate D2E/DX2                !
 ! A11   A(5,4,23)             107.4559         estimate D2E/DX2                !
 ! A12   A(4,5,6)              138.2022         estimate D2E/DX2                !
 ! A13   A(4,5,24)             105.5788         estimate D2E/DX2                !
 ! A14   A(6,5,24)             115.3719         estimate D2E/DX2                !
 ! A15   A(5,6,7)               93.9049         estimate D2E/DX2                !
 ! A16   A(5,6,25)             132.6675         estimate D2E/DX2                !
 ! A17   A(7,6,25)             130.1862         estimate D2E/DX2                !
 ! A18   A(6,7,8)              140.2931         estimate D2E/DX2                !
 ! A19   A(6,7,9)              131.3314         estimate D2E/DX2                !
 ! A20   A(7,8,26)              93.4            estimate D2E/DX2                !
 ! A21   A(9,8,26)             140.5345         estimate D2E/DX2                !
 ! A22   A(7,9,10)             145.9384         estimate D2E/DX2                !
 ! A23   A(8,9,10)             157.7732         estimate D2E/DX2                !
 ! A24   A(9,10,19)             79.2298         estimate D2E/DX2                !
 ! A25   A(13,12,27)            81.7406         estimate D2E/DX2                !
 ! A26   A(12,13,14)            91.1163         estimate D2E/DX2                !
 ! A27   A(14,13,28)            86.0858         estimate D2E/DX2                !
 ! A28   A(13,14,15)           105.8516         estimate D2E/DX2                !
 ! A29   A(13,14,29)           108.2871         estimate D2E/DX2                !
 ! A30   A(15,14,29)           122.7586         estimate D2E/DX2                !
 ! A31   A(14,15,16)           119.6            estimate D2E/DX2                !
 ! A32   A(14,15,30)           123.1906         estimate D2E/DX2                !
 ! A33   A(16,15,30)           114.139          estimate D2E/DX2                !
 ! A34   A(15,16,17)           120.8836         estimate D2E/DX2                !
 ! A35   A(15,16,31)           114.678          estimate D2E/DX2                !
 ! A36   A(17,16,31)           124.2846         estimate D2E/DX2                !
 ! A37   A(16,17,18)           105.4739         estimate D2E/DX2                !
 ! A38   A(17,18,19)           153.9015         estimate D2E/DX2                !
 ! A39   A(10,19,18)           113.9638         estimate D2E/DX2                !
 ! A40   A(10,19,32)           134.2419         estimate D2E/DX2                !
 ! A41   A(18,19,32)           111.7684         estimate D2E/DX2                !
 ! A42   L(2,3,4,22,-1)        168.5904         estimate D2E/DX2                !
 ! A43   L(12,13,28,14,-1)     177.202          estimate D2E/DX2                !
 ! A44   L(2,3,4,22,-2)        173.9905         estimate D2E/DX2                !
 ! A45   L(12,13,28,14,-2)     170.6793         estimate D2E/DX2                !
 ! D1    D(20,1,2,3)           -45.3995         estimate D2E/DX2                !
 ! D2    D(20,1,2,11)          141.3716         estimate D2E/DX2                !
 ! D3    D(21,1,2,3)           169.1581         estimate D2E/DX2                !
 ! D4    D(21,1,2,11)           -4.0708         estimate D2E/DX2                !
 ! D5    D(1,2,3,22)           144.1991         estimate D2E/DX2                !
 ! D6    D(11,2,3,22)          -40.6315         estimate D2E/DX2                !
 ! D7    D(1,2,4,5)            166.5999         estimate D2E/DX2                !
 ! D8    D(1,2,4,23)           -25.4378         estimate D2E/DX2                !
 ! D9    D(11,2,4,5)           -17.413          estimate D2E/DX2                !
 ! D10   D(11,2,4,23)          150.5493         estimate D2E/DX2                !
 ! D11   D(22,3,4,5)            21.2098         estimate D2E/DX2                !
 ! D12   D(22,3,4,23)         -168.5923         estimate D2E/DX2                !
 ! D13   D(3,4,5,6)            150.5297         estimate D2E/DX2                !
 ! D14   D(3,4,5,24)           -17.7822         estimate D2E/DX2                !
 ! D15   D(23,4,5,6)           -21.9105         estimate D2E/DX2                !
 ! D16   D(23,4,5,24)          169.7776         estimate D2E/DX2                !
 ! D17   D(4,5,6,7)           -140.0518         estimate D2E/DX2                !
 ! D18   D(4,5,6,25)            20.428          estimate D2E/DX2                !
 ! D19   D(24,5,6,7)            27.4756         estimate D2E/DX2                !
 ! D20   D(24,5,6,25)         -172.0446         estimate D2E/DX2                !
 ! D21   D(5,6,7,8)           -160.8895         estimate D2E/DX2                !
 ! D22   D(5,6,7,9)             19.3938         estimate D2E/DX2                !
 ! D23   D(25,6,7,8)            37.8707         estimate D2E/DX2                !
 ! D24   D(25,6,7,9)          -141.8461         estimate D2E/DX2                !
 ! D25   D(6,7,8,26)           -10.1236         estimate D2E/DX2                !
 ! D26   D(6,7,9,10)           -32.9112         estimate D2E/DX2                !
 ! D27   D(7,8,9,26)            16.3672         estimate D2E/DX2                !
 ! D28   D(26,8,9,10)         -143.1843         estimate D2E/DX2                !
 ! D29   D(7,9,10,19)         -123.8849         estimate D2E/DX2                !
 ! D30   D(8,9,10,19)          -22.9579         estimate D2E/DX2                !
 ! D31   D(9,10,19,18)         176.3382         estimate D2E/DX2                !
 ! D32   D(9,10,19,32)          -5.7161         estimate D2E/DX2                !
 ! D33   D(27,12,13,14)        108.1626         estimate D2E/DX2                !
 ! D34   D(12,13,14,15)         88.1738         estimate D2E/DX2                !
 ! D35   D(12,13,14,29)        -45.1598         estimate D2E/DX2                !
 ! D36   D(28,13,14,15)        -82.5055         estimate D2E/DX2                !
 ! D37   D(28,13,14,29)        144.1609         estimate D2E/DX2                !
 ! D38   D(13,14,15,16)       -111.1014         estimate D2E/DX2                !
 ! D39   D(13,14,15,30)         47.9066         estimate D2E/DX2                !
 ! D40   D(29,14,15,16)         13.6886         estimate D2E/DX2                !
 ! D41   D(29,14,15,30)        172.6966         estimate D2E/DX2                !
 ! D42   D(14,15,16,17)       -178.7372         estimate D2E/DX2                !
 ! D43   D(14,15,16,31)          5.5829         estimate D2E/DX2                !
 ! D44   D(30,15,16,17)         20.4417         estimate D2E/DX2                !
 ! D45   D(30,15,16,31)       -155.2381         estimate D2E/DX2                !
 ! D46   D(15,16,17,18)       -175.3311         estimate D2E/DX2                !
 ! D47   D(31,16,17,18)         -0.0831         estimate D2E/DX2                !
 ! D48   D(16,17,18,19)         16.1074         estimate D2E/DX2                !
 ! D49   D(17,18,19,10)         14.568          estimate D2E/DX2                !
 ! D50   D(17,18,19,32)       -163.8474         estimate D2E/DX2                !
 --------------------------------------------------------------------------------
 Trust Radius=3.00D-01 FncErr=1.00D-07 GrdErr=1.00D-06 EigMax=2.50D+02 EigMin=1.00D-04
 Number of steps in this run=    137 maximum allowed number of steps=    192.
 GradGradGradGradGradGradGradGradGradGradGradGradGradGradGradGradGradGrad

                          Input orientation:                          
 ---------------------------------------------------------------------
 Center     Atomic      Atomic             Coordinates (Angstroms)
 Number     Number       Type             X           Y           Z
 ---------------------------------------------------------------------
      1          7           0        0.787900    0.184180   -0.522700
      2          6           0        1.703860    0.085270   -1.643970
      3          6           0        2.996200   -0.049600   -1.046430
      4          6           0        4.285560   -0.225310   -0.770520
      5          6           0        5.145470   -0.614540   -1.772190
      6          6           0        6.414690   -0.472040   -2.084900
      7          6           0        6.154880   -0.298580   -3.465780
      8          6           0        6.739530   -0.363430   -4.572540
      9          6           0        5.019200    0.049960   -4.129830
     10          6           0        3.320790   -0.038850   -4.159830
     11          6           0        1.698950    0.199610   -3.168690
     12          6           0       -0.294570    0.416330   -3.217150
     13          6           0       -1.508120    0.333850   -3.987720
     14          6           0       -0.860650    0.926660   -5.123100
     15          6           0       -0.322890   -0.079300   -5.799560
     16          7           0        0.996570   -0.207140   -5.844970
     17          7           0        1.561180   -1.187390   -6.533260
     18          6           0        2.686710   -1.102410   -6.320560
     19          6           0        3.697190   -0.689110   -5.670210
     20          1           0        0.795150   -0.421960    0.330560
     21          1           0       -0.161680    0.449920   -0.698230
     22          1           0        3.000560   -0.674730   -1.958060
     23          1           0        4.870540   -0.000490    0.079640
     24          1           0        4.517470   -1.009050   -2.556280
     25          1           0        7.281690   -0.218890   -1.506750
     26          1           0        7.886760   -0.468960   -4.045420
     27          1           0       -0.928180    1.298390   -2.643420
     28          1           0       -2.422600    0.115120   -4.726610
     29          1           0       -0.272900    1.793090   -4.773360
     30          1           0       -0.863750   -0.983220   -6.046430
     31          1           0        1.514830    0.462550   -5.255380
     32          1           0        4.655840   -0.817640   -6.257900
 ---------------------------------------------------------------------
                    Distance matrix (angstroms):
                    1          2          3          4          5
     1  N    0.000000
     2  C    1.451211   0.000000
     3  C    2.281564   1.430170   0.000000
     4  C    3.530258   2.743091   1.330207   0.000000
     5  C    4.602999   3.514378   2.337787   1.376331   0.000000
     6  C    5.876381   4.764130   3.597631   2.514292   1.314919
     7  C    6.139972   4.824719   3.986540   3.280877   1.996744
     8  C    7.219625   5.842587   5.152132   4.527295   3.232034
     9  C    5.561771   4.143938   3.689146   3.449488   2.452748
    10  C    4.437791   2.993229   3.130293   3.528877   3.059690
    11  C    2.798484   1.529009   2.499790   3.552792   3.806777
    12  C    2.913022   2.564804   3.969670   5.232140   5.722293
    13  C    4.159384   3.983939   5.393248   6.650546   7.076601
    14  C    4.942942   4.403294   5.696281   6.837797   7.048218
    15  C    5.398938   4.626416   5.797369   6.822783   6.812426
    16  N    5.340715   4.270148   5.200897   6.047134   5.828111
    17  N    6.213372   5.054224   5.784389   6.446473   5.986909
    18  C    6.235060   4.924132   5.387081   5.841966   5.193379
    19  C    5.976911   4.558907   4.720138   4.956637   4.159043
    20  H    1.046667   2.231996   2.622856   3.665244   4.835693
    21  H    1.001564   2.123119   3.216049   4.498789   5.518361
    22  H    2.773779   1.535475   1.105385   1.806503   2.153790
    23  H    4.130964   3.606390   2.187143   1.056181   1.970258
    24  H    4.412362   3.153767   2.348287   1.963917   1.079268
    25  H    6.580283   5.587802   4.313465   3.085267   2.188706
    26  H    7.951727   6.656004   5.752163   4.873703   3.564188
    27  H    2.946837   3.065648   4.446146   5.745651   6.427096
    28  H    5.290079   5.150848   6.552423   7.795252   8.157002
    29  H    4.667119   4.076434   5.288906   6.393452   6.645482
    30  H    5.882377   5.207297   6.385206   7.411143   7.383480
    31  H    4.796267   3.635981   4.491327   5.316396   5.145317
    32  H    6.989787   5.551377   5.523016   5.531664   4.516922
                    6          7          8          9         10
     6  C    0.000000
     7  C    1.415775   0.000000
     8  C    2.511109   1.253371   0.000000
     9  C    2.530141   1.360960   1.823847   0.000000
    10  C    3.750361   2.929374   3.458824   1.700995   0.000000
    11  C    4.885071   4.493525   5.262628   3.459804   1.915617
    12  C    6.861877   6.493714   7.205808   5.404014   3.763863
    13  C    8.187863   7.706748   8.297707   6.535036   4.846328
    14  C    8.007346   7.312016   7.728531   6.027257   4.398243
    15  C    7.703761   6.888840   7.173847   5.598449   3.995842
    16  N    6.600327   5.681291   5.884309   4.380566   2.875764
    17  N    6.622401   5.594774   5.598093   4.389238   3.169943
    18  C    5.677677   4.563345   4.475155   3.401142   2.490376
    19  C    4.504040   3.324495   3.250658   2.160256   1.686939
    20  H    6.116877   6.569180   7.705807   6.161200   5.166162
    21  H    6.783915   6.936751   7.956036   6.227147   4.934488
    22  H    3.422493   3.516311   4.572998   3.052322   2.314019
    23  H    2.700369   3.782643   5.026692   4.212396   4.514012
    24  H    2.027319   2.003265   3.069150   1.961962   2.223669
    25  H    1.072395   2.261382   3.116713   3.474434   4.770742
    26  H    2.451660   1.834236   1.266937   2.915356   4.587610
    27  H    7.573910   7.307279   8.079414   6.256143   4.705471
    28  H    9.242353   8.679516   9.175913   7.465975   5.773342
    29  H    7.555296   6.884853   7.339283   5.608828   4.080077
    30  H    8.302452   7.509304   7.769579   6.272951   4.686307
    31  H    5.910502   5.031108   5.333479   3.703742   2.170973
    32  H    4.541687   3.211305   2.718181   2.326681   2.605911
                   11         12         13         14         15
    11  C    0.000000
    12  C    2.005851   0.000000
    13  C    3.312722   1.439891   0.000000
    14  C    3.301495   2.052688   1.435176   0.000000
    15  C    3.329730   2.629694   2.204139   1.326175   0.000000
    16  N    2.796651   2.993526   3.164731   2.292567   1.326416
    17  N    3.641851   4.124598   4.267850   3.510416   2.305623
    18  C    3.550382   4.563524   5.010148   4.258497   3.221162
    19  C    3.322708   4.813902   5.565292   4.866616   4.068125
    20  H    3.667145   3.804795   4.952155   5.856864   6.240657
    21  H    3.102865   2.522647   3.556279   4.505032   5.131241
    22  H    1.980981   3.692371   5.046281   5.243174   5.114389
    23  H    4.544301   6.141736   7.572483   7.795810   7.844929
    24  H    3.127293   5.062034   6.337203   6.265757   5.900202
    25  H    5.839878   7.792861   9.149945   8.982648   8.733690
    26  H    6.285271   8.270667   9.429295   8.923359   8.403999
    27  H    2.895693   1.228274   1.753229   2.508298   3.496516
    28  H    4.406975   2.626349   1.195857   1.804297   2.365968
    29  H    3.000389   2.077914   2.066974   1.103843   2.135750
    30  H    4.030869   3.207418   2.527484   2.121365   1.081918
    31  H    2.111235   2.725884   3.280511   2.424005   1.991720
    32  H    4.395590   5.939310   6.668887   5.895932   5.054006
                   16         17         18         19         20
    16  N    0.000000
    17  N    1.324167   0.000000
    18  C    1.970854   1.148599   0.000000
    19  C    2.748851   2.357048   1.270764   0.000000
    20  H    6.182547   6.948720   6.948267   6.671015   0.000000
    21  H    5.316221   6.300524   6.491044   6.396003   1.653514
    22  H    4.398032   4.823597   4.394635   3.776977   3.188339
    23  H    7.081762   7.489395   6.851708   5.908614   4.104802
    24  H    4.884187   4.958611   4.186908   3.236013   4.747019
    25  H    7.636951   7.676459   6.713212   5.513995   6.744787
    26  H    7.126124   6.835090   5.711221   4.498989   8.333207
    27  H    4.027556   5.244699   5.687937   5.874152   3.843700
    28  H    3.611828   4.564101   5.488907   6.244117   6.018084
    29  H    2.600158   3.917188   4.420072   4.767313   5.665437
    30  H    2.025753   2.481728   3.563021   4.585871   6.613090
    31  H    1.031840   2.087445   2.226435   2.502219   5.701142
    32  H    3.732757   3.128811   1.990601   1.131773   7.646522
                   21         22         23         24         25
    21  H    0.000000
    22  H    3.584937   0.000000
    23  H    5.111867   2.846690   0.000000
    24  H    5.241697   1.664528   2.844280   0.000000
    25  H    7.516965   4.328920   2.894473   3.060519   0.000000
    26  H    8.765010   5.317364   5.131585   3.723083   2.621734
    27  H    2.256366   4.449485   6.536612   5.914979   8.425920
    28  H    4.631598   6.139983   8.735176   7.357898  10.229971
    29  H    4.292221   4.973087   7.295445   5.976209   8.472935
    30  H    5.581222   5.634077   8.448466   6.413996   9.356339
    31  H    4.855766   3.791190   6.319623   4.297278   6.911820
    32  H    7.464927   4.609664   6.393610   3.709147   5.461412
                   26         27         28         29         30
    26  H    0.000000
    27  H    9.099027   0.000000
    28  H   10.348337   2.823668   0.000000
    29  H    8.498636   2.282710   2.727449   0.000000
    30  H    8.991103   4.097606   2.319114   3.110902   0.000000
    31  H    6.552344   3.672773   3.987939   2.280057   2.893727
    32  H    3.931347   6.980210   7.302000   5.771676   5.526121
                   31         32
    31  H    0.000000
    32  H    3.536930   0.000000
 Stoichiometry    C16H13N3
 Framework group  C1[X(C16H13N3)]
 Deg. of freedom    90
 Full point group                 C1      NOp   1
 Largest Abelian subgroup         C1      NOp   1
 Largest concise Abelian subgroup C1      NOp   1
                         Standard orientation:                         
 ---------------------------------------------------------------------
 Center     Atomic      Atomic             Coordinates (Angstroms)
 Number     Number       Type             X           Y           Z
 ---------------------------------------------------------------------
      1          7           0        0.741826    3.515507   -0.232992
      2          6           0        0.219057    2.169098   -0.091890
      3          6           0       -1.201938    2.324766   -0.135777
      4          6           0       -2.522494    2.172184   -0.183762
      5          6           0       -3.053099    0.913084   -0.349331
      6          6           0       -4.144346    0.257986   -0.019119
      7          6           0       -3.451370   -0.940505    0.277229
      8          6           0       -3.662499   -2.168808    0.410025
      9          6           0       -2.140544   -1.174797    0.558396
     10          6           0       -0.531404   -0.706099    0.267923
     11          6           0        0.711246    0.749876    0.193464
     12          6           0        2.629947    1.334251    0.170515
     13          6           0        4.013208    0.960173    0.029306
     14          6           0        3.804503   -0.218226    0.821485
     15          6           0        3.427068   -1.163821   -0.028299
     16          7           0        2.182691   -1.621377    0.011076
     17          7           0        1.785632   -2.582441   -0.808751
     18          6           0        0.660869   -2.707473   -0.612397
     19          6           0       -0.465951   -2.337596   -0.155986
     20          1           0        0.418537    4.229448   -0.926738
     21          1           0        1.716661    3.673812   -0.066361
     22          1           0       -0.970322    1.373061   -0.648114
     23          1           0       -3.324588    2.830727    0.012410
     24          1           0       -2.244676    0.305036   -0.725561
     25          1           0       -5.125645    0.579562    0.270145
     26          1           0       -4.921754   -2.031688    0.385441
     27          1           0        3.120334    2.193742    0.898152
     28          1           0        5.092624    0.506334   -0.213525
     29          1           0        3.208373    0.061150    1.707514
     30          1           0        3.943546   -1.365758   -0.957286
     31          1           0        1.561240   -1.123674    0.667418
     32          1           0       -1.198890   -3.198131   -0.099518
 ---------------------------------------------------------------------
 Rotational constants (GHZ):           0.5639670           0.3015013           0.2028686
 Standard basis: 6-31G(2df,p) (6D, 7F)
 There are   654 symmetry adapted cartesian basis functions of A   symmetry.
 There are   597 symmetry adapted basis functions of A   symmetry.
   597 basis functions,   927 primitive gaussians,   654 cartesian basis functions
    65 alpha electrons       65 beta electrons
       nuclear repulsion energy      1271.4165137339 Hartrees.
 NAtoms=   32 NActive=   32 NUniq=   32 SFac= 1.00D+00 NAtFMM=   60 NAOKFM=F Big=F
 Integral buffers will be    131072 words long.
 Raffenetti 2 integral format.
 Two-electron integral symmetry is turned on.
 One-electron integrals computed using PRISM.
 PrsmSu:  requested number of processors reduced to:  12 ShMem   1 Linda.
 NBasis=   597 RedAO= T EigKep=  1.72D-04  NBF=   597
 NBsUse=   597 1.00D-06 EigRej= -1.00D+00 NBFU=   597
 ExpMin= 1.61D-01 ExpMax= 4.17D+03 ExpMxC= 6.27D+02 IAcc=3 IRadAn=         5 AccDes= 0.00D+00
 Harris functional with IExCor=  402 and IRadAn=       5 diagonalized for initial guess.
 HarFok:  IExCor=  402 AccDes= 0.00D+00 IRadAn=         5 IDoV= 1 UseB2=F ITyADJ=14
 ICtDFT=  3500011 ScaDFX=  1.000000  1.000000  1.000000  1.000000
 FoFCou: FMM=F IPFlag=           0 FMFlag=      100000 FMFlg1=           0
         NFxFlg=           0 DoJE=T BraDBF=F KetDBF=T FulRan=T
         wScrn=  0.000000 ICntrl=       500 IOpCl=  0 I1Cent=   200000004 NGrid=           0
         NMat0=    1 NMatS0=      1 NMatT0=    0 NMatD0=    1 NMtDS0=    0 NMtDT0=    0
 Petite list used in FoFCou.
 Requested convergence on RMS density matrix=1.00D-08 within 128 cycles.
 Requested convergence on MAX density matrix=1.00D-06.
 Requested convergence on             energy=1.00D-06.
 No special actions if energy rises.
 Integral accuracy reduced to 1.0D-05 until final iterations.
 EnCoef did     7 forward-backward iterations
 EnCoef did     4 forward-backward iterations
 EnCoef did     5 forward-backward iterations
 Initial convergence to 1.0D-05 achieved.  Increase integral accuracy.
 SCF Done:  E(RB3LYP) =  -780.525689775     A.U. after   25 cycles
            NFock= 25  Conv=0.32D-08     -V/T= 2.0062

 **********************************************************************

            Population analysis using the SCF density.

 **********************************************************************

 Orbital symmetries:
       Occupied  (A) (A) (A) (A) (A) (A) (A) (A) (A) (A) (A) (A)
                 (A) (A) (A) (A) (A) (A) (A) (A) (A) (A) (A) (A)
                 (A) (A) (A) (A) (A) (A) (A) (A) (A) (A) (A) (A)
                 (A) (A) (A) (A) (A) (A) (A) (A) (A) (A) (A) (A)
                 (A) (A) (A) (A) (A) (A) (A) (A) (A) (A) (A) (A)
                 (A) (A) (A) (A) (A)
       Virtual   (A) (A) (A) (A) (A) (A) (A) (A) (A) (A) (A) (A)
                 (A) (A) (A) (A) (A) (A) (A) (A) (A) (A) (A) (A)
                 (A) (A) (A) (A) (A) (A) (A) (A) (A) (A) (A) (A)
                 (A) (A) (A) (A) (A) (A) (A) (A) (A) (A) (A) (A)
                 (A) (A) (A) (A) (A) (A) (A) (A) (A) (A) (A) (A)
                 (A) (A) (A) (A) (A) (A) (A) (A) (A) (A) (A) (A)
                 (A) (A) (A) (A) (A) (A) (A) (A) (A) (A) (A) (A)
                 (A) (A) (A) (A) (A) (A) (A) (A) (A) (A) (A) (A)
                 (A) (A) (A) (A) (A) (A) (A) (A) (A) (A) (A) (A)
                 (A) (A) (A) (A) (A) (A) (A) (A) (A) (A) (A) (A)
                 (A) (A) (A) (A) (A) (A) (A) (A) (A) (A) (A) (A)
                 (A) (A) (A) (A) (A) (A) (A) (A) (A) (A) (A) (A)
                 (A) (A) (A) (A) (A) (A) (A) (A) (A) (A) (A) (A)
                 (A) (A) (A) (A) (A) (A) (A) (A) (A) (A) (A) (A)
                 (A) (A) (A) (A) (A) (A) (A) (A) (A) (A) (A) (A)
                 (A) (A) (A) (A) (A) (A) (A) (A) (A) (A) (A) (A)
                 (A) (A) (A) (A) (A) (A) (A) (A) (A) (A) (A) (A)
                 (A) (A) (A) (A) (A) (A) (A) (A) (A) (A) (A) (A)
                 (A) (A) (A) (A) (A) (A) (A) (A) (A) (A) (A) (A)
                 (A) (A) (A) (A) (A) (A) (A) (A) (A) (A) (A) (A)
                 (A) (A) (A) (A) (A) (A) (A) (A) (A) (A) (A) (A)
                 (A) (A) (A) (A) (A) (A) (A) (A) (A) (A) (A) (A)
                 (A) (A) (A) (A) (A) (A) (A) (A) (A) (A) (A) (A)
                 (A) (A) (A) (A) (A) (A) (A) (A) (A) (A) (A) (A)
                 (A) (A) (A) (A) (A) (A) (A) (A) (A) (A) (A) (A)
                 (A) (A) (A) (A) (A) (A) (A) (A) (A) (A) (A) (A)
                 (A) (A) (A) (A) (A) (A) (A) (A) (A) (A) (A) (A)
                 (A) (A) (A) (A) (A) (A) (A) (A) (A) (A) (A) (A)
                 (A) (A) (A) (A) (A) (A) (A) (A) (A) (A) (A) (A)
                 (A) (A) (A) (A) (A) (A) (A) (A) (A) (A) (A) (A)
                 (A) (A) (A) (A) (A) (A) (A) (A) (A) (A) (A) (A)
                 (A) (A) (A) (A) (A) (A) (A) (A) (A) (A) (A) (A)
                 (A) (A) (A) (A) (A) (A) (A) (A) (A) (A) (A) (A)
                 (A) (A) (A) (A) (A) (A) (A) (A) (A) (A) (A) (A)
                 (A) (A) (A) (A) (A) (A) (A) (A) (A) (A) (A) (A)
                 (A) (A) (A) (A) (A) (A) (A) (A) (A) (A) (A) (A)
                 (A) (A) (A) (A) (A) (A) (A) (A) (A) (A) (A) (A)
                 (A) (A) (A) (A) (A) (A) (A) (A) (A) (A) (A) (A)
                 (A) (A) (A) (A) (A) (A) (A) (A) (A) (A) (A) (A)
                 (A) (A) (A) (A) (A) (A) (A) (A) (A) (A) (A) (A)
                 (A) (A) (A) (A) (A) (A) (A) (A) (A) (A) (A) (A)
                 (A) (A) (A) (A) (A) (A) (A) (A) (A) (A) (A) (A)
                 (A) (A) (A) (A) (A) (A) (A) (A) (A) (A) (A) (A)
                 (A) (A) (A) (A) (A) (A) (A) (A) (A) (A) (A) (A)
                 (A) (A) (A) (A)
 The electronic state is 1-A.
 Alpha  occ. eigenvalues --  -14.42185 -14.37127 -14.34260 -10.28225 -10.26878
 Alpha  occ. eigenvalues --  -10.26213 -10.26194 -10.25620 -10.24973 -10.24556
 Alpha  occ. eigenvalues --  -10.22189 -10.20717 -10.19377 -10.19369 -10.18529
 Alpha  occ. eigenvalues --  -10.18253 -10.17613 -10.17227 -10.16885  -1.09349
 Alpha  occ. eigenvalues --   -0.92788  -0.90285  -0.89468  -0.85840  -0.83030
 Alpha  occ. eigenvalues --   -0.78423  -0.77031  -0.72618  -0.71515  -0.66473
 Alpha  occ. eigenvalues --   -0.64547  -0.63280  -0.61028  -0.58705  -0.56426
 Alpha  occ. eigenvalues --   -0.56001  -0.54087  -0.52675  -0.51121  -0.49747
 Alpha  occ. eigenvalues --   -0.48182  -0.46938  -0.45690  -0.44608  -0.43576
 Alpha  occ. eigenvalues --   -0.43132  -0.40884  -0.39810  -0.38703  -0.37400
 Alpha  occ. eigenvalues --   -0.36773  -0.36141  -0.35231  -0.32561  -0.32319
 Alpha  occ. eigenvalues --   -0.31181  -0.28747  -0.26922  -0.25732  -0.24486
 Alpha  occ. eigenvalues --   -0.23638  -0.21453  -0.19959  -0.19347  -0.15932
 Alpha virt. eigenvalues --   -0.10992  -0.08525  -0.06903  -0.06184  -0.04013
 Alpha virt. eigenvalues --   -0.02813   0.00138   0.01404   0.02240   0.04999
 Alpha virt. eigenvalues --    0.06958   0.07704   0.09318   0.09853   0.10283
 Alpha virt. eigenvalues --    0.10630   0.11320   0.13380   0.13929   0.15465
 Alpha virt. eigenvalues --    0.15815   0.16376   0.17298   0.18427   0.19648
 Alpha virt. eigenvalues --    0.20356   0.21799   0.22773   0.24109   0.26007
 Alpha virt. eigenvalues --    0.28358   0.29830   0.30210   0.31063   0.33371
 Alpha virt. eigenvalues --    0.34210   0.34595   0.35908   0.37070   0.39056
 Alpha virt. eigenvalues --    0.39750   0.40587   0.41044   0.42338   0.43562
 Alpha virt. eigenvalues --    0.44234   0.45308   0.46280   0.46689   0.47455
 Alpha virt. eigenvalues --    0.48486   0.48774   0.49378   0.49771   0.50986
 Alpha virt. eigenvalues --    0.51297   0.51604   0.53062   0.53540   0.54199
 Alpha virt. eigenvalues --    0.54973   0.56490   0.56672   0.57147   0.57687
 Alpha virt. eigenvalues --    0.58384   0.58795   0.58866   0.59513   0.59982
 Alpha virt. eigenvalues --    0.60501   0.61495   0.63019   0.63465   0.64461
 Alpha virt. eigenvalues --    0.65058   0.66192   0.66790   0.67156   0.67237
 Alpha virt. eigenvalues --    0.68340   0.68605   0.69514   0.69953   0.70605
 Alpha virt. eigenvalues --    0.71024   0.71369   0.72231   0.72858   0.73533
 Alpha virt. eigenvalues --    0.73795   0.74897   0.75299   0.76066   0.76796
 Alpha virt. eigenvalues --    0.77309   0.78228   0.79171   0.79268   0.80000
 Alpha virt. eigenvalues --    0.80234   0.80802   0.81531   0.81616   0.82309
 Alpha virt. eigenvalues --    0.83579   0.83883   0.85151   0.86240   0.86858
 Alpha virt. eigenvalues --    0.87450   0.88581   0.89363   0.89550   0.91060
 Alpha virt. eigenvalues --    0.91653   0.92250   0.94475   0.95566   0.96430
 Alpha virt. eigenvalues --    0.97526   0.97896   0.99067   1.00051   1.01008
 Alpha virt. eigenvalues --    1.01499   1.02982   1.04792   1.04987   1.05533
 Alpha virt. eigenvalues --    1.07092   1.08306   1.09185   1.10271   1.11656
 Alpha virt. eigenvalues --    1.13061   1.13482   1.15585   1.15987   1.17546
 Alpha virt. eigenvalues --    1.18294   1.18987   1.19207   1.20116   1.21640
 Alpha virt. eigenvalues --    1.22078   1.22615   1.23266   1.25453   1.26781
 Alpha virt. eigenvalues --    1.27630   1.28169   1.29654   1.30295   1.31302
 Alpha virt. eigenvalues --    1.32295   1.33195   1.34252   1.36126   1.37157
 Alpha virt. eigenvalues --    1.37611   1.38372   1.39458   1.40766   1.41656
 Alpha virt. eigenvalues --    1.42095   1.44013   1.45442   1.45590   1.46936
 Alpha virt. eigenvalues --    1.47874   1.48186   1.50282   1.50870   1.51910
 Alpha virt. eigenvalues --    1.52735   1.53955   1.54900   1.55922   1.57440
 Alpha virt. eigenvalues --    1.58591   1.58841   1.61370   1.62524   1.63944
 Alpha virt. eigenvalues --    1.64586   1.65589   1.66526   1.67641   1.68266
 Alpha virt. eigenvalues --    1.69684   1.70374   1.71814   1.72993   1.73559
 Alpha virt. eigenvalues --    1.74351   1.76938   1.78324   1.78821   1.79845
 Alpha virt. eigenvalues --    1.80888   1.82057   1.84459   1.84725   1.86964
 Alpha virt. eigenvalues --    1.88237   1.90072   1.90915   1.91782   1.93655
 Alpha virt. eigenvalues --    1.93867   1.95113   1.97396   1.99227   2.01967
 Alpha virt. eigenvalues --    2.04201   2.07211   2.08911   2.09706   2.11386
 Alpha virt. eigenvalues --    2.13890   2.14525   2.16284   2.18857   2.19303
 Alpha virt. eigenvalues --    2.21112   2.22610   2.23526   2.24728   2.25018
 Alpha virt. eigenvalues --    2.27758   2.29702   2.30301   2.31343   2.32893
 Alpha virt. eigenvalues --    2.34250   2.34491   2.38160   2.40853   2.42043
 Alpha virt. eigenvalues --    2.42529   2.44151   2.44919   2.45761   2.46868
 Alpha virt. eigenvalues --    2.48970   2.51575   2.53717   2.55826   2.56759
 Alpha virt. eigenvalues --    2.57922   2.59280   2.60327   2.61807   2.63502
 Alpha virt. eigenvalues --    2.64328   2.65309   2.66984   2.69004   2.69794
 Alpha virt. eigenvalues --    2.71713   2.72535   2.73977   2.74685   2.77266
 Alpha virt. eigenvalues --    2.77915   2.78394   2.79776   2.80954   2.82485
 Alpha virt. eigenvalues --    2.83176   2.83500   2.85907   2.86581   2.87232
 Alpha virt. eigenvalues --    2.87977   2.88676   2.89752   2.90855   2.91559
 Alpha virt. eigenvalues --    2.93635   2.94460   2.96579   2.97356   2.98132
 Alpha virt. eigenvalues --    2.98214   2.99209   3.00976   3.02220   3.03179
 Alpha virt. eigenvalues --    3.04259   3.05141   3.05748   3.07050   3.08473
 Alpha virt. eigenvalues --    3.09540   3.09641   3.11356   3.12601   3.13079
 Alpha virt. eigenvalues --    3.13729   3.14339   3.15189   3.15768   3.17306
 Alpha virt. eigenvalues --    3.18099   3.18446   3.20420   3.20888   3.22380
 Alpha virt. eigenvalues --    3.22814   3.23176   3.23741   3.24527   3.25768
 Alpha virt. eigenvalues --    3.26464   3.26799   3.28383   3.29673   3.30050
 Alpha virt. eigenvalues --    3.31680   3.32366   3.32665   3.33882   3.34455
 Alpha virt. eigenvalues --    3.35939   3.36863   3.37393   3.37908   3.38759
 Alpha virt. eigenvalues --    3.39512   3.42658   3.44114   3.45452   3.45685
 Alpha virt. eigenvalues --    3.47447   3.49027   3.49937   3.50362   3.52658
 Alpha virt. eigenvalues --    3.53489   3.55072   3.56055   3.57043   3.58005
 Alpha virt. eigenvalues --    3.59542   3.60655   3.60930   3.62219   3.63234
 Alpha virt. eigenvalues --    3.64608   3.65858   3.65971   3.67055   3.68919
 Alpha virt. eigenvalues --    3.70409   3.71306   3.72022   3.72693   3.73907
 Alpha virt. eigenvalues --    3.76451   3.76898   3.79574   3.80066   3.80986
 Alpha virt. eigenvalues --    3.82359   3.83412   3.84163   3.86070   3.87931
 Alpha virt. eigenvalues --    3.88471   3.89032   3.90449   3.93377   3.95941
 Alpha virt. eigenvalues --    3.97488   3.99252   4.01305   4.02528   4.04250
 Alpha virt. eigenvalues --    4.05221   4.06908   4.08025   4.09277   4.10437
 Alpha virt. eigenvalues --    4.12316   4.14134   4.15764   4.16745   4.18781
 Alpha virt. eigenvalues --    4.19377   4.20753   4.23450   4.24052   4.24929
 Alpha virt. eigenvalues --    4.25138   4.27475   4.28288   4.28713   4.31790
 Alpha virt. eigenvalues --    4.32680   4.33631   4.34484   4.36105   4.36420
 Alpha virt. eigenvalues --    4.37524   4.38193   4.39864   4.40769   4.41051
 Alpha virt. eigenvalues --    4.41811   4.43172   4.44349   4.44393   4.45834
 Alpha virt. eigenvalues --    4.46159   4.47034   4.47851   4.48652   4.49857
 Alpha virt. eigenvalues --    4.50390   4.51552   4.53879   4.54318   4.55724
 Alpha virt. eigenvalues --    4.56100   4.57269   4.58483   4.59433   4.60265
 Alpha virt. eigenvalues --    4.60970   4.61801   4.64751   4.65230   4.65412
 Alpha virt. eigenvalues --    4.66564   4.66980   4.67866   4.68879   4.70674
 Alpha virt. eigenvalues --    4.72082   4.72353   4.73175   4.75459   4.75861
 Alpha virt. eigenvalues --    4.77628   4.78324   4.78897   4.79260   4.81563
 Alpha virt. eigenvalues --    4.83003   4.83632   4.84535   4.85574   4.86667
 Alpha virt. eigenvalues --    4.89003   4.89398   4.90963   4.92176   4.93213
 Alpha virt. eigenvalues --    4.93654   4.95552   4.95785   4.99465   4.99911
 Alpha virt. eigenvalues --    5.01797   5.03173   5.05316   5.06560   5.07631
 Alpha virt. eigenvalues --    5.09854   5.10524   5.12347   5.13029   5.15282
 Alpha virt. eigenvalues --    5.16541   5.18547   5.21900   5.22978   5.25410
 Alpha virt. eigenvalues --    5.26805   5.31039   5.31524   5.37219   5.38117
 Alpha virt. eigenvalues --    5.42205   5.44492   5.47220   5.49748   5.51222
 Alpha virt. eigenvalues --    5.53947   5.54389   5.59467   5.59647   5.62591
 Alpha virt. eigenvalues --    5.65601   5.69880   5.73664   5.75609   5.79496
 Alpha virt. eigenvalues --    5.84826   5.91805   5.94898   6.02394   6.05613
 Alpha virt. eigenvalues --    6.07101   6.17871   6.21475   6.41975   6.54556
 Alpha virt. eigenvalues --    9.84265  10.03010  10.14500  10.26469  10.45936
 Alpha virt. eigenvalues --   10.64156  10.73187  10.79019  10.99362  11.28386
 Alpha virt. eigenvalues --   11.32308  11.34803  11.38308  11.52461  11.60745
 Alpha virt. eigenvalues --   11.70042  11.83406  12.07819  12.24958  12.46663
 Alpha virt. eigenvalues --   14.50415  21.39631
          Condensed to atoms (all electrons):
               1          2          3          4          5          6
     1  N    6.638643   0.390700  -0.070950  -0.002724  -0.000001   0.000002
     2  C    0.390700   4.663235   0.430907  -0.017895  -0.001667   0.000162
     3  C   -0.070950   0.430907   4.905042   0.581034  -0.016188   0.004765
     4  C   -0.002724  -0.017895   0.581034   4.994565   0.522036  -0.040710
     5  C   -0.000001  -0.001667  -0.016188   0.522036   4.675584   0.543114
     6  C    0.000002   0.000162   0.004765  -0.040710   0.543114   5.281181
     7  C    0.000000   0.000041   0.002039   0.004045   0.008128   0.465701
     8  C   -0.000000  -0.000001  -0.000069  -0.000842  -0.003198  -0.103264
     9  C   -0.000003   0.000048   0.000891  -0.000007  -0.039832  -0.056256
    10  C    0.000840  -0.021273   0.007491  -0.006852  -0.025478  -0.001800
    11  C   -0.031835   0.529183  -0.060133  -0.005343   0.001261  -0.000090
    12  C   -0.014525  -0.000628   0.003391  -0.000058  -0.000006   0.000000
    13  C    0.000391  -0.000766  -0.000063  -0.000001   0.000000   0.000000
    14  C    0.000029  -0.000379  -0.000020   0.000000  -0.000000  -0.000000
    15  C   -0.000020   0.000482   0.000002   0.000000   0.000000  -0.000000
    16  N    0.000005   0.000625   0.000022  -0.000000  -0.000004   0.000000
    17  N    0.000000  -0.000040   0.000001  -0.000000  -0.000000   0.000000
    18  C   -0.000001  -0.000110  -0.000043   0.000001   0.000089   0.000026
    19  C    0.000001   0.000280   0.000368   0.000121   0.000576   0.000849
    20  H    0.335695  -0.023697  -0.001287   0.000070   0.000061   0.000001
    21  H    0.310989  -0.036555   0.009473   0.000050   0.000006  -0.000000
    22  H    0.006479  -0.069333   0.259917  -0.039317  -0.042443   0.001565
    23  H    0.000301  -0.001677  -0.060066   0.342196  -0.068749  -0.004797
    24  H    0.000033  -0.001224  -0.039137  -0.059521   0.374021  -0.026451
    25  H   -0.000000  -0.000001  -0.000121  -0.006167  -0.031594   0.365070
    26  H   -0.000000   0.000000   0.000005   0.000098   0.001940  -0.015705
    27  H   -0.003735  -0.000516   0.000146   0.000005   0.000000  -0.000000
    28  H   -0.000002   0.000004   0.000000  -0.000000  -0.000000  -0.000000
    29  H   -0.000012   0.000001   0.000005  -0.000000   0.000000   0.000000
    30  H   -0.000000  -0.000007  -0.000000  -0.000000  -0.000000  -0.000000
    31  H    0.000004  -0.000876   0.000046  -0.000009   0.000047   0.000001
    32  H    0.000000  -0.000004   0.000001  -0.000006  -0.000015   0.000062
               7          8          9         10         11         12
     1  N    0.000000  -0.000000  -0.000003   0.000840  -0.031835  -0.014525
     2  C    0.000041  -0.000001   0.000048  -0.021273   0.529183  -0.000628
     3  C    0.002039  -0.000069   0.000891   0.007491  -0.060133   0.003391
     4  C    0.004045  -0.000842  -0.000007  -0.006852  -0.005343  -0.000058
     5  C    0.008128  -0.003198  -0.039832  -0.025478   0.001261  -0.000006
     6  C    0.465701  -0.103264  -0.056256  -0.001800  -0.000090   0.000000
     7  C    4.391638   0.402821   0.493034  -0.051742   0.000330  -0.000001
     8  C    0.402821   5.718080   0.139425   0.001386  -0.000021   0.000000
     9  C    0.493034   0.139425   5.167660   0.336697  -0.002969  -0.000034
    10  C   -0.051742   0.001386   0.336697   5.562089   0.174425  -0.006067
    11  C    0.000330  -0.000021  -0.002969   0.174425   5.545797   0.125942
    12  C   -0.000001   0.000000  -0.000034  -0.006067   0.125942   5.427009
    13  C    0.000000  -0.000000  -0.000001   0.000357  -0.016414   0.452645
    14  C   -0.000000   0.000000  -0.000000  -0.000992  -0.004566  -0.015900
    15  C    0.000000   0.000000  -0.000015   0.002012  -0.006929  -0.036498
    16  N   -0.000004   0.000000   0.000169  -0.008114  -0.000505  -0.003580
    17  N   -0.000005  -0.000000   0.000219  -0.021247   0.001718   0.001003
    18  C    0.000552   0.001618  -0.002777  -0.045249   0.001799   0.000780
    19  C   -0.003712  -0.009482  -0.015684   0.311153  -0.014947   0.000054
    20  H   -0.000000  -0.000000   0.000000   0.000013   0.001744   0.001535
    21  H   -0.000000  -0.000000   0.000000   0.000028  -0.000858   0.015083
    22  H   -0.000386   0.000080  -0.003139   0.011779  -0.022496   0.001233
    23  H   -0.000358   0.000052  -0.000350  -0.000194  -0.000242   0.000001
    24  H   -0.059005   0.005540  -0.021314   0.016086  -0.002473   0.000008
    25  H   -0.042222  -0.000049   0.002428  -0.000171   0.000000  -0.000000
    26  H   -0.030499   0.244206  -0.001594  -0.000373   0.000000  -0.000000
    27  H    0.000000  -0.000000   0.000000   0.000130  -0.011493   0.261357
    28  H   -0.000000   0.000000  -0.000000  -0.000004  -0.000073  -0.013292
    29  H    0.000000  -0.000000  -0.000003   0.000422  -0.005491  -0.006285
    30  H   -0.000000   0.000000  -0.000000  -0.000067  -0.000756  -0.000827
    31  H    0.000050  -0.000007  -0.000487   0.024682   0.008476   0.000555
    32  H    0.003183   0.006667  -0.015727  -0.018159   0.000019  -0.000000
              13         14         15         16         17         18
     1  N    0.000391   0.000029  -0.000020   0.000005   0.000000  -0.000001
     2  C   -0.000766  -0.000379   0.000482   0.000625  -0.000040  -0.000110
     3  C   -0.000063  -0.000020   0.000002   0.000022   0.000001  -0.000043
     4  C   -0.000001   0.000000   0.000000  -0.000000  -0.000000   0.000001
     5  C    0.000000  -0.000000   0.000000  -0.000004  -0.000000   0.000089
     6  C    0.000000  -0.000000  -0.000000   0.000000   0.000000   0.000026
     7  C    0.000000  -0.000000   0.000000  -0.000004  -0.000005   0.000552
     8  C   -0.000000   0.000000   0.000000   0.000000  -0.000000   0.001618
     9  C   -0.000001  -0.000000  -0.000015   0.000169   0.000219  -0.002777
    10  C    0.000357  -0.000992   0.002012  -0.008114  -0.021247  -0.045249
    11  C   -0.016414  -0.004566  -0.006929  -0.000505   0.001718   0.001799
    12  C    0.452645  -0.015900  -0.036498  -0.003580   0.001003   0.000780
    13  C    5.292014   0.274586  -0.021217  -0.004572  -0.000552  -0.000118
    14  C    0.274586   5.281438   0.510759  -0.027173   0.004906   0.001375
    15  C   -0.021217   0.510759   4.701758   0.493057  -0.053076   0.003666
    16  N   -0.004572  -0.027173   0.493057   6.268871   0.342210  -0.150026
    17  N   -0.000552   0.004906  -0.053076   0.342210   6.264993   0.674916
    18  C   -0.000118   0.001375   0.003666  -0.150026   0.674916   4.737236
    19  C    0.000012  -0.000277   0.002444  -0.011836  -0.015968   0.539702
    20  H   -0.000008  -0.000001   0.000000   0.000000  -0.000000  -0.000000
    21  H   -0.002102   0.000083   0.000026  -0.000003  -0.000000  -0.000000
    22  H   -0.000001  -0.000005  -0.000011   0.000032  -0.000006   0.000059
    23  H    0.000000  -0.000000  -0.000000  -0.000000   0.000000  -0.000000
    24  H   -0.000000  -0.000000  -0.000001   0.000016  -0.000003   0.000030
    25  H    0.000000  -0.000000   0.000000  -0.000000   0.000000   0.000000
    26  H   -0.000000  -0.000000  -0.000000  -0.000000   0.000000  -0.000005
    27  H   -0.043652   0.003026   0.004103  -0.000122  -0.000007  -0.000003
    28  H    0.341440  -0.071067  -0.013769  -0.000631   0.000048   0.000011
    29  H   -0.068940   0.364128  -0.015633  -0.012923  -0.000019  -0.000204
    30  H    0.005729  -0.056536   0.356124  -0.042023   0.005442   0.002323
    31  H    0.000772   0.007784  -0.047311   0.301927  -0.040598  -0.004493
    32  H    0.000000  -0.000001  -0.000014   0.000371   0.000769  -0.030504
              19         20         21         22         23         24
     1  N    0.000001   0.335695   0.310989   0.006479   0.000301   0.000033
     2  C    0.000280  -0.023697  -0.036555  -0.069333  -0.001677  -0.001224
     3  C    0.000368  -0.001287   0.009473   0.259917  -0.060066  -0.039137
     4  C    0.000121   0.000070   0.000050  -0.039317   0.342196  -0.059521
     5  C    0.000576   0.000061   0.000006  -0.042443  -0.068749   0.374021
     6  C    0.000849   0.000001  -0.000000   0.001565  -0.004797  -0.026451
     7  C   -0.003712  -0.000000  -0.000000  -0.000386  -0.000358  -0.059005
     8  C   -0.009482  -0.000000  -0.000000   0.000080   0.000052   0.005540
     9  C   -0.015684   0.000000   0.000000  -0.003139  -0.000350  -0.021314
    10  C    0.311153   0.000013   0.000028   0.011779  -0.000194   0.016086
    11  C   -0.014947   0.001744  -0.000858  -0.022496  -0.000242  -0.002473
    12  C    0.000054   0.001535   0.015083   0.001233   0.000001   0.000008
    13  C    0.000012  -0.000008  -0.002102  -0.000001   0.000000  -0.000000
    14  C   -0.000277  -0.000001   0.000083  -0.000005  -0.000000  -0.000000
    15  C    0.002444   0.000000   0.000026  -0.000011  -0.000000  -0.000001
    16  N   -0.011836   0.000000  -0.000003   0.000032  -0.000000   0.000016
    17  N   -0.015968  -0.000000  -0.000000  -0.000006   0.000000  -0.000003
    18  C    0.539702  -0.000000  -0.000000   0.000059  -0.000000   0.000030
    19  C    5.124681   0.000000  -0.000000  -0.000261   0.000004   0.002859
    20  H    0.000000   0.451567  -0.031067  -0.001689  -0.000083   0.000003
    21  H   -0.000000  -0.031067   0.508140  -0.001410  -0.000013  -0.000002
    22  H   -0.000261  -0.001689  -0.001410   0.667669   0.010618   0.017489
    23  H    0.000004  -0.000083  -0.000013   0.010618   0.703636   0.011054
    24  H    0.002859   0.000003  -0.000002   0.017489   0.011054   0.656680
    25  H    0.000006   0.000000   0.000000  -0.000019   0.003222   0.005235
    26  H    0.000199  -0.000000  -0.000000  -0.000003   0.000000  -0.000682
    27  H   -0.000003  -0.000015   0.006520  -0.000002  -0.000000  -0.000001
    28  H   -0.000000   0.000000  -0.000000   0.000000   0.000000   0.000000
    29  H   -0.000026   0.000001   0.000029  -0.000003   0.000000  -0.000000
    30  H   -0.000044   0.000000  -0.000000   0.000000  -0.000000  -0.000000
    31  H    0.007638   0.000000  -0.000002  -0.000119   0.000000  -0.000064
    32  H    0.347585   0.000000   0.000000  -0.000004  -0.000000   0.000046
              25         26         27         28         29         30
     1  N   -0.000000  -0.000000  -0.003735  -0.000002  -0.000012  -0.000000
     2  C   -0.000001   0.000000  -0.000516   0.000004   0.000001  -0.000007
     3  C   -0.000121   0.000005   0.000146   0.000000   0.000005  -0.000000
     4  C   -0.006167   0.000098   0.000005  -0.000000  -0.000000  -0.000000
     5  C   -0.031594   0.001940   0.000000  -0.000000   0.000000  -0.000000
     6  C    0.365070  -0.015705  -0.000000  -0.000000   0.000000  -0.000000
     7  C   -0.042222  -0.030499   0.000000  -0.000000   0.000000  -0.000000
     8  C   -0.000049   0.244206  -0.000000   0.000000  -0.000000   0.000000
     9  C    0.002428  -0.001594   0.000000  -0.000000  -0.000003  -0.000000
    10  C   -0.000171  -0.000373   0.000130  -0.000004   0.000422  -0.000067
    11  C    0.000000   0.000000  -0.011493  -0.000073  -0.005491  -0.000756
    12  C   -0.000000  -0.000000   0.261357  -0.013292  -0.006285  -0.000827
    13  C    0.000000  -0.000000  -0.043652   0.341440  -0.068940   0.005729
    14  C   -0.000000  -0.000000   0.003026  -0.071067   0.364128  -0.056536
    15  C    0.000000  -0.000000   0.004103  -0.013769  -0.015633   0.356124
    16  N   -0.000000  -0.000000  -0.000122  -0.000631  -0.012923  -0.042023
    17  N    0.000000   0.000000  -0.000007   0.000048  -0.000019   0.005442
    18  C    0.000000  -0.000005  -0.000003   0.000011  -0.000204   0.002323
    19  C    0.000006   0.000199  -0.000003  -0.000000  -0.000026  -0.000044
    20  H    0.000000  -0.000000  -0.000015   0.000000   0.000001   0.000000
    21  H    0.000000  -0.000000   0.006520  -0.000000   0.000029  -0.000000
    22  H   -0.000019  -0.000003  -0.000002   0.000000  -0.000003   0.000000
    23  H    0.003222   0.000000  -0.000000   0.000000   0.000000  -0.000000
    24  H    0.005235  -0.000682  -0.000001   0.000000  -0.000000  -0.000000
    25  H    0.578602   0.004615   0.000000  -0.000000   0.000000  -0.000000
    26  H    0.004615   0.702933   0.000000  -0.000000  -0.000000  -0.000000
    27  H    0.000000   0.000000   0.620204   0.003727   0.003180   0.000036
    28  H   -0.000000  -0.000000   0.003727   0.510298   0.008988   0.008683
    29  H    0.000000  -0.000000   0.003180   0.008988   0.590855   0.005660
    30  H   -0.000000  -0.000000   0.000036   0.008683   0.005660   0.583473
    31  H    0.000000   0.000000   0.000011   0.000120   0.008827   0.006329
    32  H   -0.000000  -0.000070   0.000000   0.000000   0.000001   0.000002
              31         32
     1  N    0.000004   0.000000
     2  C   -0.000876  -0.000004
     3  C    0.000046   0.000001
     4  C   -0.000009  -0.000006
     5  C    0.000047  -0.000015
     6  C    0.000001   0.000062
     7  C    0.000050   0.003183
     8  C   -0.000007   0.006667
     9  C   -0.000487  -0.015727
    10  C    0.024682  -0.018159
    11  C    0.008476   0.000019
    12  C    0.000555  -0.000000
    13  C    0.000772   0.000000
    14  C    0.007784  -0.000001
    15  C   -0.047311  -0.000014
    16  N    0.301927   0.000371
    17  N   -0.040598   0.000769
    18  C   -0.004493  -0.030504
    19  C    0.007638   0.347585
    20  H    0.000000   0.000000
    21  H   -0.000002   0.000000
    22  H   -0.000119  -0.000004
    23  H    0.000000  -0.000000
    24  H   -0.000064   0.000046
    25  H    0.000000  -0.000000
    26  H    0.000000  -0.000070
    27  H    0.000011   0.000000
    28  H    0.000120   0.000000
    29  H    0.008827   0.000001
    30  H    0.006329   0.000002
    31  H    0.426111   0.000132
    32  H    0.000132   0.531943
 Mulliken charges:
               1
     1  N   -0.560303
     2  C    0.160979
     3  C    0.042533
     4  C   -0.264769
     5  C    0.102314
     6  C   -0.413426
     7  C    0.416371
     8  C   -0.402942
     9  C    0.019621
    10  C   -0.241806
    11  C   -0.203060
    12  C   -0.192893
    13  C   -0.209539
    14  C   -0.271197
    15  C    0.120060
    16  N   -0.145790
    17  N   -0.164702
    18  C    0.269347
    19  C   -0.266291
    20  H    0.267157
    21  H    0.221586
    22  H    0.203724
    23  H    0.065444
    24  H    0.120778
    25  H    0.121165
    26  H    0.094936
    27  H    0.157102
    28  H    0.225518
    29  H    0.127443
    30  H    0.126461
    31  H    0.300455
    32  H    0.173725
 Sum of Mulliken charges =  -0.00000
 Mulliken charges with hydrogens summed into heavy atoms:
               1
     1  N   -0.071560
     2  C    0.160979
     3  C    0.246257
     4  C   -0.199325
     5  C    0.223091
     6  C   -0.292261
     7  C    0.416371
     8  C   -0.308006
     9  C    0.019621
    10  C   -0.241806
    11  C   -0.203060
    12  C   -0.035791
    13  C    0.015979
    14  C   -0.143754
    15  C    0.246521
    16  N    0.154664
    17  N   -0.164702
    18  C    0.269347
    19  C   -0.092566
 Electronic spatial extent (au):  <R**2>=           5123.4510
 Charge=             -0.0000 electrons
 Dipole moment (field-independent basis, Debye):
    X=              3.1160    Y=              2.4361    Z=             -0.6127  Tot=              4.0024
 Quadrupole moment (field-independent basis, Debye-Ang):
   XX=            -93.9707   YY=           -107.6914   ZZ=           -114.5170
   XY=             -0.9731   XZ=              0.4004   YZ=             -2.1471
 Traceless Quadrupole moment (field-independent basis, Debye-Ang):
   XX=             11.4223   YY=             -2.2984   ZZ=             -9.1240
   XY=             -0.9731   XZ=              0.4004   YZ=             -2.1471
 Octapole moment (field-independent basis, Debye-Ang**2):
  XXX=             39.1249  YYY=             56.0881  ZZZ=             -4.4945  XYY=             33.4173
  XXY=             32.5568  XXZ=             -2.2130  XZZ=              6.0057  YZZ=              7.8053
  YYZ=            -20.5408  XYZ=             -2.1776
 Hexadecapole moment (field-independent basis, Debye-Ang**3):
 XXXX=          -4043.5132 YYYY=          -2185.6646 ZZZZ=           -236.1244 XXXY=           -103.4950
 XXXZ=            -94.2857 YYYX=             -4.8455 YYYZ=            -71.3570 ZZZX=              1.3013
 ZZZY=             -1.3260 XXYY=          -1227.2035 XXZZ=           -842.8921 YYZZ=           -439.9266
 XXYZ=             43.1025 YYXZ=             27.6948 ZZXY=             -6.9734
 N-N= 1.271416513734D+03 E-N=-4.354638949828D+03  KE= 7.757293612855D+02
 PrsmSu:  requested number of processors reduced to:  12 ShMem   1 Linda.
 Calling FoFJK, ICntrl=      2127 FMM=F ISym2X=0 I1Cent= 0 IOpClX= 0 NMat=1 NMatS=1 NMatT=0.
 ***** Axes restored to original set *****
 -------------------------------------------------------------------
 Center     Atomic                   Forces (Hartrees/Bohr)
 Number     Number              X              Y              Z
 -------------------------------------------------------------------
      1        7          -0.024688490    0.004130147   -0.020422435
      2        6           0.001074046    0.030163515    0.026479392
      3        6          -0.005949801   -0.039126382   -0.057365814
      4        6           0.020441390    0.010997520    0.054499332
      5        6          -0.052902321   -0.047865093    0.032874023
      6        6           0.011406459    0.005315279   -0.006044410
      7        6          -0.029876212    0.016182572    0.092852124
      8        6           0.109779945    0.001131242   -0.078131218
      9        6          -0.090847973    0.013561386    0.009685806
     10        6           0.113756301   -0.031242575   -0.028332508
     11        6          -0.029223842   -0.003555374    0.041631280
     12        6          -0.067327292    0.022915811    0.041948737
     13        6          -0.033817260   -0.028624174   -0.052807184
     14        6           0.031032686    0.095198046    0.025892457
     15        6           0.024912257   -0.042503127   -0.036938676
     16        7          -0.069957571    0.063696586   -0.011078460
     17        7          -0.159954402   -0.050989374   -0.031409677
     18        6           0.154369427   -0.027281654    0.006357192
     19        6           0.024772403    0.015801478    0.015455353
     20        1           0.019660247    0.010753033   -0.031546960
     21        1          -0.010466092   -0.002188506   -0.009639671
     22        1           0.031209946   -0.013257871   -0.011652273
     23        1          -0.003727612    0.024129069    0.035174817
     24        1           0.004062333   -0.001991388    0.001282447
     25        1           0.004990863    0.004935761    0.001215473
     26        1          -0.025725806   -0.005385688   -0.059763221
     27        1           0.046831686   -0.019542223   -0.001382970
     28        1           0.015064915   -0.024327151    0.070769980
     29        1           0.004107008    0.001748486   -0.026403417
     30        1          -0.005883625   -0.002067104   -0.008004277
     31        1           0.007289544   -0.008443432   -0.010680416
     32        1          -0.014413156    0.027731185    0.025485176
 -------------------------------------------------------------------
 Cartesian Forces:  Max     0.159954402 RMS     0.043473957

 GradGradGradGradGradGradGradGradGradGradGradGradGradGradGradGradGradGrad
 Berny optimization.
 FormGI is forming the generalized inverse of G from B-inverse, IUseBI=4.
 Internal  Forces:  Max     0.210432637 RMS     0.048150328
 Search for a local minimum.
 Step number   1 out of a maximum of  137
 All quantities printed in internal units (Hartrees-Bohrs-Radians)
 Mixed Optimization -- RFO/linear search
 Second derivative matrix not updated -- first step.
 ITU=  0
     Eigenvalues ---    0.00230   0.00230   0.00589   0.00598   0.00909
     Eigenvalues ---    0.00927   0.01014   0.01250   0.01561   0.01565
     Eigenvalues ---    0.01623   0.01880   0.02016   0.02298   0.02381
     Eigenvalues ---    0.02402   0.02428   0.02543   0.02665   0.02833
     Eigenvalues ---    0.02847   0.02871   0.02884   0.03065   0.03121
     Eigenvalues ---    0.03214   0.03798   0.04622   0.05017   0.06504
     Eigenvalues ---    0.07185   0.09989   0.12385   0.14847   0.15262
     Eigenvalues ---    0.15489   0.15805   0.15835   0.15915   0.15943
     Eigenvalues ---    0.15981   0.15997   0.16000   0.16000   0.16000
     Eigenvalues ---    0.17958   0.18648   0.20360   0.20982   0.21990
     Eigenvalues ---    0.22001   0.22007   0.22039   0.22067   0.22133
     Eigenvalues ---    0.22711   0.22800   0.24840   0.24970   0.24996
     Eigenvalues ---    0.25000   0.25000   0.25000   0.25000   0.29515
     Eigenvalues ---    0.30399   0.33094   0.33261   0.35764   0.36083
     Eigenvalues ---    0.36929   0.38087   0.39033   0.39600   0.40255
     Eigenvalues ---    0.40342   0.40964   0.42501   0.43103   0.47414
     Eigenvalues ---    0.48385   0.49779   0.59455   0.60360   0.60418
     Eigenvalues ---    0.60905   0.63214   0.73660   0.76013   1.35554
 RFO step:  Lambda=-4.04529977D-01 EMin= 2.30000000D-03
 Linear search not attempted -- first point.
 Maximum step size (   0.300) exceeded in Quadratic search.
    -- Step size scaled by   0.414
 Iteration  1 RMS(Cart)=  0.25130688 RMS(Int)=  0.01915335
 Iteration  2 RMS(Cart)=  0.25338103 RMS(Int)=  0.01093165
 Iteration  3 RMS(Cart)=  0.19380370 RMS(Int)=  0.00350027
 Iteration  4 RMS(Cart)=  0.00938685 RMS(Int)=  0.00013603
 Iteration  5 RMS(Cart)=  0.00002290 RMS(Int)=  0.00013589
 Iteration  6 RMS(Cart)=  0.00000000 RMS(Int)=  0.00013589
 Variable       Old X    -DE/DX   Delta X   Delta X   Delta X     New X
                                 (Linear)    (Quad)   (Total)
    R1        2.74239  -0.03696   0.00000  -0.01949  -0.01949   2.72290
    R2        1.97791  -0.03181   0.00000  -0.01630  -0.01630   1.96161
    R3        1.89268   0.01103   0.00000   0.00520   0.00520   1.89788
    R4        2.70263   0.04025   0.00000   0.02048   0.02048   2.72311
    R5        2.88941  -0.04169   0.00000  -0.02467  -0.02467   2.86474
    R6        2.51373   0.02925   0.00000   0.01212   0.01212   2.52584
    R7        2.08887   0.01723   0.00000   0.00970   0.00970   2.09858
    R8        2.60089   0.02704   0.00000   0.01241   0.01241   2.61330
    R9        1.99589   0.03139   0.00000   0.01635   0.01635   2.01224
   R10        2.48484   0.06635   0.00000   0.02650   0.02650   2.51134
   R11        2.03952  -0.00257   0.00000  -0.00139  -0.00139   2.03813
   R12        2.67543   0.05098   0.00000   0.02527   0.02527   2.70070
   R13        2.02653   0.00586   0.00000   0.00313   0.00313   2.02967
   R14        2.36853   0.15364   0.00000   0.05599   0.05603   2.42456
   R15        2.57184  -0.00545   0.00000  -0.00121  -0.00121   2.57063
   R16        3.44657   0.02700   0.00000   0.01294   0.01291   3.45948
   R17        2.39416  -0.04771   0.00000  -0.03249  -0.03249   2.36167
   R18        3.21441  -0.06989   0.00000  -0.04955  -0.04955   3.16487
   R19        3.18785  -0.02502   0.00000  -0.01753  -0.01753   3.17032
   R20        2.72100   0.00463   0.00000   0.00239   0.00239   2.72339
   R21        2.32110  -0.03884   0.00000  -0.02546  -0.02546   2.29564
   R22        2.71209   0.08449   0.00000   0.04335   0.04335   2.75544
   R23        2.25984  -0.05080   0.00000  -0.03215  -0.03215   2.22769
   R24        2.50611   0.06719   0.00000   0.02758   0.02758   2.53369
   R25        2.08596  -0.00481   0.00000  -0.00270  -0.00270   2.08326
   R26        2.50656  -0.01412   0.00000  -0.00580  -0.00580   2.50076
   R27        2.04453   0.00649   0.00000   0.00353   0.00353   2.04806
   R28        2.50231   0.05882   0.00000   0.02403   0.02403   2.52634
   R29        1.94990  -0.00792   0.00000  -0.00395  -0.00395   1.94594
   R30        2.17054   0.21043   0.00000   0.04951   0.04951   2.22005
   R31        2.40140   0.06625   0.00000   0.02356   0.02356   2.42495
   R32        2.13874  -0.02859   0.00000  -0.01671  -0.01671   2.12203
    A1        2.19695  -0.02725   0.00000  -0.02029  -0.02032   2.17663
    A2        2.07269   0.00205   0.00000   0.00120   0.00117   2.07386
    A3        1.87873   0.01787   0.00000   0.01276   0.01272   1.89146
    A4        1.82756   0.05418   0.00000   0.03443   0.03442   1.86198
    A5        2.43929  -0.06847   0.00000  -0.04330  -0.04332   2.39596
    A6        2.01152   0.01527   0.00000   0.00984   0.00985   2.02137
    A7        1.27899   0.04119   0.00000   0.03159   0.03153   1.31053
    A8        1.66347  -0.02375   0.00000  -0.01618  -0.01611   1.64735
    A9        2.08518  -0.12757   0.00000  -0.08461  -0.08460   2.00058
   A10        2.31271   0.03374   0.00000   0.02038   0.02040   2.33311
   A11        1.87546   0.09315   0.00000   0.06376   0.06372   1.93918
   A12        2.41208   0.08850   0.00000   0.05845   0.05848   2.47056
   A13        1.84270  -0.04357   0.00000  -0.02905  -0.02902   1.81368
   A14        2.01362  -0.04599   0.00000  -0.03088  -0.03085   1.98277
   A15        1.63895  -0.02952   0.00000  -0.01982  -0.01984   1.61911
   A16        2.31549   0.02476   0.00000   0.01700   0.01693   2.33242
   A17        2.27218   0.00050   0.00000  -0.00112  -0.00110   2.27108
   A18        2.44858   0.10712   0.00000   0.06164   0.06160   2.51018
   A19        2.29216  -0.06676   0.00000  -0.04838  -0.04842   2.24375
   A20        1.63014   0.05866   0.00000   0.04121   0.04118   1.67132
   A21        2.45279   0.04609   0.00000   0.03580   0.03574   2.48853
   A22        2.54711  -0.04974   0.00000  -0.02211  -0.02220   2.52490
   A23        2.75366  -0.00325   0.00000   0.00927   0.00940   2.76307
   A24        1.38282   0.17832   0.00000   0.11283   0.11283   1.49565
   A25        1.42664   0.07513   0.00000   0.05511   0.05511   1.48175
   A26        1.59028   0.01556   0.00000   0.01561   0.01561   1.60589
   A27        1.50248   0.05539   0.00000   0.04732   0.04732   1.54980
   A28        1.84746  -0.00036   0.00000  -0.00013  -0.00013   1.84733
   A29        1.88997   0.01103   0.00000   0.00859   0.00860   1.89857
   A30        2.14254  -0.01098   0.00000  -0.00864  -0.00864   2.13391
   A31        2.08741  -0.05634   0.00000  -0.03755  -0.03760   2.04981
   A32        2.15008   0.02563   0.00000   0.01657   0.01652   2.16660
   A33        1.99210   0.02428   0.00000   0.01549   0.01545   2.00755
   A34        2.10982   0.08134   0.00000   0.05382   0.05378   2.16359
   A35        2.00151  -0.02986   0.00000  -0.01916  -0.01921   1.98230
   A36        2.16917  -0.05286   0.00000  -0.03604  -0.03608   2.13309
   A37        1.84087  -0.06494   0.00000  -0.04109  -0.04109   1.79978
   A38        2.68609  -0.10487   0.00000  -0.06635  -0.06635   2.61974
   A39        1.98904  -0.05710   0.00000  -0.03787  -0.03787   1.95117
   A40        2.34296   0.00415   0.00000   0.00103   0.00103   2.34399
   A41        1.95073   0.05287   0.00000   0.03676   0.03676   1.98749
   A42        2.94246   0.01743   0.00000   0.01541   0.01542   2.95788
   A43        3.09276   0.07094   0.00000   0.06293   0.06293   3.15569
   A44        3.03671  -0.02114   0.00000  -0.02126  -0.02147   3.01524
   A45        2.97892  -0.00954   0.00000  -0.00955  -0.00955   2.96937
    D1       -0.79237   0.00834   0.00000   0.00759   0.00755  -0.78482
    D2        2.46740  -0.00805   0.00000  -0.00710  -0.00705   2.46035
    D3        2.95237   0.01681   0.00000   0.01584   0.01579   2.96815
    D4       -0.07105   0.00042   0.00000   0.00116   0.00119  -0.06986
    D5        2.51675   0.00457   0.00000   0.00309   0.00329   2.52003
    D6       -0.70915   0.00879   0.00000   0.00882   0.00959  -0.69956
    D7        2.90772   0.01242   0.00000   0.01168   0.01133   2.91905
    D8       -0.44397  -0.00834   0.00000  -0.00841  -0.00837  -0.45234
    D9       -0.30391   0.00770   0.00000   0.00846   0.00792  -0.29599
   D10        2.62758  -0.01306   0.00000  -0.01164  -0.01178   2.61580
   D11        0.37018  -0.00138   0.00000  -0.00203  -0.00147   0.36871
   D12       -2.94249  -0.00116   0.00000  -0.00190  -0.00151  -2.94400
   D13        2.62724  -0.01090   0.00000  -0.01066  -0.01086   2.61637
   D14       -0.31036   0.00753   0.00000   0.00695   0.00678  -0.30358
   D15       -0.38241  -0.01129   0.00000  -0.01057  -0.01041  -0.39282
   D16        2.96318   0.00715   0.00000   0.00703   0.00724   2.97041
   D17       -2.44436   0.03816   0.00000   0.03605   0.03610  -2.40826
   D18        0.35654   0.02204   0.00000   0.02173   0.02165   0.37818
   D19        0.47954   0.02058   0.00000   0.01868   0.01877   0.49831
   D20       -3.00274   0.00446   0.00000   0.00436   0.00431  -2.99843
   D21       -2.80805   0.00317   0.00000   0.00351   0.00372  -2.80433
   D22        0.33849   0.01843   0.00000   0.01721   0.01715   0.35564
   D23        0.66097   0.01101   0.00000   0.01159   0.01165   0.67262
   D24       -2.47568   0.02627   0.00000   0.02529   0.02508  -2.45060
   D25       -0.17669   0.01488   0.00000   0.01260   0.01303  -0.16366
   D26       -0.57441   0.02515   0.00000   0.02081   0.02094  -0.55347
   D27        0.28566   0.01027   0.00000   0.00860   0.00857   0.29423
   D28       -2.49904   0.00568   0.00000   0.00444   0.00416  -2.49488
   D29       -2.16220  -0.02661   0.00000  -0.02081  -0.02055  -2.18275
   D30       -0.40069   0.00321   0.00000  -0.00300  -0.00326  -0.40395
   D31        3.07768   0.00492   0.00000   0.00494   0.00493   3.08261
   D32       -0.09976   0.00237   0.00000   0.00248   0.00250  -0.09727
   D33        1.88779  -0.01053   0.00000  -0.01038  -0.01038   1.87742
   D34        1.53892  -0.00508   0.00000  -0.00442  -0.00442   1.53451
   D35       -0.78819   0.00133   0.00000   0.00058   0.00057  -0.78761
   D36       -1.43999   0.00446   0.00000   0.00513   0.00513  -1.43486
   D37        2.51608   0.01087   0.00000   0.01012   0.01012   2.52620
   D38       -1.93909   0.02082   0.00000   0.02000   0.02002  -1.91907
   D39        0.83613   0.00390   0.00000   0.00461   0.00459   0.84072
   D40        0.23891   0.02753   0.00000   0.02530   0.02532   0.26423
   D41        3.01412   0.01061   0.00000   0.00991   0.00989   3.02402
   D42       -3.11955  -0.01959   0.00000  -0.01876  -0.01878  -3.13834
   D43        0.09744   0.00241   0.00000   0.00244   0.00251   0.09995
   D44        0.35677  -0.00630   0.00000  -0.00616  -0.00623   0.35054
   D45       -2.70942   0.01571   0.00000   0.01503   0.01505  -2.69436
   D46       -3.06010   0.04713   0.00000   0.04583   0.04575  -3.01436
   D47       -0.00145   0.02477   0.00000   0.02382   0.02391   0.02246
   D48        0.28113   0.07584   0.00000   0.06907   0.06907   0.35020
   D49        0.25426   0.03445   0.00000   0.03224   0.03223   0.28649
   D50       -2.85968   0.03689   0.00000   0.03452   0.03453  -2.82514
         Item               Value     Threshold  Converged?
 Maximum Force            0.210433     0.000450     NO 
 RMS     Force            0.048150     0.000300     NO 
 Maximum Displacement     2.595049     0.001800     NO 
 RMS     Displacement     0.688463     0.001200     NO 
 Predicted change in Energy=-1.544928D-01
 GradGradGradGradGradGradGradGradGradGradGradGradGradGradGradGradGradGrad

                          Input orientation:                          
 ---------------------------------------------------------------------
 Center     Atomic      Atomic             Coordinates (Angstroms)
 Number     Number       Type             X           Y           Z
 ---------------------------------------------------------------------
      1          7           0        0.396241   -0.279766   -1.620963
      2          6           0        1.585657   -0.300827   -2.434005
      3          6           0        2.705086   -0.200848   -1.532126
      4          6           0        3.903055   -0.125031   -0.944187
      5          6           0        4.969328   -0.441319   -1.766035
      6          6           0        6.254541   -0.162457   -1.957238
      7          6           0        6.102356   -0.105674   -3.377123
      8          6           0        6.738600   -0.160674   -4.489919
      9          6           0        4.966248    0.082412   -4.101244
     10          6           0        3.313183   -0.183068   -4.143287
     11          6           0        1.925139   -0.289664   -3.911415
     12          6           0        0.479273    0.792600   -2.827450
     13          6           0       -0.898195    0.764943   -3.250238
     14          6           0       -0.536265    1.089085   -4.625026
     15          6           0       -0.292785   -0.084523   -5.225883
     16          7           0        0.962075   -0.357410   -5.545420
     17          7           0        1.350660   -1.484760   -6.149854
     18          6           0        2.522823   -1.409901   -6.125708
     19          6           0        3.595737   -0.912834   -5.627251
     20          1           0        0.267432   -0.825933   -0.747674
     21          1           0       -0.496647   -0.187882   -2.071471
     22          1           0        3.051330   -0.875095   -2.343765
     23          1           0        4.239884    0.253107   -0.007476
     24          1           0        4.514411   -0.967832   -2.590090
     25          1           0        7.028262    0.235630   -1.327576
     26          1           0        7.880481   -0.119745   -3.983666
     27          1           0        0.176892    1.833297   -2.278584
     28          1           0       -1.995849    0.542236   -3.617970
     29          1           0        0.200865    1.908742   -4.614126
     30          1           0       -0.948517   -0.945430   -5.167188
     31          1           0        1.635585    0.342888   -5.204322
     32          1           0        4.499293   -1.031978   -6.283270
 ---------------------------------------------------------------------
[...]
 Requested convergence on MAX density matrix=1.00D-06.
 Requested convergence on             energy=1.00D-06.
 No special actions if energy rises.
 Integral accuracy reduced to 1.0D-05 until final iterations.
 Initial convergence to 1.0D-05 achieved.  Increase integral accuracy.
 EnCoef did     8 forward-backward iterations
 SCF Done:  E(RB3LYP) =  -781.116764928     A.U. after   17 cycles
            NFock= 17  Conv=0.97D-08     -V/T= 2.0073
 PrsmSu:  requested number of processors reduced to:  13 ShMem   1 Linda.
 Calling FoFJK, ICntrl=      2127 FMM=F ISym2X=0 I1Cent= 0 IOpClX= 0 NMat=1 NMatS=1 NMatT=0.
 ***** Axes restored to original set *****
 -------------------------------------------------------------------
 Center     Atomic                   Forces (Hartrees/Bohr)
 Number     Number              X              Y              Z
 -------------------------------------------------------------------
      1        7           0.002558641    0.011691666    0.008788882
      2        6          -0.015508341   -0.002692328    0.005872346
      3        6           0.004632887   -0.008073948   -0.023363944
      4        6           0.009166750   -0.002648302   -0.008198661
      5        6          -0.013670086   -0.018616432    0.034603753
      6        6           0.013571216    0.019891892   -0.023152522
      7        6           0.008319630    0.008494789    0.016258519
      8        6          -0.032517913    0.014272753    0.053623833
      9        6           0.051756539   -0.030395722   -0.029144934
     10        6           0.010967551   -0.000464110   -0.014749754
     11        6          -0.017766306    0.023814537    0.018124589
     12        6          -0.008933948    0.024602215    0.004155169
     13        6           0.028378531   -0.006357813   -0.037075861
     14        6           0.005785572   -0.024236276    0.012703564
     15        6          -0.011979268    0.010341394    0.014367724
     16        7          -0.011082635    0.007319343   -0.013578727
     17        7          -0.050743143   -0.017749699    0.000133673
     18        6           0.041209466    0.007074213   -0.007610924
     19        6           0.019599293   -0.004492354   -0.006037519
     20        1          -0.000421112    0.002928998    0.002345110
     21        1          -0.002119484   -0.005718053    0.000384529
     22        1          -0.018338098   -0.016183260    0.010393639
     23        1          -0.000807867    0.005921825   -0.005076249
     24        1          -0.002375168   -0.001766502    0.004028329
     25        1          -0.001528001    0.001854029    0.000139873
     26        1           0.003339156    0.000997493   -0.032275280
     27        1           0.004807313   -0.009097292    0.016011306
     28        1          -0.013983959    0.002233635    0.001325242
     29        1          -0.006375346    0.004568510    0.001428952
     30        1           0.003392114   -0.000859450   -0.000194960
     31        1          -0.000310226    0.000248767   -0.000538603
     32        1           0.000976244    0.003095485   -0.003691092
 -------------------------------------------------------------------
 Cartesian Forces:  Max     0.053623833 RMS     0.016743302

 GradGradGradGradGradGradGradGradGradGradGradGradGradGradGradGradGradGrad
 Berny optimization.
 Using GEDIIS/GDIIS optimizer.
 FormGI is forming the generalized inverse of G from B-inverse, IUseBI=4.
 Internal  Forces:  Max     0.222177222 RMS     0.045485829
 Search for a local minimum.
 Step number  16 out of a maximum of  137
 All quantities printed in internal units (Hartrees-Bohrs-Radians)
 Mixed Optimization -- RFO/linear search
 Update second derivatives using D2CorX and points   15   16
 DE= -4.40D-02 DEPred=-5.31D-02 R= 8.30D-01
 TightC=F SS=  1.41D+00  RLast= 4.73D-01 DXNew= 8.4853D-01 1.4199D+00
 Trust test= 8.30D-01 RLast= 4.73D-01 DXMaxT set to 8.49D-01
 ITU=  1  1  1  0  0  0  0  1  0 -1 -1  1  1  0 -1  0
 Use linear search instead of GDIIS.
     Eigenvalues ---    0.00190   0.00231   0.00287   0.00579   0.00747
     Eigenvalues ---    0.00909   0.00944   0.01029   0.01436   0.01638
     Eigenvalues ---    0.01876   0.02117   0.02172   0.02296   0.02462
     Eigenvalues ---    0.02502   0.02592   0.02658   0.02716   0.02735
     Eigenvalues ---    0.02852   0.02943   0.03036   0.03087   0.03429
     Eigenvalues ---    0.03881   0.04243   0.05328   0.06136   0.09454
     Eigenvalues ---    0.10398   0.12660   0.13410   0.14192   0.14473
     Eigenvalues ---    0.15004   0.15218   0.15737   0.15884   0.15962
     Eigenvalues ---    0.15981   0.16040   0.16115   0.16125   0.17171
     Eigenvalues ---    0.18767   0.19808   0.20762   0.21575   0.22122
     Eigenvalues ---    0.22339   0.22703   0.22781   0.22915   0.23118
     Eigenvalues ---    0.23959   0.24715   0.24925   0.26491   0.28740
     Eigenvalues ---    0.30408   0.33070   0.33239   0.33923   0.35765
     Eigenvalues ---    0.36078   0.36917   0.37736   0.39099   0.39638
     Eigenvalues ---    0.40195   0.40998   0.42441   0.42605   0.43834
     Eigenvalues ---    0.47233   0.47848   0.49690   0.52663   0.57381
     Eigenvalues ---    0.59198   0.61214   0.62812   0.66757   0.78291
     Eigenvalues ---    1.08483   1.57750   7.13826  31.70946 456.93270
 RFO step:  Lambda=-7.59690253D-02 EMin= 1.90284772D-03
 Quartic linear search produced a step of  0.62643.
 Iteration  1 RMS(Cart)=  0.03615636 RMS(Int)=  0.39333223
 Iteration  2 RMS(Cart)=  0.11972297 RMS(Int)=  0.38948430
 Iteration  3 RMS(Cart)=  0.09663884 RMS(Int)=  0.38428476
 Iteration  4 RMS(Cart)=  0.06238180 RMS(Int)=  0.36504545
 Iteration  5 RMS(Cart)=  0.02943466 RMS(Int)=  0.35521111
 Iteration  6 RMS(Cart)=  0.01037550 RMS(Int)=  0.35166389
 Iteration  7 RMS(Cart)=  0.00715194 RMS(Int)=  0.34906613
 Iteration  8 RMS(Cart)=  0.00596613 RMS(Int)=  0.34674017
 Iteration  9 RMS(Cart)=  0.00528661 RMS(Int)=  0.34451353
 Iteration 10 RMS(Cart)=  0.00480857 RMS(Int)=  0.34230350
 Iteration 11 RMS(Cart)=  0.00443929 RMS(Int)=  0.34004004
 Iteration 12 RMS(Cart)=  0.00412306 RMS(Int)=  0.33761425
 Iteration 13 RMS(Cart)=  0.00384272 RMS(Int)=  0.33473070
 Iteration 14 RMS(Cart)=  0.00361419 RMS(Int)=  0.32906747
 Iteration 15 RMS(Cart)=  0.00339991 RMS(Int)=  0.07294933
 New curvilinear step failed, DQL= 4.43D+00 SP=-6.51D-02.
 ITry= 1 IFail=1 DXMaxC= 1.10D+00 DCOld= 1.00D+10 DXMaxT= 8.49D-01 DXLimC= 3.00D+00 Rises=F
 Iteration  1 RMS(Cart)=  0.03185263 RMS(Int)=  0.39273424
 Iteration  2 RMS(Cart)=  0.03200967 RMS(Int)=  0.39159485
 Iteration  3 RMS(Cart)=  0.02513386 RMS(Int)=  0.39072274
 Iteration  4 RMS(Cart)=  0.02067317 RMS(Int)=  0.39002306
 Iteration  5 RMS(Cart)=  0.01753760 RMS(Int)=  0.38944433
 Iteration  6 RMS(Cart)=  0.01553087 RMS(Int)=  0.38894343
 Iteration  7 RMS(Cart)=  0.01428840 RMS(Int)=  0.38849240
 Iteration  8 RMS(Cart)=  0.01365857 RMS(Int)=  0.38807019
 Iteration  9 RMS(Cart)=  0.01028762 RMS(Int)=  0.38775949
 Iteration 10 RMS(Cart)=  0.00739892 RMS(Int)=  0.38754027
 Iteration 11 RMS(Cart)=  0.00572712 RMS(Int)=  0.38737299
 Iteration 12 RMS(Cart)=  0.00465844 RMS(Int)=  0.38723844
 Iteration 13 RMS(Cart)=  0.00392483 RMS(Int)=  0.38712614
 Iteration 14 RMS(Cart)=  0.00339372 RMS(Int)=  0.38702981
 Iteration 15 RMS(Cart)=  0.00299312 RMS(Int)=  0.38694544
 Iteration 16 RMS(Cart)=  0.00268091 RMS(Int)=  0.38687033
 Iteration 17 RMS(Cart)=  0.00243104 RMS(Int)=  0.38680260
 Iteration 18 RMS(Cart)=  0.00222666 RMS(Int)=  0.38674088
 Iteration 19 RMS(Cart)=  0.00205639 RMS(Int)=  0.38668414
 Iteration 20 RMS(Cart)=  0.00191232 RMS(Int)=  0.38663160
 Iteration 21 RMS(Cart)=  0.00178878 RMS(Int)=  0.38658265
 Iteration 22 RMS(Cart)=  0.00168163 RMS(Int)=  0.38653681
 Iteration 23 RMS(Cart)=  0.00158775 RMS(Int)=  0.38649367
 Iteration 24 RMS(Cart)=  0.00150476 RMS(Int)=  0.38645293
 Iteration 25 RMS(Cart)=  0.00143083 RMS(Int)=  0.38641431
 Iteration 26 RMS(Cart)=  0.00136451 RMS(Int)=  0.38637759
 Iteration 27 RMS(Cart)=  0.00130465 RMS(Int)=  0.38634258
 Iteration 28 RMS(Cart)=  0.00125030 RMS(Int)=  0.38630912
 Iteration 29 RMS(Cart)=  0.00120073 RMS(Int)=  0.38627706
 Iteration 30 RMS(Cart)=  0.00115529 RMS(Int)=  0.38624630
 Iteration 31 RMS(Cart)=  0.00111347 RMS(Int)=  0.38621672
 Iteration 32 RMS(Cart)=  0.00107483 RMS(Int)=  0.38618824
 Iteration 33 RMS(Cart)=  0.00103902 RMS(Int)=  0.38616076
 Iteration 34 RMS(Cart)=  0.00100571 RMS(Int)=  0.38613422
 Iteration 35 RMS(Cart)=  0.00097464 RMS(Int)=  0.38610856
 Iteration 36 RMS(Cart)=  0.00094557 RMS(Int)=  0.38608371
 Iteration 37 RMS(Cart)=  0.00091832 RMS(Int)=  0.38605962
 Iteration 38 RMS(Cart)=  0.00089271 RMS(Int)=  0.38603625
 Iteration 39 RMS(Cart)=  0.00086858 RMS(Int)=  0.38601354
 Iteration 40 RMS(Cart)=  0.00084580 RMS(Int)=  0.38599148
 Iteration 41 RMS(Cart)=  0.00082427 RMS(Int)=  0.38597001
 Iteration 42 RMS(Cart)=  0.00080386 RMS(Int)=  0.38594911
 Iteration 43 RMS(Cart)=  0.00078450 RMS(Int)=  0.38592874
 Iteration 44 RMS(Cart)=  0.00076609 RMS(Int)=  0.38590889
 Iteration 45 RMS(Cart)=  0.00074857 RMS(Int)=  0.38588951
 Iteration 46 RMS(Cart)=  0.00073187 RMS(Int)=  0.38587060
 Iteration 47 RMS(Cart)=  0.00071594 RMS(Int)=  0.38585212
 Iteration 48 RMS(Cart)=  0.00070070 RMS(Int)=  0.38583407
 Iteration 49 RMS(Cart)=  0.00068613 RMS(Int)=  0.38581641
 Iteration 50 RMS(Cart)=  0.00067217 RMS(Int)=  0.38579914
 Iteration 51 RMS(Cart)=  0.00065878 RMS(Int)=  0.38578223
 Iteration 52 RMS(Cart)=  0.00064593 RMS(Int)=  0.38576567
 Iteration 53 RMS(Cart)=  0.00063359 RMS(Int)=  0.38574945
 Iteration 54 RMS(Cart)=  0.00062171 RMS(Int)=  0.38573356
 Iteration 55 RMS(Cart)=  0.00061029 RMS(Int)=  0.38571797
 Iteration 56 RMS(Cart)=  0.00059928 RMS(Int)=  0.38570269
 Iteration 57 RMS(Cart)=  0.00058867 RMS(Int)=  0.38568769
 Iteration 58 RMS(Cart)=  0.00057843 RMS(Int)=  0.38567297
 Iteration 59 RMS(Cart)=  0.00056854 RMS(Int)=  0.38565851
 Iteration 60 RMS(Cart)=  0.00055899 RMS(Int)=  0.38564431
 Iteration 61 RMS(Cart)=  0.00054976 RMS(Int)=  0.38563037
 Iteration 62 RMS(Cart)=  0.00054082 RMS(Int)=  0.38561666
 Iteration 63 RMS(Cart)=  0.00053217 RMS(Int)=  0.38560319
 Iteration 64 RMS(Cart)=  0.00052380 RMS(Int)=  0.38558994
 Iteration 65 RMS(Cart)=  0.00051568 RMS(Int)=  0.38557691
 Iteration 66 RMS(Cart)=  0.00050780 RMS(Int)=  0.38556409
 Iteration 67 RMS(Cart)=  0.00050016 RMS(Int)=  0.38555148
 Iteration 68 RMS(Cart)=  0.00049275 RMS(Int)=  0.38553906
 Iteration 69 RMS(Cart)=  0.00048555 RMS(Int)=  0.38552684
 Iteration 70 RMS(Cart)=  0.00047855 RMS(Int)=  0.38551480
 Iteration 71 RMS(Cart)=  0.00047175 RMS(Int)=  0.38550295
 Iteration 72 RMS(Cart)=  0.00046513 RMS(Int)=  0.38549127
 Iteration 73 RMS(Cart)=  0.00045869 RMS(Int)=  0.38547976
 Iteration 74 RMS(Cart)=  0.00045243 RMS(Int)=  0.38546842
 Iteration 75 RMS(Cart)=  0.00044633 RMS(Int)=  0.38545724
 Iteration 76 RMS(Cart)=  0.00044038 RMS(Int)=  0.38544622
 Iteration 77 RMS(Cart)=  0.00043459 RMS(Int)=  0.38543535
 Iteration 78 RMS(Cart)=  0.00042895 RMS(Int)=  0.38542463
 Iteration 79 RMS(Cart)=  0.00042344 RMS(Int)=  0.38541405
 Iteration 80 RMS(Cart)=  0.00041807 RMS(Int)=  0.38540362
 Iteration 81 RMS(Cart)=  0.00041283 RMS(Int)=  0.38539333
 Iteration 82 RMS(Cart)=  0.00040771 RMS(Int)=  0.38538317
 Iteration 83 RMS(Cart)=  0.00040271 RMS(Int)=  0.38537314
 Iteration 84 RMS(Cart)=  0.00039783 RMS(Int)=  0.38536324
 Iteration 85 RMS(Cart)=  0.00039306 RMS(Int)=  0.38535347
 Iteration 86 RMS(Cart)=  0.00038840 RMS(Int)=  0.38534382
 Iteration 87 RMS(Cart)=  0.00038385 RMS(Int)=  0.38533429
 Iteration 88 RMS(Cart)=  0.00037939 RMS(Int)=  0.38532487
 Iteration 89 RMS(Cart)=  0.00037503 RMS(Int)=  0.38531557
 Iteration 90 RMS(Cart)=  0.00037077 RMS(Int)=  0.38530638
 Iteration 91 RMS(Cart)=  0.00036660 RMS(Int)=  0.38529730
 Iteration 92 RMS(Cart)=  0.00036251 RMS(Int)=  0.38528833
 Iteration 93 RMS(Cart)=  0.00035851 RMS(Int)=  0.38527946
 Iteration 94 RMS(Cart)=  0.00035459 RMS(Int)=  0.38527069
 Iteration 95 RMS(Cart)=  0.00035076 RMS(Int)=  0.38526202
 Iteration 96 RMS(Cart)=  0.00034700 RMS(Int)=  0.38525345
 Iteration 97 RMS(Cart)=  0.00034331 RMS(Int)=  0.38524498
 Iteration 98 RMS(Cart)=  0.00033970 RMS(Int)=  0.38523660
 Iteration 99 RMS(Cart)=  0.00033616 RMS(Int)=  0.38522831
 Iteration100 RMS(Cart)=  0.00033269 RMS(Int)=  0.38522011
 New curvilinear step not converged.
 ITry= 2 IFail=1 DXMaxC= 8.58D-01 DCOld= 1.00D+10 DXMaxT= 8.49D-01 DXLimC= 3.00D+00 Rises=F
 Iteration  1 RMS(Cart)=  0.02768586 RMS(Int)=  0.39223715
 Iteration  2 RMS(Cart)=  0.01004671 RMS(Int)=  0.39186667
 Iteration  3 RMS(Cart)=  0.00913844 RMS(Int)=  0.39153249
 Iteration  4 RMS(Cart)=  0.00827307 RMS(Int)=  0.39123276
 Iteration  5 RMS(Cart)=  0.00753184 RMS(Int)=  0.39096225
 Iteration  6 RMS(Cart)=  0.00690514 RMS(Int)=  0.39071624
 Iteration  7 RMS(Cart)=  0.00636845 RMS(Int)=  0.39049105
 Iteration  8 RMS(Cart)=  0.00590380 RMS(Int)=  0.39028376
 Iteration  9 RMS(Cart)=  0.00549769 RMS(Int)=  0.39009199
 Iteration 10 RMS(Cart)=  0.00513983 RMS(Int)=  0.38991381
 Iteration 11 RMS(Cart)=  0.00482221 RMS(Int)=  0.38974762
 Iteration 12 RMS(Cart)=  0.00453849 RMS(Int)=  0.38959206
 Iteration 13 RMS(Cart)=  0.00428361 RMS(Int)=  0.38944601
 Iteration 14 RMS(Cart)=  0.00405345 RMS(Int)=  0.38930850
 Iteration 15 RMS(Cart)=  0.00384465 RMS(Int)=  0.38917868
 Iteration 16 RMS(Cart)=  0.00365442 RMS(Int)=  0.38905584
 Iteration 17 RMS(Cart)=  0.00344303 RMS(Int)=  0.38894079
 Iteration 18 RMS(Cart)=  0.00324481 RMS(Int)=  0.38883304
 Iteration 19 RMS(Cart)=  0.00306873 RMS(Int)=  0.38873172
 Iteration 20 RMS(Cart)=  0.00291110 RMS(Int)=  0.38863613
 Iteration 21 RMS(Cart)=  0.00276901 RMS(Int)=  0.38854569
 Iteration 22 RMS(Cart)=  0.00264019 RMS(Int)=  0.38845988
 Iteration 23 RMS(Cart)=  0.00252277 RMS(Int)=  0.38837828
 Iteration 24 RMS(Cart)=  0.00241525 RMS(Int)=  0.38830051
 Iteration 25 RMS(Cart)=  0.00231637 RMS(Int)=  0.38822624
 Iteration 26 RMS(Cart)=  0.00222510 RMS(Int)=  0.38815520
 Iteration 27 RMS(Cart)=  0.00214056 RMS(Int)=  0.38808713
 Iteration 28 RMS(Cart)=  0.00206201 RMS(Int)=  0.38802181
 Iteration 29 RMS(Cart)=  0.00198881 RMS(Int)=  0.38795904
 Iteration 30 RMS(Cart)=  0.00192043 RMS(Int)=  0.38789864
 Iteration 31 RMS(Cart)=  0.00185638 RMS(Int)=  0.38784045
 Iteration 32 RMS(Cart)=  0.00179627 RMS(Int)=  0.38778433
 Iteration 33 RMS(Cart)=  0.00173973 RMS(Int)=  0.38773015
 Iteration 34 RMS(Cart)=  0.00168644 RMS(Int)=  0.38767778
 Iteration 35 RMS(Cart)=  0.00163613 RMS(Int)=  0.38762712
 Iteration 36 RMS(Cart)=  0.00158855 RMS(Int)=  0.38757806
 Iteration 37 RMS(Cart)=  0.00154348 RMS(Int)=  0.38753052
 Iteration 38 RMS(Cart)=  0.00150073 RMS(Int)=  0.38748441
 Iteration 39 RMS(Cart)=  0.00146012 RMS(Int)=  0.38743965
 Iteration 40 RMS(Cart)=  0.00142149 RMS(Int)=  0.38739615
 Iteration 41 RMS(Cart)=  0.00138469 RMS(Int)=  0.38735386
 Iteration 42 RMS(Cart)=  0.00134961 RMS(Int)=  0.38731268
 Iteration 43 RMS(Cart)=  0.00131611 RMS(Int)=  0.38727255
 Iteration 44 RMS(Cart)=  0.00128411 RMS(Int)=  0.38723333
 Iteration 45 RMS(Cart)=  0.00125348 RMS(Int)=  0.38719480
 Iteration 46 RMS(Cart)=  0.00122413 RMS(Int)=  0.38715522
 Iteration 47 RMS(Cart)=  0.00119587 RMS(Int)=  0.04342319
 New curvilinear step failed, DQL= 4.37D+00 SP=-1.59D-01.
 ITry= 3 IFail=1 DXMaxC= 5.59D-01 DCOld= 1.00D+10 DXMaxT= 8.49D-01 DXLimC= 3.00D+00 Rises=F
 Iteration  1 RMS(Cart)=  0.02369480 RMS(Int)=  0.39183985
 Iteration  2 RMS(Cart)=  0.00597704 RMS(Int)=  0.39161306
 Iteration  3 RMS(Cart)=  0.00560183 RMS(Int)=  0.39140167
 Iteration  4 RMS(Cart)=  0.00526654 RMS(Int)=  0.39120398
 Iteration  5 RMS(Cart)=  0.00496524 RMS(Int)=  0.39101852
 Iteration  6 RMS(Cart)=  0.00469312 RMS(Int)=  0.39084403
 Iteration  7 RMS(Cart)=  0.00444626 RMS(Int)=  0.39067946
 Iteration  8 RMS(Cart)=  0.00422137 RMS(Int)=  0.39052387
 Iteration  9 RMS(Cart)=  0.00401572 RMS(Int)=  0.39037646
 Iteration 10 RMS(Cart)=  0.00382702 RMS(Int)=  0.39023651
 Iteration 11 RMS(Cart)=  0.00365331 RMS(Int)=  0.39010339
 Iteration 12 RMS(Cart)=  0.00349294 RMS(Int)=  0.38997657
 Iteration 13 RMS(Cart)=  0.00334379 RMS(Int)=  0.38985558
 Iteration 14 RMS(Cart)=  0.00319044 RMS(Int)=  0.38974073
 Iteration 15 RMS(Cart)=  0.00304971 RMS(Int)=  0.38963149
 Iteration 16 RMS(Cart)=  0.00292006 RMS(Int)=  0.38952739
 Iteration 17 RMS(Cart)=  0.00280024 RMS(Int)=  0.38942802
 Iteration 18 RMS(Cart)=  0.00268915 RMS(Int)=  0.38933300
 Iteration 19 RMS(Cart)=  0.00258588 RMS(Int)=  0.38924200
 Iteration 20 RMS(Cart)=  0.00248961 RMS(Int)=  0.38915474
 Iteration 21 RMS(Cart)=  0.00239966 RMS(Int)=  0.38907095
 Iteration 22 RMS(Cart)=  0.00231544 RMS(Int)=  0.38899039
 Iteration 23 RMS(Cart)=  0.00223640 RMS(Int)=  0.38891285
 Iteration 24 RMS(Cart)=  0.00216210 RMS(Int)=  0.38883812
 Iteration 25 RMS(Cart)=  0.00209211 RMS(Int)=  0.38876604
 Iteration 26 RMS(Cart)=  0.00202608 RMS(Int)=  0.38869641
 Iteration 27 RMS(Cart)=  0.00196370 RMS(Int)=  0.38862909
 Iteration 28 RMS(Cart)=  0.00190464 RMS(Int)=  0.38856392
 Iteration 29 RMS(Cart)=  0.00184868 RMS(Int)=  0.38850068
 Iteration 30 RMS(Cart)=  0.00179556 RMS(Int)=  0.38843905
 Iteration 31 RMS(Cart)=  0.00174507 RMS(Int)=  0.38837573
 Iteration 32 RMS(Cart)=  0.00169676 RMS(Int)=  0.04448451
 New curvilinear step failed, DQL= 4.38D+00 SP=-1.14D-01.
 ITry= 4 IFail=1 DXMaxC= 3.83D-01 DCOld= 1.00D+10 DXMaxT= 8.49D-01 DXLimC= 3.00D+00 Rises=F
 Iteration  1 RMS(Cart)=  0.02005012 RMS(Int)=  0.39154570
 Iteration  2 RMS(Cart)=  0.00411714 RMS(Int)=  0.39138277
 Iteration  3 RMS(Cart)=  0.00393116 RMS(Int)=  0.39122768
 Iteration  4 RMS(Cart)=  0.00375899 RMS(Int)=  0.39107981
 Iteration  5 RMS(Cart)=  0.00359923 RMS(Int)=  0.39093862
 Iteration  6 RMS(Cart)=  0.00345065 RMS(Int)=  0.39080362
 Iteration  7 RMS(Cart)=  0.00330122 RMS(Int)=  0.39067503
 Iteration  8 RMS(Cart)=  0.00316121 RMS(Int)=  0.39055244
 Iteration  9 RMS(Cart)=  0.00303132 RMS(Int)=  0.39043537
 Iteration 10 RMS(Cart)=  0.00291053 RMS(Int)=  0.39032343
 Iteration 11 RMS(Cart)=  0.00279795 RMS(Int)=  0.39021624
 Iteration 12 RMS(Cart)=  0.00269279 RMS(Int)=  0.39011346
 Iteration 13 RMS(Cart)=  0.00259436 RMS(Int)=  0.39001479
 Iteration 14 RMS(Cart)=  0.00250206 RMS(Int)=  0.38991996
 Iteration 15 RMS(Cart)=  0.00241535 RMS(Int)=  0.38982871
 Iteration 16 RMS(Cart)=  0.00233375 RMS(Int)=  0.38974083
 Iteration 17 RMS(Cart)=  0.00225685 RMS(Int)=  0.38965610
 Iteration 18 RMS(Cart)=  0.00218425 RMS(Int)=  0.38957434
 Iteration 19 RMS(Cart)=  0.00211563 RMS(Int)=  0.38949537
 Iteration 20 RMS(Cart)=  0.00205067 RMS(Int)=  0.38941903
 Iteration 21 RMS(Cart)=  0.00198910 RMS(Int)=  0.38934517
 Iteration 22 RMS(Cart)=  0.00193067 RMS(Int)=  0.38927366
 Iteration 23 RMS(Cart)=  0.00187516 RMS(Int)=  0.38920437
 Iteration 24 RMS(Cart)=  0.00182236 RMS(Int)=  0.38913719
 Iteration 25 RMS(Cart)=  0.00177209 RMS(Int)=  0.38907200
 Iteration 26 RMS(Cart)=  0.00172417 RMS(Int)=  0.38900869
 Iteration 27 RMS(Cart)=  0.00167845 RMS(Int)=  0.38894717
 Iteration 28 RMS(Cart)=  0.00163478 RMS(Int)=  0.38888735
 Iteration 29 RMS(Cart)=  0.00159305 RMS(Int)=  0.38882911
 Iteration 30 RMS(Cart)=  0.00155312 RMS(Int)=  0.38877233
 Iteration 31 RMS(Cart)=  0.00151488 RMS(Int)=  0.38871674
 Iteration 32 RMS(Cart)=  0.00147822 RMS(Int)=  0.38865564
 Iteration 33 RMS(Cart)=  0.00144255 RMS(Int)=  0.04162083
 New curvilinear step failed, DQL= 4.38D+00 SP=-1.15D-01.
 ITry= 5 IFail=1 DXMaxC= 3.11D-01 DCOld= 1.00D+10 DXMaxT= 8.49D-01 DXLimC= 3.00D+00 Rises=F
 New curvilinear step failed, DQL= 4.41D+00 SP=-1.27D-02.
 ITry= 6 IFail=1 DXMaxC= 0.00D+00 DCOld= 1.00D+10 DXMaxT= 8.49D-01 DXLimC= 3.00D+00 Rises=F
 New curvilinear step failed, DQL= 4.41D+00 SP=-2.73D-02.
 ITry= 7 IFail=1 DXMaxC= 0.00D+00 DCOld= 1.00D+10 DXMaxT= 8.49D-01 DXLimC= 3.00D+00 Rises=F
slurmstepd: error: *** JOB 27447126 ON lewis4-r630-hpc4-node303 CANCELLED AT 2023-05-16T21:11:12 DUE TO TIME LIMIT ***
