### Starting Gaussian ###
 Entering Gaussian System, Link 0=g16
 Initial command:
 /cluster/software/gaussian/gaussian-16-A.03/avx2/g16/l1.exe "/local/scratch/cz9n3/Gau-15778.inp" -scrdir="/local/scratch/cz9n3/"
 Entering Link 1 = /cluster/software/gaussian/gaussian-16-A.03/avx2/g16/l1.exe PID=     15779.
  
 Copyright (c) 1988,1990,1992,1993,1995,1998,2003,2009,2016,
            Gaussian, Inc.  All Rights Reserved.
  
 This is part of the Gaussian(R) 16 program.  It is based on
 the Gaussian(R) 09 system (copyright 2009, Gaussian, Inc.),
 the Gaussian(R) 03 system (copyright 2003, Gaussian, Inc.),
 the Gaussian(R) 98 system (copyright 1998, Gaussian, Inc.),
 the Gaussian(R) 94 system (copyright 1995, Gaussian, Inc.),
 the Gaussian 92(TM) system (copyright 1992, Gaussian, Inc.),
 the Gaussian 90(TM) system (copyright 1990, Gaussian, Inc.),
 the Gaussian 88(TM) system (copyright 1988, Gaussian, Inc.),
 the Gaussian 86(TM) system (copyright 1986, Carnegie Mellon
 University), and the Gaussian 82(TM) system (copyright 1983,
 Carnegie Mellon University). Gaussian is a federally registered
 trademark of Gaussian, Inc.
  
 This software contains proprietary and confidential information,
 including trade secrets, belonging to Gaussian, Inc.
  
 This software is provided under written license and may be
 used, copied, transmitted, or stored only in accord with that
 written license.
  
 The following legend is applicable only to US Government
 contracts under FAR:
  
                    RESTRICTED RIGHTS LEGEND
  
 Use, reproduction and disclosure by the US Government is
 subject to restrictions as set forth in subparagraphs (a)
 and (c) of the Commercial Computer Software - Restricted
 Rights clause in FAR 52.227-19.
  
 Gaussian, Inc.
 340 Quinnipiac St., Bldg. 40, Wallingford CT 06492
  
  
 ---------------------------------------------------------------
 Warning -- This program may not be used in any manner that
 competes with the business of Gaussian, Inc. or will provide
 assistance to any competitor of Gaussian, Inc.  The licensee
 of this program is prohibited from giving any competitor of
 Gaussian, Inc. access to this program.  By using this program,
 the user acknowledges that Gaussian, Inc. is engaged in the
 business of creating and licensing software in the field of
 computational chemistry and represents and warrants to the
 licensee that it is not a competitor of Gaussian, Inc. and that
 it will not use this program in any manner prohibited above.
 ---------------------------------------------------------------
  

 Cite this work as:
 Gaussian 16, Revision A.03,
 M. J. Frisch, G. W. Trucks, H. B. Schlegel, G. E. Scuseria, 
 M. A. Robb, J. R. Cheeseman, G. Scalmani, V. Barone, 
 G. A. Petersson, H. Nakatsuji, X. Li, M. Caricato, A. V. Marenich, 
 J. Bloino, B. G. Janesko, R. Gomperts, B. Mennucci, H. P. Hratchian, 
 J. V. Ortiz, A. F. Izmaylov, J. L. Sonnenberg, D. Williams-Young, 
 F. Ding, F. Lipparini, F. Egidi, J. Goings, B. Peng, A. Petrone, 
 T. Henderson, D. Ranasinghe, V. G. Zakrzewski, J. Gao, N. Rega, 
 G. Zheng, W. Liang, M. Hada, M. Ehara, K. Toyota, R. Fukuda, 
 J. Hasegawa, M. Ishida, T. Nakajima, Y. Honda, O. Kitao, H. Nakai, 
 T. Vreven, K. Throssell, J. A. Montgomery, Jr., J. E. Peralta, 
 F. Ogliaro, M. J. Bearpark, J. J. Heyd, E. N. Brothers, K. N. Kudin, 
 V. N. Staroverov, T. A. Keith, R. Kobayashi, J. Normand, 
 K. Raghavachari, A. P. Rendell, J. C. Burant, S. S. Iyengar, 
 J. Tomasi, M. Cossi, J. M. Millam, M. Klene, C. Adamo, R. Cammi, 
 J. W. Ochterski, R. L. Martin, K. Morokuma, O. Farkas, 
 J. B. Foresman, and D. J. Fox, Gaussian, Inc., Wallingford CT, 2016.
 
 ******************************************
 Gaussian 16:  ES64L-G16RevA.03 25-Dec-2016
                15-May-2023 
 ******************************************
 %chk=Nc1ccccc2cc3cccc-3cccc-2nc1.chk
 %NProcShared=20
 Will use up to   20 processors via shared memory.
 -----------------------------
 # opt freq b3lyp/6-31g(2df,p)
 -----------------------------
 1/18=20,19=15,26=3,38=1/1,3;
 2/9=110,12=2,17=6,18=5,40=1/2;
 3/5=1,6=6,7=104,11=2,25=1,30=1,71=1,74=-5/1,2,3;
 4//1;
 5/5=2,38=5/2;
 6/7=2,8=2,9=2,10=2,28=1/1;
 7//1,2,3,16;
 1/18=20,19=15,26=3/3(2);
 2/9=110/2;
 99//99;
 2/9=110/2;
 3/5=1,6=6,7=104,11=2,25=1,30=1,71=1,74=-5/1,2,3;
 4/5=5,16=3,69=1/1;
 5/5=2,38=5/2;
 7//1,2,3,16;
 1/18=20,19=15,26=3/3(-5);
 2/9=110/2;
 6/7=2,8=2,9=2,10=2,19=2,28=1/1;
 99/9=1/99;
 -------------------
 Title Card Required
 -------------------
 Symbolic Z-matrix:
 Charge =  0 Multiplicity = 1
 N                     2.00827   0.98596  -0.28777 
 C                     3.34665   1.39998   0.16816 
 C                     3.56704   0.88062   1.51288 
 C                     4.76142   0.34146   1.73675 
 C                     5.62918   1.20907   2.58051 
 C                     6.83265   1.42968   2.28204 
 C                     7.29824   2.86094   2.21401 
 C                     8.47996   2.9852    2.83598 
 C                     9.18406   4.08399   3.48004 
 C                     9.07736   4.45452   4.76756 
 C                     10.20161   5.30535   5.16128 
 C                     11.04234   5.44152   4.12068 
 C                     10.38768   4.74971   2.98552 
 C                     10.68754   4.71207   1.69895 
 C                     9.87447   3.98861   0.60935 
 C                     8.56603   3.82073   0.08694 
 C                     7.00224   3.13425   0.65016 
 N                     5.7631    2.65953   0.27554 
 C                     4.5272    2.0289   -0.4028 
 H                     1.32185   1.08057   0.49557 
 H                     1.86357  -0.03254  -0.40394 
 H                     3.01012   1.44251   2.26416 
 H                     5.30008  -0.09679   0.8734 
 H                     5.03868   2.06188   3.00444 
 H                     7.38391   0.83404   1.50398 
 H                     9.21158   2.20815   2.56453 
 H                     8.34263   4.08058   5.46094 
 H                     10.31408   5.73739   6.15011 
 H                     11.95941   6.02479   4.14103 
 H                     11.67953   5.13128   1.4231 
 H                     10.41696   3.02202   0.67998 
 H                     8.6849    3.40548  -0.92128 
 H                     4.73142   1.4717   -1.32907 
 

 GradGradGradGradGradGradGradGradGradGradGradGradGradGradGradGradGradGrad
 Berny optimization.
 Initialization pass.
                           ----------------------------
                           !    Initial Parameters    !
                           ! (Angstroms and Degrees)  !
 --------------------------                            --------------------------
 ! Name  Definition              Value          Derivative Info.                !
 --------------------------------------------------------------------------------
 ! R1    R(1,2)                  1.4733         estimate D2E/DX2                !
 ! R2    R(1,20)                 1.0458         estimate D2E/DX2                !
 ! R3    R(1,21)                 1.0353         estimate D2E/DX2                !
 ! R4    R(2,3)                  1.4583         estimate D2E/DX2                !
 ! R5    R(2,19)                 1.4544         estimate D2E/DX2                !
 ! R6    R(3,4)                  1.3294         estimate D2E/DX2                !
 ! R7    R(3,22)                 1.091          estimate D2E/DX2                !
 ! R8    R(4,5)                  1.4892         estimate D2E/DX2                !
 ! R9    R(4,23)                 1.108          estimate D2E/DX2                !
 ! R10   R(5,6)                  1.2594         estimate D2E/DX2                !
 ! R11   R(5,24)                 1.1206         estimate D2E/DX2                !
 ! R12   R(6,7)                  1.5066         estimate D2E/DX2                !
 ! R13   R(6,25)                 1.1243         estimate D2E/DX2                !
 ! R14   R(7,8)                  1.3412         estimate D2E/DX2                !
 ! R15   R(7,17)                 1.6149         estimate D2E/DX2                !
 ! R16   R(8,9)                  1.4553         estimate D2E/DX2                !
 ! R17   R(8,26)                 1.1013         estimate D2E/DX2                !
 ! R18   R(9,10)                 1.344          estimate D2E/DX2                !
 ! R19   R(9,13)                 1.4617         estimate D2E/DX2                !
 ! R20   R(10,11)                1.4639         estimate D2E/DX2                !
 ! R21   R(10,27)                1.0772         estimate D2E/DX2                !
 ! R22   R(11,12)                1.3447         estimate D2E/DX2                !
 ! R23   R(11,28)                1.0849         estimate D2E/DX2                !
 ! R24   R(12,13)                1.4818         estimate D2E/DX2                !
 ! R25   R(12,29)                1.087          estimate D2E/DX2                !
 ! R26   R(13,14)                1.3216         estimate D2E/DX2                !
 ! R27   R(14,15)                1.54           estimate D2E/DX2                !
 ! R28   R(14,30)                1.1117         estimate D2E/DX2                !
 ! R29   R(15,16)                1.4188         estimate D2E/DX2                !
 ! R30   R(15,31)                1.1107         estimate D2E/DX2                !
 ! R31   R(16,17)                1.7983         estimate D2E/DX2                !
 ! R32   R(16,32)                1.0968         estimate D2E/DX2                !
 ! R33   R(17,18)                1.3788         estimate D2E/DX2                !
 ! R34   R(18,19)                1.5444         estimate D2E/DX2                !
 ! R35   R(19,33)                1.1001         estimate D2E/DX2                !
 ! A1    A(2,1,20)             109.8178         estimate D2E/DX2                !
 ! A2    A(2,1,21)             115.987          estimate D2E/DX2                !
 ! A3    A(20,1,21)             94.6639         estimate D2E/DX2                !
 ! A4    A(1,2,3)              108.8188         estimate D2E/DX2                !
 ! A5    A(1,2,19)             137.5127         estimate D2E/DX2                !
 ! A6    A(3,2,19)             113.1625         estimate D2E/DX2                !
 ! A7    A(2,3,4)              115.8172         estimate D2E/DX2                !
 ! A8    A(2,3,22)             111.9884         estimate D2E/DX2                !
 ! A9    A(4,3,22)             123.4716         estimate D2E/DX2                !
 ! A10   A(3,4,5)              112.4977         estimate D2E/DX2                !
 ! A11   A(3,4,23)             117.774          estimate D2E/DX2                !
 ! A12   A(5,4,23)             112.8706         estimate D2E/DX2                !
 ! A13   A(4,5,6)              121.6416         estimate D2E/DX2                !
 ! A14   A(4,5,24)             110.5286         estimate D2E/DX2                !
 ! A15   A(6,5,24)             117.3808         estimate D2E/DX2                !
 ! A16   A(5,6,7)              118.1911         estimate D2E/DX2                !
 ! A17   A(5,6,25)             122.6662         estimate D2E/DX2                !
 ! A18   A(7,6,25)             108.6942         estimate D2E/DX2                !
 ! A19   A(6,7,8)              109.8381         estimate D2E/DX2                !
 ! A20   A(6,7,17)              98.5029         estimate D2E/DX2                !
 ! A21   A(8,7,17)             126.506          estimate D2E/DX2                !
 ! A22   A(7,8,9)              134.5463         estimate D2E/DX2                !
 ! A23   A(7,8,26)             113.9338         estimate D2E/DX2                !
 ! A24   A(9,8,26)             108.6878         estimate D2E/DX2                !
 ! A25   A(8,9,10)             126.4199         estimate D2E/DX2                !
 ! A26   A(8,9,13)             126.3385         estimate D2E/DX2                !
 ! A27   A(10,9,13)            105.3026         estimate D2E/DX2                !
 ! A28   A(9,10,11)            110.9112         estimate D2E/DX2                !
 ! A29   A(9,10,27)            125.1036         estimate D2E/DX2                !
 ! A30   A(11,10,27)           123.536          estimate D2E/DX2                !
 ! A31   A(10,11,12)           109.323          estimate D2E/DX2                !
 ! A32   A(10,11,28)           123.7937         estimate D2E/DX2                !
 ! A33   A(12,11,28)           126.8816         estimate D2E/DX2                !
 ! A34   A(11,12,13)           105.624          estimate D2E/DX2                !
 ! A35   A(11,12,29)           124.563          estimate D2E/DX2                !
 ! A36   A(13,12,29)           129.6108         estimate D2E/DX2                !
 ! A37   A(9,13,12)            108.4973         estimate D2E/DX2                !
 ! A38   A(9,13,14)            120.214          estimate D2E/DX2                !
 ! A39   A(12,13,14)           131.2099         estimate D2E/DX2                !
 ! A40   A(13,14,15)           125.6167         estimate D2E/DX2                !
 ! A41   A(13,14,30)           115.6759         estimate D2E/DX2                !
 ! A42   A(15,14,30)           118.2091         estimate D2E/DX2                !
 ! A43   A(14,15,16)           143.414          estimate D2E/DX2                !
 ! A44   A(14,15,31)            96.0827         estimate D2E/DX2                !
 ! A45   A(16,15,31)           111.7694         estimate D2E/DX2                !
 ! A46   A(15,16,17)           137.0356         estimate D2E/DX2                !
 ! A47   A(15,16,32)           106.4571         estimate D2E/DX2                !
 ! A48   A(17,16,32)           103.7455         estimate D2E/DX2                !
 ! A49   A(7,17,16)            102.035          estimate D2E/DX2                !
 ! A50   A(7,17,18)            111.6883         estimate D2E/DX2                !
 ! A51   A(16,17,18)           145.8763         estimate D2E/DX2                !
 ! A52   A(2,19,18)            130.8214         estimate D2E/DX2                !
 ! A53   A(2,19,33)            105.2014         estimate D2E/DX2                !
 ! A54   A(18,19,33)           115.3463         estimate D2E/DX2                !
 ! A55   L(17,18,19,5,-1)      186.4538         estimate D2E/DX2                !
 ! A56   L(17,18,19,5,-2)      189.8326         estimate D2E/DX2                !
 ! D1    D(20,1,2,3)            41.334          estimate D2E/DX2                !
 ! D2    D(20,1,2,19)         -147.7988         estimate D2E/DX2                !
 ! D3    D(21,1,2,3)           -64.4384         estimate D2E/DX2                !
 ! D4    D(21,1,2,19)          106.4288         estimate D2E/DX2                !
 ! D5    D(1,2,3,4)            136.0867         estimate D2E/DX2                !
 ! D6    D(1,2,3,22)           -75.0333         estimate D2E/DX2                !
 ! D7    D(19,2,3,4)           -37.2171         estimate D2E/DX2                !
 ! D8    D(19,2,3,22)          111.6629         estimate D2E/DX2                !
 ! D9    D(1,2,19,18)          165.8246         estimate D2E/DX2                !
 ! D10   D(1,2,19,33)          -48.9981         estimate D2E/DX2                !
 ! D11   D(3,2,19,18)          -23.5803         estimate D2E/DX2                !
 ! D12   D(3,2,19,33)          121.597          estimate D2E/DX2                !
 ! D13   D(2,3,4,5)            106.5135         estimate D2E/DX2                !
 ! D14   D(2,3,4,23)           -27.3994         estimate D2E/DX2                !
 ! D15   D(22,3,4,5)           -38.4207         estimate D2E/DX2                !
 ! D16   D(22,3,4,23)         -172.3336         estimate D2E/DX2                !
 ! D17   D(3,4,5,6)           -134.0452         estimate D2E/DX2                !
 ! D18   D(3,4,5,24)             9.8148         estimate D2E/DX2                !
 ! D19   D(23,4,5,6)             2.1832         estimate D2E/DX2                !
 ! D20   D(23,4,5,24)          146.0433         estimate D2E/DX2                !
 ! D21   D(4,5,6,7)            127.8216         estimate D2E/DX2                !
 ! D22   D(4,5,6,25)           -13.0415         estimate D2E/DX2                !
 ! D23   D(24,5,6,7)           -13.7167         estimate D2E/DX2                !
 ! D24   D(24,5,6,25)         -154.5798         estimate D2E/DX2                !
 ! D25   D(5,6,7,8)            135.1701         estimate D2E/DX2                !
 ! D26   D(5,6,7,17)           -90.9297         estimate D2E/DX2                !
 ! D27   D(25,6,7,8)           -78.9504         estimate D2E/DX2                !
 ! D28   D(25,6,7,17)           54.9498         estimate D2E/DX2                !
 ! D29   D(6,7,8,9)           -155.2336         estimate D2E/DX2                !
 ! D30   D(6,7,8,26)            46.5256         estimate D2E/DX2                !
 ! D31   D(17,7,8,9)            87.2131         estimate D2E/DX2                !
 ! D32   D(17,7,8,26)          -71.0277         estimate D2E/DX2                !
 ! D33   D(6,7,17,16)         -129.4557         estimate D2E/DX2                !
 ! D34   D(6,7,17,18)           45.234          estimate D2E/DX2                !
 ! D35   D(8,7,17,16)           -6.9391         estimate D2E/DX2                !
 ! D36   D(8,7,17,18)          167.7507         estimate D2E/DX2                !
 ! D37   D(7,8,9,10)            88.339          estimate D2E/DX2                !
 ! D38   D(7,8,9,13)          -109.8769         estimate D2E/DX2                !
 ! D39   D(26,8,9,10)         -112.6193         estimate D2E/DX2                !
 ! D40   D(26,8,9,13)           49.1648         estimate D2E/DX2                !
 ! D41   D(8,9,10,11)          162.6647         estimate D2E/DX2                !
 ! D42   D(8,9,10,27)           -9.8468         estimate D2E/DX2                !
 ! D43   D(13,9,10,11)          -2.2021         estimate D2E/DX2                !
 ! D44   D(13,9,10,27)        -174.7136         estimate D2E/DX2                !
 ! D45   D(8,9,13,12)         -159.8762         estimate D2E/DX2                !
 ! D46   D(8,9,13,14)           23.0018         estimate D2E/DX2                !
 ! D47   D(10,9,13,12)           5.0068         estimate D2E/DX2                !
 ! D48   D(10,9,13,14)        -172.1152         estimate D2E/DX2                !
 ! D49   D(9,10,11,12)          -1.66           estimate D2E/DX2                !
 ! D50   D(9,10,11,28)         178.7883         estimate D2E/DX2                !
 ! D51   D(27,10,11,12)        170.9908         estimate D2E/DX2                !
 ! D52   D(27,10,11,28)         -8.5608         estimate D2E/DX2                !
 ! D53   D(10,11,12,13)          4.6434         estimate D2E/DX2                !
 ! D54   D(10,11,12,29)        179.9009         estimate D2E/DX2                !
 ! D55   D(28,11,12,13)       -175.8224         estimate D2E/DX2                !
 ! D56   D(28,11,12,29)         -0.5649         estimate D2E/DX2                !
 ! D57   D(11,12,13,9)          -6.0394         estimate D2E/DX2                !
 ! D58   D(11,12,13,14)        170.6542         estimate D2E/DX2                !
 ! D59   D(29,12,13,9)         179.0308         estimate D2E/DX2                !
 ! D60   D(29,12,13,14)         -4.2755         estimate D2E/DX2                !
 ! D61   D(9,13,14,15)          -0.9495         estimate D2E/DX2                !
 ! D62   D(9,13,14,30)        -172.6648         estimate D2E/DX2                !
 ! D63   D(12,13,14,15)       -177.3206         estimate D2E/DX2                !
 ! D64   D(12,13,14,30)         10.964          estimate D2E/DX2                !
 ! D65   D(13,14,15,16)         49.4431         estimate D2E/DX2                !
 ! D66   D(13,14,15,31)        -90.8501         estimate D2E/DX2                !
 ! D67   D(30,14,15,16)       -139.0313         estimate D2E/DX2                !
 ! D68   D(30,14,15,31)         80.6756         estimate D2E/DX2                !
 ! D69   D(14,15,16,17)        -65.1444         estimate D2E/DX2                !
 ! D70   D(14,15,16,32)        161.9573         estimate D2E/DX2                !
 ! D71   D(31,15,16,17)         71.695          estimate D2E/DX2                !
 ! D72   D(31,15,16,32)        -61.2034         estimate D2E/DX2                !
 ! D73   D(15,16,17,7)           9.119          estimate D2E/DX2                !
 ! D74   D(15,16,17,18)       -162.063          estimate D2E/DX2                !
 ! D75   D(32,16,17,7)         142.7943         estimate D2E/DX2                !
 ! D76   D(32,16,17,18)        -28.3877         estimate D2E/DX2                !
 ! D77   D(7,17,19,2)            9.5869         estimate D2E/DX2                !
 ! D78   D(7,17,19,33)        -130.2879         estimate D2E/DX2                !
 ! D79   D(16,17,19,2)         174.2305         estimate D2E/DX2                !
 ! D80   D(16,17,19,33)         34.3557         estimate D2E/DX2                !
 --------------------------------------------------------------------------------
 Trust Radius=3.00D-01 FncErr=1.00D-07 GrdErr=1.00D-06 EigMax=2.50D+02 EigMin=1.00D-04
 Number of steps in this run=    181 maximum allowed number of steps=    198.
 GradGradGradGradGradGradGradGradGradGradGradGradGradGradGradGradGradGrad

                          Input orientation:                          
 ---------------------------------------------------------------------
 Center     Atomic      Atomic             Coordinates (Angstroms)
 Number     Number       Type             X           Y           Z
 ---------------------------------------------------------------------
      1          7           0        2.008270    0.985960   -0.287770
      2          6           0        3.346650    1.399980    0.168160
      3          6           0        3.567040    0.880620    1.512880
      4          6           0        4.761420    0.341460    1.736750
      5          6           0        5.629180    1.209070    2.580510
      6          6           0        6.832650    1.429680    2.282040
      7          6           0        7.298240    2.860940    2.214010
      8          6           0        8.479960    2.985200    2.835980
      9          6           0        9.184060    4.083990    3.480040
     10          6           0        9.077360    4.454520    4.767560
     11          6           0       10.201610    5.305350    5.161280
     12          6           0       11.042340    5.441520    4.120680
     13          6           0       10.387680    4.749710    2.985520
     14          6           0       10.687540    4.712070    1.698950
     15          6           0        9.874470    3.988610    0.609350
     16          6           0        8.566030    3.820730    0.086940
     17          6           0        7.002240    3.134250    0.650160
     18          7           0        5.763100    2.659530    0.275540
     19          6           0        4.527200    2.028900   -0.402800
     20          1           0        1.321850    1.080570    0.495570
     21          1           0        1.863570   -0.032540   -0.403940
     22          1           0        3.010120    1.442510    2.264160
     23          1           0        5.300080   -0.096790    0.873400
     24          1           0        5.038680    2.061880    3.004440
     25          1           0        7.383910    0.834040    1.503980
     26          1           0        9.211580    2.208150    2.564530
     27          1           0        8.342630    4.080580    5.460940
     28          1           0       10.314080    5.737390    6.150110
     29          1           0       11.959410    6.024790    4.141030
     30          1           0       11.679530    5.131280    1.423100
     31          1           0       10.416960    3.022020    0.679980
     32          1           0        8.684900    3.405480   -0.921280
     33          1           0        4.731420    1.471700   -1.329070
 ---------------------------------------------------------------------
                    Distance matrix (angstroms):
                    1          2          3          4          5
     1  N    0.000000
     2  C    1.473277   0.000000
     3  C    2.383946   1.458279   0.000000
     4  C    3.477628   2.362734   1.329419   0.000000
     5  C    4.624694   3.326533   2.345237   1.489190   0.000000
     6  C    5.484109   4.076956   3.399600   2.402407   1.259402
     7  C    6.144773   4.683478   4.281951   3.607078   2.376712
     8  C    7.459058   5.998421   5.506054   4.693102   3.368508
     9  C    8.676759   7.228265   6.758862   6.050234   4.659559
    10  C    9.357313   7.957747   7.330029   6.688080   5.215945
    11  C   10.746167   9.336682   8.769640   8.121778   6.659354
    12  C   10.995493   9.548827   9.136878   8.434672   7.041879
    13  C    9.751654   8.290616   7.978700   7.255818   5.945039
    14  C    9.651978   8.197678   8.088025   7.363597   6.215719
    15  C    8.467457   7.036198   7.089403   6.380910   5.443694
    16  C    7.154058   5.754003   5.972223   5.413155   4.654433
    17  C    5.516756   4.074721   4.198063   3.741875   3.052517
    18  N    4.149326   2.727128   3.085160   2.917524   2.726656
    19  C    2.728729   1.454384   2.431108   2.734956   3.284299
    20  H    1.045823   2.075822   2.473010   3.730610   4.787126
    21  H    1.035266   2.139845   2.722108   3.622149   4.962696
    22  H    2.779296   2.123270   1.091010   2.134836   2.648405
    23  H    3.654679   2.559995   2.089903   1.107967   2.174351
    24  H    4.602134   3.368317   2.405380   2.154938   1.120577
    25  H    5.668417   4.290008   3.817165   2.678483   2.092520
    26  H    7.843280   6.386950   5.893143   4.896292   3.719140
    27  H    9.096618   7.756220   6.973749   6.377748   4.889300
    28  H   11.532947  10.155882   9.519174   8.912118   7.429402
    29  H   12.001219  10.552355  10.188304   9.481132   8.105442
    30  H   10.660395   9.215984   9.159076   8.420273   7.302744
    31  H    8.705639   7.272019   7.225007   6.347228   5.460919
    32  H    7.129712   5.805672   6.204236   5.643318   5.140445
    33  H    2.955638   2.040693   3.127593   3.267659   4.019921
                    6          7          8          9         10
     6  C    0.000000
     7  C    1.506621   0.000000
     8  C    2.332407   1.341175   0.000000
     9  C    3.742953   2.579729   1.455304   0.000000
    10  C    4.512891   3.496481   2.499358   1.344018   0.000000
    11  C    5.887337   4.805320   3.708665   2.313806   1.463853
    12  C    6.098930   4.930828   3.774885   2.388831   2.292110
    13  C    4.914847   3.702340   2.602932   1.461655   2.231534
    14  C    5.096494   3.896065   3.024620   2.413963   3.474965
    15  C    4.312619   3.237829   2.812360   2.954086   4.259480
    16  C    3.679700   2.655733   2.874498   3.458959   4.750932
    17  C    2.365872   1.614912   2.642666   3.697373   4.796063
    18  N    2.585055   2.480904   3.747431   4.899069   5.863834
    19  C    3.589224   3.901109   5.198896   6.402045   7.302069
    20  H    5.803643   6.468384   7.768119   8.929834   9.475303
    21  H    5.834752   6.690406   7.961184   9.253145   9.945697
    22  H    3.822593   4.516905   5.711919   6.824465   7.221538
    23  H    2.581307   3.812879   4.843761   6.273659   7.081437
    24  H    2.034666   2.523666   3.566974   4.636734   5.014405
    25  H    1.124301   2.149373   2.757361   4.208031   5.160097
    26  H    2.518953   2.051797   1.101254   2.087508   3.149212
    27  H    4.405986   3.622268   2.847654   2.152204   1.077235
    28  H    6.755641   5.732551   4.682094   3.337656   2.255366
    29  H    7.131237   5.953978   4.800920   3.450533   3.341332
    30  H    6.158885   4.997568   4.103552   3.399292   4.291236
    31  H    4.236676   3.479312   2.898562   3.238543   4.533751
    32  H    4.194744   3.471224   3.786243   4.481200   5.798052
    33  H    4.178163   4.590421   5.804298   7.055324   8.059361
                   11         12         13         14         15
    11  C    0.000000
    12  C    1.344700   0.000000
    13  C    2.253284   1.481813   0.000000
    14  C    3.546243   2.553969   1.321588   0.000000
    15  C    4.749831   3.975463   2.547320   1.540034   0.000000
    16  C    5.534270   5.003012   3.547278   2.809603   1.418841
    17  C    5.941367   5.804344   4.418690   4.143780   2.996882
    18  N    7.111342   7.098940   5.753224   5.521696   4.333733
    19  C    8.596106   8.634518   7.295803   7.040351   5.784307
    20  H   10.884289  11.253765  10.092161  10.116920   9.034210
    21  H   11.357273  11.605487  10.344989  10.236988   9.020583
    22  H    8.662122   9.162713   8.117039   8.363747   7.506019
    23  H    8.461325   8.613435   7.337117   7.268521   6.138832
    24  H    6.467449   6.979390   5.986367   6.374749   5.730062
    25  H    6.427121   6.438952   5.152676   5.098147   4.117592
    26  H    4.161240   4.028395   2.831955   3.032705   2.726204
    27  H    2.246256   3.307097   3.279889   4.477717   5.088508
    28  H    1.084939   2.176347   3.315955   4.582966   5.826792
    29  H    2.156007   1.087031   2.330529   3.050351   4.578839
    30  H    4.023498   2.789121   2.062917   1.111699   2.286072
    31  H    5.034086   4.252470   2.881195   1.991929   1.110667
    32  H    6.550378   5.926579   4.468725   3.547302   2.024338
    33  H    9.313672   9.235094   7.832899   7.425919   6.045103
                   16         17         18         19         20
    16  C    0.000000
    17  C    1.798308   0.000000
    18  N    3.039798   1.378828   0.000000
    19  C    4.445520   2.907980   1.544438   0.000000
    20  H    7.755875   6.042212   4.718711   3.461310   0.000000
    21  H    7.746717   6.127448   4.786989   3.368154   1.530226
    22  H    6.423734   4.626446   3.607582   3.123789   2.471673
    23  H    5.160612   3.658798   2.858168   2.597034   4.165963
    24  H    4.903831   3.247796   2.885977   3.445575   4.590449
    25  H    3.510802   2.483072   2.732856   3.636522   6.150304
    26  H    3.025822   3.066538   4.163560   5.548026   8.234068
    27  H    5.384915   5.082892   5.963366   7.290428   9.107487
    28  H    6.594793   6.927775   8.043334   9.496394  11.598276
    29  H    5.727875   6.716765   8.041222   9.583907  12.283826
    30  H    3.632733   5.144182   6.513876   8.007153  11.160202
    31  H    2.101327   3.416694   4.685444   6.070253   9.301842
    32  H    1.096846   2.318261   3.244339   4.410245   7.850298
    33  H    4.714580   3.440646   2.247238   1.100070   3.886832
                   21         22         23         24         25
    21  H    0.000000
    22  H    3.257162   0.000000
    23  H    3.666787   3.089915   0.000000
    24  H    5.107345   2.246484   3.044588   0.000000
    25  H    5.904682   4.480865   2.367789   3.042873   0.000000
    26  H    8.235639   6.255760   4.844843   4.198572   2.520580
    27  H    9.658819   6.753849   6.910358   4.585371   5.207370
    28  H   12.151493   9.321718   9.328533   7.157825   7.363101
    29  H   12.620380  10.227889   9.617579   8.055619   7.404939
    30  H   11.240827   9.459021   8.266333   7.484834   6.076608
    31  H    9.146896   7.737296   5.995569   5.937245   3.829572
    32  H    7.656250   6.797309   5.190740   5.523718   3.766532
    33  H    3.367962   3.984348   2.763043   4.384294   3.933000
                   26         27         28         29         30
    26  H    0.000000
    27  H    3.556720   0.000000
    28  H    5.150478   2.665819   0.000000
    29  H    4.960107   4.313144   2.612683   0.000000
    30  H    3.992284   5.342567   4.957464   2.874689   0.000000
    31  H    2.380515   5.317986   6.107875   4.834733   2.568129
    32  H    3.723152   6.426946   7.622112   6.573445   4.176399
    33  H    5.981163   8.121042  10.261595  10.143789   8.321250
                   31         32         33
    31  H    0.000000
    32  H    2.389792   0.000000
    33  H    6.226166   4.419932   0.000000
 Stoichiometry    C17H14N2
 Framework group  C1[X(C17H14N2)]
 Deg. of freedom    93
 Full point group                 C1      NOp   1
 Largest Abelian subgroup         C1      NOp   1
 Largest concise Abelian subgroup C1      NOp   1
                         Standard orientation:                         
 ---------------------------------------------------------------------
 Center     Atomic      Atomic             Coordinates (Angstroms)
 Number     Number       Type             X           Y           Z
 ---------------------------------------------------------------------
      1          7           0        5.896004    0.048004   -0.808780
      2          6           0        4.451591    0.116387   -0.526749
      3          6           0        4.017191   -1.165287    0.016562
      4          6           0        3.201990   -1.103341    1.064877
      5          6           0        1.798156   -1.457996    0.716804
      6          6           0        0.824059   -0.764587    1.112295
      7          6           0       -0.173580   -0.289271    0.088235
      8          6           0       -1.420207   -0.478418    0.545285
      9          6           0       -2.721638   -0.654671   -0.081707
     10          6           0       -3.267147   -1.818571   -0.474316
     11          6           0       -4.709957   -1.677220   -0.677257
     12          6           0       -5.080902   -0.420691   -0.374350
     13          6           0       -3.824439    0.304591   -0.072630
     14          6           0       -3.586388    1.589790    0.122791
     15          6           0       -2.202808    2.217466    0.374653
     16          6           0       -0.869156    2.266297   -0.107113
     17          6           0        0.512342    1.127186   -0.273843
     18          7           0        1.873430    1.002540   -0.455696
     19          6           0        3.411841    1.132847   -0.495704
     20          1           0        6.130586   -0.877724   -1.235096
     21          1           0        6.513090   -0.078849    0.012736
     22          1           0        3.948021   -1.933649   -0.754890
     23          1           0        3.271239   -0.213128    1.720863
     24          1           0        1.744566   -1.877408   -0.320940
     25          1           0        0.922693    0.020673    1.910850
     26          1           0       -1.571145   -0.143103    1.583332
     27          1           0       -2.750367   -2.762949   -0.513356
     28          1           0       -5.353899   -2.483149   -1.013278
     29          1           0       -6.099155   -0.045723   -0.439119
     30          1           0       -4.484955    2.233462    0.241698
     31          1           0       -2.238163    2.139808    1.482037
     32          1           0       -0.414736    3.165336    0.326825
     33          1           0        3.830491    1.955540    0.102678
 ---------------------------------------------------------------------
 Rotational constants (GHZ):           1.0631455           0.1800376           0.1623106
 Standard basis: 6-31G(2df,p) (6D, 7F)
 There are   659 symmetry adapted cartesian basis functions of A   symmetry.
 There are   602 symmetry adapted basis functions of A   symmetry.
   602 basis functions,   934 primitive gaussians,   659 cartesian basis functions
    65 alpha electrons       65 beta electrons
       nuclear repulsion energy      1235.9363418765 Hartrees.
 NAtoms=   33 NActive=   33 NUniq=   33 SFac= 1.00D+00 NAtFMM=   60 NAOKFM=F Big=F
 Integral buffers will be    131072 words long.
 Raffenetti 2 integral format.
 Two-electron integral symmetry is turned on.
 One-electron integrals computed using PRISM.
 PrsmSu:  requested number of processors reduced to:  12 ShMem   1 Linda.
 NBasis=   602 RedAO= T EigKep=  2.39D-04  NBF=   602
 NBsUse=   602 1.00D-06 EigRej= -1.00D+00 NBFU=   602
 ExpMin= 1.61D-01 ExpMax= 4.17D+03 ExpMxC= 6.27D+02 IAcc=3 IRadAn=         5 AccDes= 0.00D+00
 Harris functional with IExCor=  402 and IRadAn=       5 diagonalized for initial guess.
 HarFok:  IExCor=  402 AccDes= 0.00D+00 IRadAn=         5 IDoV= 1 UseB2=F ITyADJ=14
 ICtDFT=  3500011 ScaDFX=  1.000000  1.000000  1.000000  1.000000
 FoFCou: FMM=F IPFlag=           0 FMFlag=      100000 FMFlg1=           0
         NFxFlg=           0 DoJE=T BraDBF=F KetDBF=T FulRan=T
         wScrn=  0.000000 ICntrl=       500 IOpCl=  0 I1Cent=   200000004 NGrid=           0
         NMat0=    1 NMatS0=      1 NMatT0=    0 NMatD0=    1 NMtDS0=    0 NMtDT0=    0
 Petite list used in FoFCou.
 Requested convergence on RMS density matrix=1.00D-08 within 128 cycles.
 Requested convergence on MAX density matrix=1.00D-06.
 Requested convergence on             energy=1.00D-06.
 No special actions if energy rises.
 Integral accuracy reduced to 1.0D-05 until final iterations.
 EnCoef did     5 forward-backward iterations
 EnCoef did     4 forward-backward iterations
 Initial convergence to 1.0D-05 achieved.  Increase integral accuracy.
 SCF Done:  E(RB3LYP) =  -765.103459622     A.U. after   23 cycles
            NFock= 23  Conv=0.81D-08     -V/T= 2.0092

 **********************************************************************

            Population analysis using the SCF density.

 **********************************************************************

 Orbital symmetries:
       Occupied  (A) (A) (A) (A) (A) (A) (A) (A) (A) (A) (A) (A)
                 (A) (A) (A) (A) (A) (A) (A) (A) (A) (A) (A) (A)
                 (A) (A) (A) (A) (A) (A) (A) (A) (A) (A) (A) (A)
                 (A) (A) (A) (A) (A) (A) (A) (A) (A) (A) (A) (A)
                 (A) (A) (A) (A) (A) (A) (A) (A) (A) (A) (A) (A)
                 (A) (A) (A) (A) (A)
       Virtual   (A) (A) (A) (A) (A) (A) (A) (A) (A) (A) (A) (A)
                 (A) (A) (A) (A) (A) (A) (A) (A) (A) (A) (A) (A)
                 (A) (A) (A) (A) (A) (A) (A) (A) (A) (A) (A) (A)
                 (A) (A) (A) (A) (A) (A) (A) (A) (A) (A) (A) (A)
                 (A) (A) (A) (A) (A) (A) (A) (A) (A) (A) (A) (A)
                 (A) (A) (A) (A) (A) (A) (A) (A) (A) (A) (A) (A)
                 (A) (A) (A) (A) (A) (A) (A) (A) (A) (A) (A) (A)
                 (A) (A) (A) (A) (A) (A) (A) (A) (A) (A) (A) (A)
                 (A) (A) (A) (A) (A) (A) (A) (A) (A) (A) (A) (A)
                 (A) (A) (A) (A) (A) (A) (A) (A) (A) (A) (A) (A)
                 (A) (A) (A) (A) (A) (A) (A) (A) (A) (A) (A) (A)
                 (A) (A) (A) (A) (A) (A) (A) (A) (A) (A) (A) (A)
                 (A) (A) (A) (A) (A) (A) (A) (A) (A) (A) (A) (A)
                 (A) (A) (A) (A) (A) (A) (A) (A) (A) (A) (A) (A)
                 (A) (A) (A) (A) (A) (A) (A) (A) (A) (A) (A) (A)
                 (A) (A) (A) (A) (A) (A) (A) (A) (A) (A) (A) (A)
                 (A) (A) (A) (A) (A) (A) (A) (A) (A) (A) (A) (A)
                 (A) (A) (A) (A) (A) (A) (A) (A) (A) (A) (A) (A)
                 (A) (A) (A) (A) (A) (A) (A) (A) (A) (A) (A) (A)
                 (A) (A) (A) (A) (A) (A) (A) (A) (A) (A) (A) (A)
                 (A) (A) (A) (A) (A) (A) (A) (A) (A) (A) (A) (A)
                 (A) (A) (A) (A) (A) (A) (A) (A) (A) (A) (A) (A)
                 (A) (A) (A) (A) (A) (A) (A) (A) (A) (A) (A) (A)
                 (A) (A) (A) (A) (A) (A) (A) (A) (A) (A) (A) (A)
                 (A) (A) (A) (A) (A) (A) (A) (A) (A) (A) (A) (A)
                 (A) (A) (A) (A) (A) (A) (A) (A) (A) (A) (A) (A)
                 (A) (A) (A) (A) (A) (A) (A) (A) (A) (A) (A) (A)
                 (A) (A) (A) (A) (A) (A) (A) (A) (A) (A) (A) (A)
                 (A) (A) (A) (A) (A) (A) (A) (A) (A) (A) (A) (A)
                 (A) (A) (A) (A) (A) (A) (A) (A) (A) (A) (A) (A)
                 (A) (A) (A) (A) (A) (A) (A) (A) (A) (A) (A) (A)
                 (A) (A) (A) (A) (A) (A) (A) (A) (A) (A) (A) (A)
                 (A) (A) (A) (A) (A) (A) (A) (A) (A) (A) (A) (A)
                 (A) (A) (A) (A) (A) (A) (A) (A) (A) (A) (A) (A)
                 (A) (A) (A) (A) (A) (A) (A) (A) (A) (A) (A) (A)
                 (A) (A) (A) (A) (A) (A) (A) (A) (A) (A) (A) (A)
                 (A) (A) (A) (A) (A) (A) (A) (A) (A) (A) (A) (A)
                 (A) (A) (A) (A) (A) (A) (A) (A) (A) (A) (A) (A)
                 (A) (A) (A) (A) (A) (A) (A) (A) (A) (A) (A) (A)
                 (A) (A) (A) (A) (A) (A) (A) (A) (A) (A) (A) (A)
                 (A) (A) (A) (A) (A) (A) (A) (A) (A) (A) (A) (A)
                 (A) (A) (A) (A) (A) (A) (A) (A) (A) (A) (A) (A)
                 (A) (A) (A) (A) (A) (A) (A) (A) (A) (A) (A) (A)
                 (A) (A) (A) (A) (A) (A) (A) (A) (A) (A) (A) (A)
                 (A) (A) (A) (A) (A) (A) (A) (A) (A)
 The electronic state is 1-A.
 Alpha  occ. eigenvalues --  -14.35694 -14.33757 -10.31108 -10.26225 -10.24809
 Alpha  occ. eigenvalues --  -10.23374 -10.21839 -10.21579 -10.20550 -10.20038
 Alpha  occ. eigenvalues --  -10.19767 -10.18686 -10.18633 -10.18442 -10.18419
 Alpha  occ. eigenvalues --  -10.18379 -10.18321 -10.18270 -10.17188  -0.90071
 Alpha  occ. eigenvalues --   -0.88121  -0.87415  -0.82289  -0.80938  -0.79219
 Alpha  occ. eigenvalues --   -0.76078  -0.73677  -0.71333  -0.70478  -0.64562
 Alpha  occ. eigenvalues --   -0.64079  -0.59413  -0.57339  -0.56124  -0.54607
 Alpha  occ. eigenvalues --   -0.54138  -0.51406  -0.48946  -0.48698  -0.48102
 Alpha  occ. eigenvalues --   -0.47067  -0.45405  -0.45096  -0.44571  -0.43246
 Alpha  occ. eigenvalues --   -0.42762  -0.41125  -0.40075  -0.39317  -0.38846
 Alpha  occ. eigenvalues --   -0.37512  -0.36666  -0.35944  -0.34964  -0.33661
 Alpha  occ. eigenvalues --   -0.32216  -0.30651  -0.27002  -0.26139  -0.25488
 Alpha  occ. eigenvalues --   -0.23070  -0.21852  -0.20483  -0.19562  -0.18310
 Alpha virt. eigenvalues --   -0.12826  -0.07519  -0.05141  -0.03939  -0.02801
 Alpha virt. eigenvalues --    0.02418   0.02865   0.04013   0.07244   0.07561
 Alpha virt. eigenvalues --    0.08686   0.09844   0.11262   0.12279   0.12853
 Alpha virt. eigenvalues --    0.13042   0.13747   0.14001   0.14817   0.16149
 Alpha virt. eigenvalues --    0.16708   0.17125   0.17376   0.18558   0.20473
 Alpha virt. eigenvalues --    0.20938   0.23089   0.24502   0.24957   0.26065
 Alpha virt. eigenvalues --    0.28651   0.28716   0.29235   0.31411   0.32771
 Alpha virt. eigenvalues --    0.34156   0.34545   0.36138   0.37505   0.38160
 Alpha virt. eigenvalues --    0.39398   0.40257   0.40938   0.42132   0.43309
 Alpha virt. eigenvalues --    0.44524   0.44811   0.45660   0.46690   0.46932
 Alpha virt. eigenvalues --    0.47996   0.48746   0.49676   0.50089   0.50690
 Alpha virt. eigenvalues --    0.51681   0.52150   0.52498   0.53264   0.53874
 Alpha virt. eigenvalues --    0.54459   0.54813   0.55809   0.56046   0.56299
 Alpha virt. eigenvalues --    0.56662   0.56934   0.57164   0.58006   0.59233
 Alpha virt. eigenvalues --    0.60345   0.61034   0.62115   0.62177   0.62563
 Alpha virt. eigenvalues --    0.62888   0.63891   0.63976   0.65998   0.66173
 Alpha virt. eigenvalues --    0.66790   0.67277   0.68800   0.69450   0.69710
 Alpha virt. eigenvalues --    0.70043   0.71358   0.71464   0.72552   0.73074
 Alpha virt. eigenvalues --    0.73215   0.73592   0.74593   0.75202   0.76401
 Alpha virt. eigenvalues --    0.76512   0.77032   0.77449   0.78009   0.78460
 Alpha virt. eigenvalues --    0.78858   0.79806   0.80855   0.81367   0.81581
 Alpha virt. eigenvalues --    0.81943   0.82432   0.83193   0.83590   0.84175
 Alpha virt. eigenvalues --    0.85115   0.85811   0.86428   0.87642   0.88247
 Alpha virt. eigenvalues --    0.89114   0.89501   0.91347   0.91664   0.92964
 Alpha virt. eigenvalues --    0.94280   0.94985   0.96582   0.98114   0.99337
 Alpha virt. eigenvalues --    0.99796   1.01302   1.01999   1.02833   1.03192
 Alpha virt. eigenvalues --    1.03743   1.05446   1.07878   1.10010   1.10820
 Alpha virt. eigenvalues --    1.11541   1.12308   1.12788   1.13371   1.13805
 Alpha virt. eigenvalues --    1.15075   1.18169   1.18819   1.19680   1.19914
 Alpha virt. eigenvalues --    1.21919   1.22897   1.23059   1.25647   1.26048
 Alpha virt. eigenvalues --    1.27103   1.28447   1.29319   1.29681   1.30814
 Alpha virt. eigenvalues --    1.31775   1.32736   1.33729   1.35147   1.37063
 Alpha virt. eigenvalues --    1.37563   1.38582   1.39040   1.39292   1.40666
 Alpha virt. eigenvalues --    1.41627   1.41700   1.43060   1.43925   1.45281
 Alpha virt. eigenvalues --    1.47887   1.48573   1.49755   1.50636   1.51619
 Alpha virt. eigenvalues --    1.52064   1.54358   1.55204   1.55286   1.56279
 Alpha virt. eigenvalues --    1.59047   1.59613   1.60621   1.61280   1.62513
 Alpha virt. eigenvalues --    1.63123   1.64256   1.66190   1.66561   1.68122
 Alpha virt. eigenvalues --    1.68724   1.68876   1.69948   1.73193   1.74236
 Alpha virt. eigenvalues --    1.74938   1.76451   1.76790   1.78031   1.80316
 Alpha virt. eigenvalues --    1.81011   1.81841   1.82836   1.84743   1.86074
 Alpha virt. eigenvalues --    1.86992   1.87845   1.88054   1.89829   1.91881
 Alpha virt. eigenvalues --    1.94145   1.94481   1.95467   1.98089   1.99281
 Alpha virt. eigenvalues --    2.00394   2.00704   2.03068   2.03978   2.05165
 Alpha virt. eigenvalues --    2.07494   2.09297   2.11891   2.13166   2.15889
 Alpha virt. eigenvalues --    2.16971   2.18069   2.18356   2.21042   2.21611
 Alpha virt. eigenvalues --    2.23597   2.28241   2.29295   2.29686   2.32358
 Alpha virt. eigenvalues --    2.33214   2.33988   2.36263   2.37353   2.37843
 Alpha virt. eigenvalues --    2.38656   2.39397   2.42683   2.43507   2.45540
 Alpha virt. eigenvalues --    2.46181   2.47913   2.49834   2.50809   2.52961
 Alpha virt. eigenvalues --    2.56361   2.57091   2.58953   2.60185   2.61354
 Alpha virt. eigenvalues --    2.66086   2.67124   2.67882   2.68996   2.70707
 Alpha virt. eigenvalues --    2.72076   2.72264   2.73435   2.74612   2.75997
 Alpha virt. eigenvalues --    2.77154   2.78468   2.79454   2.79982   2.81593
 Alpha virt. eigenvalues --    2.82232   2.83906   2.84603   2.85531   2.86332
 Alpha virt. eigenvalues --    2.87159   2.89022   2.89591   2.91771   2.92144
 Alpha virt. eigenvalues --    2.93087   2.94025   2.94978   2.95876   2.96444
 Alpha virt. eigenvalues --    2.97271   2.98433   2.99580   3.00508   3.01438
 Alpha virt. eigenvalues --    3.01792   3.02289   3.03774   3.04879   3.05544
 Alpha virt. eigenvalues --    3.06307   3.07168   3.07561   3.08432   3.08550
 Alpha virt. eigenvalues --    3.10236   3.12282   3.13042   3.13669   3.14745
 Alpha virt. eigenvalues --    3.16266   3.16580   3.19820   3.20066   3.20602
 Alpha virt. eigenvalues --    3.20676   3.22515   3.23623   3.24772   3.25408
 Alpha virt. eigenvalues --    3.25780   3.27412   3.27973   3.28825   3.29143
 Alpha virt. eigenvalues --    3.29893   3.30923   3.31424   3.32046   3.33852
 Alpha virt. eigenvalues --    3.35186   3.35700   3.36400   3.37179   3.37688
 Alpha virt. eigenvalues --    3.38960   3.40580   3.41095   3.41736   3.43090
 Alpha virt. eigenvalues --    3.44229   3.44728   3.45246   3.47368   3.47848
 Alpha virt. eigenvalues --    3.49388   3.49654   3.50185   3.51500   3.52588
 Alpha virt. eigenvalues --    3.53609   3.54400   3.56044   3.57740   3.57918
 Alpha virt. eigenvalues --    3.58798   3.61075   3.61620   3.63012   3.63224
 Alpha virt. eigenvalues --    3.65050   3.66313   3.68077   3.70037   3.72081
 Alpha virt. eigenvalues --    3.72764   3.73917   3.74289   3.75503   3.77858
 Alpha virt. eigenvalues --    3.79814   3.80990   3.81553   3.86170   3.86905
 Alpha virt. eigenvalues --    3.87172   3.90507   3.92120   3.92445   3.93541
 Alpha virt. eigenvalues --    3.93796   3.96342   3.97577   3.98286   4.00080
 Alpha virt. eigenvalues --    4.02000   4.02880   4.04416   4.05684   4.07477
 Alpha virt. eigenvalues --    4.07756   4.11398   4.12118   4.13710   4.15422
 Alpha virt. eigenvalues --    4.16785   4.19077   4.19318   4.20942   4.22216
 Alpha virt. eigenvalues --    4.23465   4.24556   4.26170   4.28124   4.28790
 Alpha virt. eigenvalues --    4.29470   4.30478   4.31103   4.31991   4.33960
 Alpha virt. eigenvalues --    4.35150   4.35267   4.36786   4.37572   4.38680
 Alpha virt. eigenvalues --    4.39697   4.41222   4.41312   4.42038   4.42622
 Alpha virt. eigenvalues --    4.43363   4.44627   4.46945   4.47815   4.49258
 Alpha virt. eigenvalues --    4.49775   4.51294   4.51690   4.51932   4.52841
 Alpha virt. eigenvalues --    4.54659   4.55171   4.56144   4.57375   4.57622
 Alpha virt. eigenvalues --    4.58494   4.59620   4.60009   4.60716   4.62182
 Alpha virt. eigenvalues --    4.62890   4.63468   4.64066   4.65415   4.66644
 Alpha virt. eigenvalues --    4.67557   4.68284   4.68952   4.70261   4.71176
 Alpha virt. eigenvalues --    4.72425   4.74252   4.74501   4.75590   4.76142
 Alpha virt. eigenvalues --    4.78356   4.78400   4.79822   4.80446   4.81347
 Alpha virt. eigenvalues --    4.82342   4.82857   4.84540   4.85815   4.87495
 Alpha virt. eigenvalues --    4.88197   4.89659   4.91754   4.92966   4.93762
 Alpha virt. eigenvalues --    4.95227   4.97065   4.97824   5.00250   5.01367
 Alpha virt. eigenvalues --    5.02966   5.05236   5.06051   5.07359   5.08422
 Alpha virt. eigenvalues --    5.10261   5.11961   5.13792   5.16042   5.16884
 Alpha virt. eigenvalues --    5.18515   5.20931   5.21118   5.22361   5.25575
 Alpha virt. eigenvalues --    5.26816   5.28864   5.31100   5.33634   5.35884
 Alpha virt. eigenvalues --    5.36686   5.39393   5.39872   5.41210   5.45771
 Alpha virt. eigenvalues --    5.47733   5.50018   5.53405   5.55974   5.57757
 Alpha virt. eigenvalues --    5.60026   5.65022   5.65550   5.72652   5.76199
 Alpha virt. eigenvalues --    5.77671   5.78454   5.82805   5.87488   5.97628
 Alpha virt. eigenvalues --    6.00250   6.11433   6.29450   6.42355   6.43260
 Alpha virt. eigenvalues --    6.65786   9.80444   9.86820  10.12674  10.39518
 Alpha virt. eigenvalues --   10.60223  10.75218  10.85932  11.07325  11.30001
 Alpha virt. eigenvalues --   11.37402  11.41231  11.48517  11.63447  11.90765
 Alpha virt. eigenvalues --   11.96263  12.10535  12.14852  12.26475  12.38206
 Alpha virt. eigenvalues --   12.48398  14.95127
          Condensed to atoms (all electrons):
               1          2          3          4          5          6
     1  N    6.635821   0.336589  -0.081646   0.005689  -0.000044  -0.000007
     2  C    0.336589   4.827139   0.406185  -0.042734   0.005556   0.001338
     3  C   -0.081646   0.406185   4.955653   0.625618  -0.037018  -0.006352
     4  C    0.005689  -0.042734   0.625618   4.950457   0.372621  -0.011163
     5  C   -0.000044   0.005556  -0.037018   0.372621   4.831281   0.683441
     6  C   -0.000007   0.001338  -0.006352  -0.011163   0.683441   4.819576
     7  C   -0.000000   0.000214  -0.000369   0.005072  -0.006224   0.355156
     8  C    0.000000  -0.000007   0.000022   0.000060  -0.006382  -0.021881
     9  C    0.000000  -0.000000   0.000000   0.000002  -0.000343   0.003126
    10  C    0.000000   0.000000   0.000000   0.000000   0.000008  -0.000433
    11  C    0.000000   0.000000   0.000000   0.000000  -0.000000   0.000005
    12  C   -0.000000  -0.000000   0.000000   0.000000  -0.000000   0.000007
    13  C   -0.000000   0.000000  -0.000000  -0.000000  -0.000000  -0.000137
    14  C    0.000000   0.000000   0.000000   0.000000  -0.000001  -0.000108
    15  C   -0.000000   0.000000  -0.000000   0.000001   0.000007   0.000306
    16  C    0.000000  -0.000016  -0.000005  -0.000011   0.000544  -0.000336
    17  C   -0.000006   0.001303   0.000294  -0.000719  -0.012437  -0.043823
    18  N    0.000307  -0.028199  -0.007574  -0.021364   0.001764  -0.022567
    19  C   -0.004850   0.529283  -0.051906  -0.004472  -0.009288  -0.003863
    20  H    0.346487  -0.061439  -0.000156   0.000278   0.000045   0.000003
    21  H    0.342240  -0.055480   0.009611  -0.000258   0.000017   0.000001
    22  H    0.005154  -0.053940   0.333667  -0.029590  -0.013169   0.000777
    23  H    0.001254  -0.015331  -0.043493   0.357624  -0.049244  -0.007858
    24  H   -0.000008  -0.000335  -0.009531  -0.058083   0.354208  -0.033503
    25  H   -0.000000   0.000053   0.000560  -0.014186  -0.043928   0.347098
    26  H   -0.000000   0.000000  -0.000000   0.000023   0.000750  -0.011762
    27  H    0.000000   0.000000  -0.000000   0.000000  -0.000003  -0.000037
    28  H   -0.000000  -0.000000  -0.000000  -0.000000  -0.000000  -0.000000
    29  H    0.000000   0.000000  -0.000000   0.000000  -0.000000  -0.000000
    30  H   -0.000000  -0.000000   0.000000   0.000000   0.000000   0.000000
    31  H   -0.000000  -0.000000  -0.000000  -0.000000   0.000006   0.000174
    32  H   -0.000000   0.000004   0.000000   0.000002  -0.000010  -0.000297
    33  H   -0.001686  -0.082019   0.009112   0.001951   0.000219  -0.000433
               7          8          9         10         11         12
     1  N   -0.000000   0.000000   0.000000   0.000000   0.000000  -0.000000
     2  C    0.000214  -0.000007  -0.000000   0.000000   0.000000  -0.000000
     3  C   -0.000369   0.000022   0.000000   0.000000   0.000000   0.000000
     4  C    0.005072   0.000060   0.000002   0.000000   0.000000   0.000000
     5  C   -0.006224  -0.006382  -0.000343   0.000008  -0.000000  -0.000000
     6  C    0.355156  -0.021881   0.003126  -0.000433   0.000005   0.000007
     7  C    5.219518   0.472627  -0.043171   0.001527   0.000100  -0.000149
     8  C    0.472627   5.147333   0.410290  -0.064284   0.003117   0.010464
     9  C   -0.043171   0.410290   4.779643   0.518247  -0.007270  -0.027834
    10  C    0.001527  -0.064284   0.518247   4.986645   0.421757  -0.030707
    11  C    0.000100   0.003117  -0.007270   0.421757   4.817478   0.576634
    12  C   -0.000149   0.010464  -0.027834  -0.030707   0.576634   5.110807
    13  C    0.002137  -0.045788   0.334833   0.030592  -0.011115   0.361296
    14  C    0.002137  -0.031314  -0.053434   0.012350   0.008204  -0.091470
    15  C   -0.011514   0.004482  -0.038419   0.000275   0.000001   0.006330
    16  C   -0.074486  -0.011861  -0.000803  -0.000088   0.000008  -0.000089
    17  C    0.323525  -0.038121  -0.000681   0.000291  -0.000000  -0.000009
    18  N   -0.060379   0.006047   0.000040  -0.000001  -0.000000   0.000000
    19  C    0.002487  -0.000091   0.000000   0.000000   0.000000  -0.000000
    20  H    0.000000  -0.000000   0.000000  -0.000000  -0.000000   0.000000
    21  H   -0.000000   0.000000  -0.000000   0.000000   0.000000  -0.000000
    22  H    0.000019  -0.000002   0.000000  -0.000000  -0.000000   0.000000
    23  H   -0.000480   0.000005   0.000000   0.000000  -0.000000  -0.000000
    24  H   -0.011641   0.001756  -0.000030   0.000010   0.000000  -0.000000
    25  H   -0.083194   0.000434  -0.000056   0.000012   0.000000  -0.000000
    26  H   -0.059858   0.333168  -0.055270  -0.001729   0.000561  -0.000441
    27  H    0.002664  -0.005457  -0.045231   0.363750  -0.053094   0.005975
    28  H   -0.000002  -0.000116   0.005397  -0.045547   0.372280  -0.046365
    29  H    0.000001   0.000041   0.007777   0.002953  -0.045376   0.372085
    30  H   -0.000040   0.000288   0.006421  -0.000419   0.000019  -0.010660
    31  H   -0.000583  -0.001656   0.003253  -0.000077   0.000025  -0.000466
    32  H    0.002500   0.000770  -0.000143   0.000001  -0.000000   0.000003
    33  H   -0.000120   0.000006   0.000000  -0.000000  -0.000000   0.000000
              13         14         15         16         17         18
     1  N   -0.000000   0.000000  -0.000000   0.000000  -0.000006   0.000307
     2  C    0.000000   0.000000   0.000000  -0.000016   0.001303  -0.028199
     3  C   -0.000000   0.000000  -0.000000  -0.000005   0.000294  -0.007574
     4  C   -0.000000   0.000000   0.000001  -0.000011  -0.000719  -0.021364
     5  C   -0.000000  -0.000001   0.000007   0.000544  -0.012437   0.001764
     6  C   -0.000137  -0.000108   0.000306  -0.000336  -0.043823  -0.022567
     7  C    0.002137   0.002137  -0.011514  -0.074486   0.323525  -0.060379
     8  C   -0.045788  -0.031314   0.004482  -0.011861  -0.038121   0.006047
     9  C    0.334833  -0.053434  -0.038419  -0.000803  -0.000681   0.000040
    10  C    0.030592   0.012350   0.000275  -0.000088   0.000291  -0.000001
    11  C   -0.011115   0.008204   0.000001   0.000008  -0.000000  -0.000000
    12  C    0.361296  -0.091470   0.006330  -0.000089  -0.000009   0.000000
    13  C    4.577385   0.527951   0.003011  -0.005422  -0.000017  -0.000003
    14  C    0.527951   5.192470   0.378490  -0.014692  -0.000680  -0.000002
    15  C    0.003011   0.378490   5.004694   0.564683  -0.020649   0.000224
    16  C   -0.005422  -0.014692   0.564683   5.246216   0.259676  -0.025926
    17  C   -0.000017  -0.000680  -0.020649   0.259676   4.853416   0.554767
    18  N   -0.000003  -0.000002   0.000224  -0.025926   0.554767   6.523190
    19  C   -0.000000   0.000000   0.000001  -0.000728  -0.027507   0.418102
    20  H    0.000000  -0.000000   0.000000  -0.000000  -0.000000  -0.000009
    21  H   -0.000000   0.000000  -0.000000   0.000000   0.000001  -0.000003
    22  H   -0.000000   0.000000   0.000000  -0.000000  -0.000036  -0.000471
    23  H   -0.000000   0.000000   0.000000  -0.000005   0.000052  -0.001520
    24  H    0.000001   0.000000   0.000002   0.000024   0.003791  -0.001833
    25  H    0.000012   0.000027   0.000332   0.002522   0.012105  -0.004793
    26  H    0.000635   0.003412   0.005158   0.000308   0.003127  -0.000206
    27  H    0.008826  -0.000324  -0.000016   0.000006   0.000012  -0.000000
    28  H    0.004244  -0.000203   0.000004  -0.000000  -0.000000   0.000000
    29  H   -0.041931  -0.004656  -0.000055   0.000001  -0.000000  -0.000000
    30  H   -0.020442   0.347546  -0.051531   0.001418  -0.000022  -0.000000
    31  H   -0.003141  -0.042295   0.337047  -0.041454   0.003153  -0.000029
    32  H    0.000176   0.003053  -0.041619   0.335476  -0.035469   0.000456
    33  H   -0.000000  -0.000000  -0.000001   0.000113  -0.000642  -0.037886
              19         20         21         22         23         24
     1  N   -0.004850   0.346487   0.342240   0.005154   0.001254  -0.000008
     2  C    0.529283  -0.061439  -0.055480  -0.053940  -0.015331  -0.000335
     3  C   -0.051906  -0.000156   0.009611   0.333667  -0.043493  -0.009531
     4  C   -0.004472   0.000278  -0.000258  -0.029590   0.357624  -0.058083
     5  C   -0.009288   0.000045   0.000017  -0.013169  -0.049244   0.354208
     6  C   -0.003863   0.000003   0.000001   0.000777  -0.007858  -0.033503
     7  C    0.002487   0.000000  -0.000000   0.000019  -0.000480  -0.011641
     8  C   -0.000091  -0.000000   0.000000  -0.000002   0.000005   0.001756
     9  C    0.000000   0.000000  -0.000000   0.000000   0.000000  -0.000030
    10  C    0.000000  -0.000000   0.000000  -0.000000   0.000000   0.000010
    11  C    0.000000  -0.000000   0.000000  -0.000000  -0.000000   0.000000
    12  C   -0.000000   0.000000  -0.000000   0.000000  -0.000000  -0.000000
    13  C   -0.000000   0.000000  -0.000000  -0.000000  -0.000000   0.000001
    14  C    0.000000  -0.000000   0.000000   0.000000   0.000000   0.000000
    15  C    0.000001   0.000000  -0.000000   0.000000   0.000000   0.000002
    16  C   -0.000728  -0.000000   0.000000  -0.000000  -0.000005   0.000024
    17  C   -0.027507  -0.000000   0.000001  -0.000036   0.000052   0.003791
    18  N    0.418102  -0.000009  -0.000003  -0.000471  -0.001520  -0.001833
    19  C    4.902006   0.002039  -0.000418   0.005511   0.010860  -0.000005
    20  H    0.002039   0.511866  -0.044641   0.004809   0.000034  -0.000002
    21  H   -0.000418  -0.044641   0.500346  -0.000472  -0.000037   0.000003
    22  H    0.005511   0.004809  -0.000472   0.636136   0.007041   0.005278
    23  H    0.010860   0.000034  -0.000037   0.007041   0.626872   0.005780
    24  H   -0.000005  -0.000002   0.000003   0.005278   0.005780   0.637670
    25  H   -0.000107  -0.000000   0.000000   0.000002   0.006592   0.009413
    26  H    0.000009  -0.000000  -0.000000  -0.000000   0.000006   0.000183
    27  H   -0.000000  -0.000000   0.000000  -0.000000   0.000000   0.000021
    28  H   -0.000000   0.000000  -0.000000   0.000000  -0.000000   0.000000
    29  H   -0.000000  -0.000000   0.000000  -0.000000  -0.000000   0.000000
    30  H   -0.000000   0.000000   0.000000  -0.000000  -0.000000   0.000000
    31  H   -0.000000  -0.000000   0.000000  -0.000000  -0.000000  -0.000000
    32  H    0.000079   0.000000  -0.000000   0.000000   0.000002   0.000001
    33  H    0.361905  -0.000388   0.000086  -0.000320   0.000019  -0.000006
              25         26         27         28         29         30
     1  N   -0.000000  -0.000000   0.000000  -0.000000   0.000000  -0.000000
     2  C    0.000053   0.000000   0.000000  -0.000000   0.000000  -0.000000
     3  C    0.000560  -0.000000  -0.000000  -0.000000  -0.000000   0.000000
     4  C   -0.014186   0.000023   0.000000  -0.000000   0.000000   0.000000
     5  C   -0.043928   0.000750  -0.000003  -0.000000  -0.000000   0.000000
     6  C    0.347098  -0.011762  -0.000037  -0.000000  -0.000000   0.000000
     7  C   -0.083194  -0.059858   0.002664  -0.000002   0.000001  -0.000040
     8  C    0.000434   0.333168  -0.005457  -0.000116   0.000041   0.000288
     9  C   -0.000056  -0.055270  -0.045231   0.005397   0.007777   0.006421
    10  C    0.000012  -0.001729   0.363750  -0.045547   0.002953  -0.000419
    11  C    0.000000   0.000561  -0.053094   0.372280  -0.045376   0.000019
    12  C   -0.000000  -0.000441   0.005975  -0.046365   0.372085  -0.010660
    13  C    0.000012   0.000635   0.008826   0.004244  -0.041931  -0.020442
    14  C    0.000027   0.003412  -0.000324  -0.000203  -0.004656   0.347546
    15  C    0.000332   0.005158  -0.000016   0.000004  -0.000055  -0.051531
    16  C    0.002522   0.000308   0.000006  -0.000000   0.000001   0.001418
    17  C    0.012105   0.003127   0.000012  -0.000000  -0.000000  -0.000022
    18  N   -0.004793  -0.000206  -0.000000   0.000000  -0.000000  -0.000000
    19  C   -0.000107   0.000009  -0.000000  -0.000000  -0.000000  -0.000000
    20  H   -0.000000  -0.000000  -0.000000   0.000000  -0.000000   0.000000
    21  H    0.000000  -0.000000   0.000000  -0.000000   0.000000   0.000000
    22  H    0.000002  -0.000000  -0.000000   0.000000  -0.000000  -0.000000
    23  H    0.006592   0.000006   0.000000  -0.000000  -0.000000  -0.000000
    24  H    0.009413   0.000183   0.000021   0.000000   0.000000   0.000000
    25  H    0.680116   0.008639   0.000006   0.000000   0.000000   0.000000
    26  H    0.008639   0.668091   0.000221   0.000007  -0.000002   0.000085
    27  H    0.000006   0.000221   0.625091  -0.001963  -0.000143   0.000007
    28  H    0.000000   0.000007  -0.001963   0.611376  -0.002892  -0.000002
    29  H    0.000000  -0.000002  -0.000143  -0.002892   0.602591   0.002434
    30  H    0.000000   0.000085   0.000007  -0.000002   0.002434   0.610549
    31  H   -0.000108  -0.000572  -0.000000  -0.000000   0.000002   0.000977
    32  H    0.000216   0.000332   0.000000   0.000000  -0.000000  -0.000156
    33  H   -0.000168  -0.000001  -0.000000  -0.000000   0.000000   0.000000
              31         32         33
     1  N   -0.000000  -0.000000  -0.001686
     2  C   -0.000000   0.000004  -0.082019
     3  C   -0.000000   0.000000   0.009112
     4  C   -0.000000   0.000002   0.001951
     5  C    0.000006  -0.000010   0.000219
     6  C    0.000174  -0.000297  -0.000433
     7  C   -0.000583   0.002500  -0.000120
     8  C   -0.001656   0.000770   0.000006
     9  C    0.003253  -0.000143   0.000000
    10  C   -0.000077   0.000001  -0.000000
    11  C    0.000025  -0.000000  -0.000000
    12  C   -0.000466   0.000003   0.000000
    13  C   -0.003141   0.000176  -0.000000
    14  C   -0.042295   0.003053  -0.000000
    15  C    0.337047  -0.041619  -0.000001
    16  C   -0.041454   0.335476   0.000113
    17  C    0.003153  -0.035469  -0.000642
    18  N   -0.000029   0.000456  -0.037886
    19  C   -0.000000   0.000079   0.361905
    20  H   -0.000000   0.000000  -0.000388
    21  H    0.000000  -0.000000   0.000086
    22  H   -0.000000   0.000000  -0.000320
    23  H   -0.000000   0.000002   0.000019
    24  H   -0.000000   0.000001  -0.000006
    25  H   -0.000108   0.000216  -0.000168
    26  H   -0.000572   0.000332  -0.000001
    27  H   -0.000000   0.000000  -0.000000
    28  H   -0.000000   0.000000  -0.000000
    29  H    0.000002  -0.000000   0.000000
    30  H    0.000977  -0.000156   0.000000
    31  H    0.604581  -0.009595   0.000000
    32  H   -0.009595   0.608212  -0.000035
    33  H    0.000000  -0.000035   0.617984
 Mulliken charges:
               1
     1  N   -0.585293
     2  C    0.231837
     3  C   -0.102672
     4  C   -0.136818
     5  C   -0.072373
     6  C   -0.046448
     7  C   -0.037475
     8  C   -0.163950
     9  C    0.203655
    10  C   -0.195131
    11  C   -0.083334
    12  C   -0.235409
    13  C    0.276895
    14  C   -0.236461
    15  C   -0.141241
    16  C   -0.235070
    17  C    0.165305
    18  N   -0.292129
    19  C   -0.129048
    20  H    0.241074
    21  H    0.249003
    22  H    0.099608
    23  H    0.101826
    24  H    0.096836
    25  H    0.078401
    26  H    0.105125
    27  H    0.099691
    28  H    0.103781
    29  H    0.107170
    30  H    0.113528
    31  H    0.150761
    32  H    0.136043
    33  H    0.132311
 Sum of Mulliken charges =  -0.00000
 Mulliken charges with hydrogens summed into heavy atoms:
               1
     1  N   -0.095216
     2  C    0.231837
     3  C   -0.003064
     4  C   -0.034992
     5  C    0.024463
     6  C    0.031953
     7  C   -0.037475
     8  C   -0.058824
     9  C    0.203655
    10  C   -0.095441
    11  C    0.020447
    12  C   -0.128239
    13  C    0.276895
    14  C   -0.122933
    15  C    0.009520
    16  C   -0.099027
    17  C    0.165305
    18  N   -0.292129
    19  C    0.003264
 Electronic spatial extent (au):  <R**2>=           6449.0559
 Charge=             -0.0000 electrons
 Dipole moment (field-independent basis, Debye):
    X=             -0.0502    Y=             -0.7301    Z=              1.8710  Tot=              2.0090
 Quadrupole moment (field-independent basis, Debye-Ang):
   XX=            -90.5162   YY=           -108.2505   ZZ=           -112.3004
   XY=             -7.4439   XZ=              3.8156   YZ=              8.1607
 Traceless Quadrupole moment (field-independent basis, Debye-Ang):
   XX=             13.1729   YY=             -4.5615   ZZ=             -8.6114
   XY=             -7.4439   XZ=              3.8156   YZ=              8.1607
 Octapole moment (field-independent basis, Debye-Ang**2):
  XXX=             31.3442  YYY=            -11.4570  ZZZ=              4.8158  XYY=             -4.8392
  XXY=            -45.9967  XXZ=             21.7068  XZZ=              4.2036  YZZ=             -0.9279
  YYZ=             -4.7756  XYZ=             13.3762
 Hexadecapole moment (field-independent basis, Debye-Ang**3):
 XXXX=          -6439.8092 YYYY=          -1205.4117 ZZZZ=           -365.0106 XXXY=           -327.6369
 XXXZ=            205.0099 YYYX=             49.1483 YYYZ=             36.9397 ZZZX=            -13.4389
 ZZZY=             18.2878 XXYY=          -1360.8646 XXZZ=          -1344.8345 YYZZ=           -270.2775
 XXYZ=            144.0706 YYXZ=             -0.0804 ZZXY=            -16.5523
 N-N= 1.235936341877D+03 E-N=-4.246059098232D+03  KE= 7.581567398625D+02
 PrsmSu:  requested number of processors reduced to:  12 ShMem   1 Linda.
 Calling FoFJK, ICntrl=      2127 FMM=F ISym2X=0 I1Cent= 0 IOpClX= 0 NMat=1 NMatS=1 NMatT=0.
 ***** Axes restored to original set *****
 -------------------------------------------------------------------
 Center     Atomic                   Forces (Hartrees/Bohr)
 Number     Number              X              Y              Z
 -------------------------------------------------------------------
      1        7          -0.011497199    0.010911966   -0.018327843
      2        6           0.018518932   -0.028024320    0.033541770
      3        6          -0.018909261    0.045874667   -0.004090833
      4        6           0.052283006    0.017180261    0.010507258
      5        6          -0.124758547   -0.025453518    0.037548916
      6        6           0.115850099    0.017682800   -0.060477000
      7        6          -0.022669554   -0.032675148   -0.037896167
      8        6           0.042877225    0.023515344   -0.001365232
      9        6          -0.005973819    0.010849801   -0.006893127
     10        6          -0.010797006    0.001797233    0.022746616
     11        6          -0.003831992   -0.001592758    0.007905045
     12        6          -0.000326143    0.001250194   -0.003748580
     13        6           0.002982462   -0.003952480    0.013279005
     14        6          -0.010601634    0.005176345   -0.030865977
     15        6          -0.012441460   -0.007006900    0.038811997
     16        6           0.001515364   -0.027229363   -0.009050813
     17        6          -0.092573920    0.022156723    0.038559726
     18        7           0.040609724    0.010128774   -0.010256357
     19        6           0.018783766   -0.027585133   -0.004261755
     20        1           0.020203803    0.013617569   -0.007671905
     21        1           0.022070367    0.009748796   -0.009223408
     22        1           0.001338515   -0.008428130    0.011792638
     23        1          -0.008292448   -0.002590705    0.012110662
     24        1           0.013278120   -0.018289602    0.007219325
     25        1          -0.009192109   -0.006334000    0.021769920
     26        1          -0.008052645   -0.018784796    0.025838869
     27        1          -0.004417264    0.000273769    0.002533495
     28        1           0.000375020   -0.001168038   -0.001403048
     29        1          -0.003680971   -0.002135932   -0.007891136
     30        1          -0.014953642   -0.005147715   -0.008850426
     31        1           0.012636781    0.007530327   -0.051422645
     32        1          -0.004291642   -0.016900524    0.006934471
     33        1           0.003938073    0.035604494   -0.017403459
 -------------------------------------------------------------------
 Cartesian Forces:  Max     0.124758547 RMS     0.027783401

 GradGradGradGradGradGradGradGradGradGradGradGradGradGradGradGradGradGrad
 Berny optimization.
 FormGI is forming the generalized inverse of G from B-inverse, IUseBI=4.
 Internal  Forces:  Max     0.117495965 RMS     0.022764655
 Search for a local minimum.
 Step number   1 out of a maximum of  181
 All quantities printed in internal units (Hartrees-Bohrs-Radians)
 Mixed Optimization -- RFO/linear search
 Second derivative matrix not updated -- first step.
 ITU=  0
     Eigenvalues ---    0.00294   0.00381   0.00667   0.00722   0.00780
     Eigenvalues ---    0.00921   0.01148   0.01270   0.01408   0.01451
     Eigenvalues ---    0.01648   0.01655   0.01764   0.01885   0.01949
     Eigenvalues ---    0.02000   0.02042   0.02179   0.02339   0.02377
     Eigenvalues ---    0.02481   0.02591   0.03048   0.03227   0.03325
     Eigenvalues ---    0.03465   0.04013   0.04908   0.05600   0.08037
     Eigenvalues ---    0.08594   0.10547   0.11626   0.12137   0.13762
     Eigenvalues ---    0.14061   0.14223   0.14396   0.14561   0.14750
     Eigenvalues ---    0.15218   0.15507   0.15808   0.15899   0.15920
     Eigenvalues ---    0.15999   0.16000   0.16000   0.17534   0.18288
     Eigenvalues ---    0.21247   0.22048   0.22229   0.22317   0.22535
     Eigenvalues ---    0.23251   0.23746   0.23889   0.24011   0.24753
     Eigenvalues ---    0.27695   0.28022   0.31049   0.31132   0.31505
     Eigenvalues ---    0.32327   0.32421   0.32530   0.32816   0.32993
     Eigenvalues ---    0.33544   0.33674   0.33959   0.34033   0.34696
     Eigenvalues ---    0.35158   0.35351   0.35404   0.36003   0.36330
     Eigenvalues ---    0.36697   0.36819   0.37060   0.40461   0.41481
     Eigenvalues ---    0.41989   0.48003   0.51256   0.55267   0.55568
     Eigenvalues ---    0.57992   0.60318   0.77715
 RFO step:  Lambda=-1.98019880D-01 EMin= 2.94428682D-03
 Linear search not attempted -- first point.
 Maximum step size (   0.300) exceeded in Quadratic search.
    -- Step size scaled by   0.514
 Iteration  1 RMS(Cart)=  0.12549245 RMS(Int)=  0.00329217
 Iteration  2 RMS(Cart)=  0.00804955 RMS(Int)=  0.00041637
 Iteration  3 RMS(Cart)=  0.00001813 RMS(Int)=  0.00041629
 Iteration  4 RMS(Cart)=  0.00000001 RMS(Int)=  0.00041629
 Variable       Old X    -DE/DX   Delta X   Delta X   Delta X     New X
                                 (Linear)    (Quad)   (Total)
    R1        2.78409  -0.02669   0.00000  -0.02486  -0.02486   2.75923
    R2        1.97632  -0.01777   0.00000  -0.01515  -0.01515   1.96117
    R3        1.95637  -0.01164   0.00000  -0.00968  -0.00968   1.94669
    R4        2.75575   0.02702   0.00000   0.02525   0.02493   2.78068
    R5        2.74839  -0.03757   0.00000  -0.04078  -0.04126   2.70713
    R6        2.51224   0.02637   0.00000   0.02233   0.02258   2.53481
    R7        2.06171   0.00310   0.00000   0.00292   0.00292   2.06463
    R8        2.81416  -0.02865   0.00000  -0.02201  -0.02198   2.79218
    R9        2.09375  -0.01244   0.00000  -0.01215  -0.01215   2.08160
   R10        2.37992   0.09156   0.00000   0.05200   0.05246   2.43239
   R11        2.11758  -0.01819   0.00000  -0.01821  -0.01821   2.09937
   R12        2.84710  -0.00390   0.00000  -0.00044  -0.00025   2.84685
   R13        2.12462  -0.01622   0.00000  -0.01636  -0.01636   2.10826
   R14        2.53445   0.02243   0.00000   0.01656   0.01670   2.55115
   R15        3.05174  -0.01977   0.00000  -0.02389  -0.02342   3.02832
   R16        2.75013  -0.01025   0.00000  -0.00714  -0.00699   2.74313
   R17        2.08107   0.00154   0.00000   0.00148   0.00148   2.08255
   R18        2.53983   0.01857   0.00000   0.01317   0.01321   2.55304
   R19        2.76213   0.00461   0.00000   0.00597   0.00601   2.76813
   R20        2.76628   0.00167   0.00000   0.00175   0.00172   2.76800
   R21        2.03568   0.00455   0.00000   0.00416   0.00416   2.03984
   R22        2.54111   0.01624   0.00000   0.01044   0.01038   2.55150
   R23        2.05024  -0.00171   0.00000  -0.00159  -0.00159   2.04865
   R24        2.80022  -0.00564   0.00000  -0.00600  -0.00600   2.79422
   R25        2.05419  -0.00440   0.00000  -0.00411  -0.00411   2.05008
   R26        2.49744   0.04074   0.00000   0.02525   0.02506   2.52250
   R27        2.91024  -0.01811   0.00000  -0.02177  -0.02196   2.88829
   R28        2.10081  -0.01309   0.00000  -0.01288  -0.01288   2.08793
   R29        2.68122  -0.03653   0.00000  -0.03194  -0.03206   2.64917
   R30        2.09886  -0.00365   0.00000  -0.00358  -0.00358   2.09527
   R31        3.39831  -0.04432   0.00000  -0.06989  -0.06988   3.32843
   R32        2.07274  -0.00044   0.00000  -0.00042  -0.00042   2.07232
   R33        2.60561  -0.11750   0.00000  -0.09386  -0.09409   2.51152
   R34        2.91856  -0.07890   0.00000  -0.09279  -0.09296   2.82561
   R35        2.07883  -0.00265   0.00000  -0.00255  -0.00255   2.07629
    A1        1.91668  -0.01757   0.00000  -0.02426  -0.02436   1.89232
    A2        2.02436  -0.02271   0.00000  -0.03178  -0.03186   1.99249
    A3        1.65220   0.02290   0.00000   0.03480   0.03459   1.68678
    A4        1.89925   0.04938   0.00000   0.06176   0.06227   1.96152
    A5        2.40005  -0.07656   0.00000  -0.08250  -0.08225   2.31780
    A6        1.97506   0.02832   0.00000   0.02376   0.02285   1.99791
    A7        2.02139  -0.00206   0.00000   0.00662   0.00713   2.02852
    A8        1.95457   0.01384   0.00000   0.01846   0.01799   1.97256
    A9        2.15499  -0.01040   0.00000  -0.01628  -0.01653   2.13846
   A10        1.96346   0.00771   0.00000   0.02598   0.02548   1.98893
   A11        2.05554  -0.01277   0.00000  -0.01971  -0.01909   2.03646
   A12        1.96996   0.00156   0.00000  -0.00174  -0.00180   1.96816
   A13        2.12305  -0.05981   0.00000  -0.05659  -0.05576   2.06728
   A14        1.92909   0.02681   0.00000   0.02485   0.02388   1.95296
   A15        2.04868   0.01526   0.00000   0.01126   0.01112   2.05980
   A16        2.06282  -0.02663   0.00000  -0.02791  -0.02753   2.03530
   A17        2.14093  -0.00530   0.00000  -0.01009  -0.00974   2.13119
   A18        1.89707   0.02120   0.00000   0.02534   0.02462   1.92170
   A19        1.91704   0.01038   0.00000   0.01886   0.01905   1.93609
   A20        1.71920   0.00003   0.00000   0.00698   0.00677   1.72597
   A21        2.20795  -0.00424   0.00000  -0.00573  -0.00619   2.20176
   A22        2.34828  -0.03437   0.00000  -0.04022  -0.03985   2.30842
   A23        1.98852   0.01565   0.00000   0.01926   0.01910   2.00762
   A24        1.89696   0.01754   0.00000   0.02157   0.02156   1.91852
   A25        2.20644   0.00780   0.00000   0.00573   0.00531   2.21175
   A26        2.20502  -0.02184   0.00000  -0.02020  -0.01970   2.18532
   A27        1.83788   0.01491   0.00000   0.01652   0.01641   1.85429
   A28        1.93577  -0.01476   0.00000  -0.01560  -0.01551   1.92026
   A29        2.18347   0.00745   0.00000   0.00781   0.00777   2.19124
   A30        2.15611   0.00709   0.00000   0.00752   0.00748   2.16359
   A31        1.90805   0.00164   0.00000   0.00249   0.00248   1.91052
   A32        2.16061  -0.00059   0.00000  -0.00090  -0.00090   2.15971
   A33        2.21450  -0.00104   0.00000  -0.00155  -0.00155   2.21295
   A34        1.84349   0.00852   0.00000   0.00983   0.00983   1.85332
   A35        2.17403   0.00311   0.00000   0.00562   0.00561   2.17964
   A36        2.26214  -0.01182   0.00000  -0.01585  -0.01585   2.24629
   A37        1.89364  -0.01030   0.00000  -0.01318  -0.01318   1.88046
   A38        2.09813   0.01034   0.00000   0.01500   0.01507   2.11320
   A39        2.29004  -0.00040   0.00000  -0.00263  -0.00281   2.28723
   A40        2.19242   0.01492   0.00000   0.01763   0.01760   2.21002
   A41        2.01893   0.00644   0.00000   0.01163   0.01160   2.03053
   A42        2.06314  -0.02029   0.00000  -0.02689  -0.02698   2.03616
   A43        2.50305  -0.04655   0.00000  -0.05581  -0.05567   2.44738
   A44        1.67696   0.03778   0.00000   0.05410   0.05466   1.73162
   A45        1.95074   0.00819   0.00000   0.01255   0.01304   1.96378
   A46        2.39172   0.01541   0.00000   0.01689   0.01702   2.40874
   A47        1.85803   0.00085   0.00000   0.00399   0.00400   1.86202
   A48        1.81070  -0.00949   0.00000  -0.01048  -0.01074   1.79996
   A49        1.78085   0.02193   0.00000   0.03240   0.03283   1.81368
   A50        1.94933   0.04649   0.00000   0.04651   0.04681   1.99614
   A51        2.54602  -0.06950   0.00000  -0.08093  -0.08176   2.46426
   A52        2.28326  -0.03104   0.00000  -0.05696  -0.05755   2.22572
   A53        1.83611   0.04037   0.00000   0.06577   0.06644   1.90255
   A54        2.01317  -0.00528   0.00000   0.00235   0.00284   2.01601
   A55        3.25423   0.03408   0.00000   0.06003   0.06042   3.31465
   A56        3.31320   0.01817   0.00000   0.03555   0.03535   3.34856
    D1        0.72141  -0.00739   0.00000  -0.01587  -0.01549   0.70592
    D2       -2.57958   0.00922   0.00000   0.01771   0.01751  -2.56207
    D3       -1.12466  -0.01311   0.00000  -0.02745  -0.02725  -1.15192
    D4        1.85753   0.00350   0.00000   0.00612   0.00575   1.86328
    D5        2.37516   0.00272   0.00000   0.00073   0.00176   2.37692
    D6       -1.30958   0.00156   0.00000   0.00935   0.01039  -1.29919
    D7       -0.64956   0.00183   0.00000  -0.01202  -0.01331  -0.66287
    D8        1.94888   0.00067   0.00000  -0.00340  -0.00468   1.94420
[...]
 ! D48   D(10,9,13,14)         169.6945         calculate D2E/DX2 analytically  !
 ! D49   D(9,10,11,12)          -1.9827         calculate D2E/DX2 analytically  !
 ! D50   D(9,10,11,28)         178.582          calculate D2E/DX2 analytically  !
 ! D51   D(27,10,11,12)        178.4374         calculate D2E/DX2 analytically  !
 ! D52   D(27,10,11,28)         -0.9979         calculate D2E/DX2 analytically  !
 ! D53   D(10,11,12,13)          0.5729         calculate D2E/DX2 analytically  !
 ! D54   D(10,11,12,29)       -178.489          calculate D2E/DX2 analytically  !
 ! D55   D(28,11,12,13)        179.9953         calculate D2E/DX2 analytically  !
 ! D56   D(28,11,12,29)          0.9334         calculate D2E/DX2 analytically  !
 ! D57   D(11,12,13,9)           0.8895         calculate D2E/DX2 analytically  !
 ! D58   D(11,12,13,14)       -172.2466         calculate D2E/DX2 analytically  !
 ! D59   D(29,12,13,9)         179.9984         calculate D2E/DX2 analytically  !
 ! D60   D(29,12,13,14)          6.8623         calculate D2E/DX2 analytically  !
 ! D61   D(9,13,14,15)          10.2734         calculate D2E/DX2 analytically  !
 ! D62   D(9,13,14,30)        -169.9924         calculate D2E/DX2 analytically  !
 ! D63   D(12,13,14,15)       -178.8722         calculate D2E/DX2 analytically  !
 ! D64   D(12,13,14,30)          0.862          calculate D2E/DX2 analytically  !
 ! D65   D(13,14,15,16)         23.5815         calculate D2E/DX2 analytically  !
 ! D66   D(13,14,15,31)       -165.8421         calculate D2E/DX2 analytically  !
 ! D67   D(30,14,15,16)       -156.1555         calculate D2E/DX2 analytically  !
 ! D68   D(30,14,15,31)         14.4209         calculate D2E/DX2 analytically  !
 ! D69   D(14,15,16,17)         -4.402          calculate D2E/DX2 analytically  !
 ! D70   D(14,15,16,32)        168.6809         calculate D2E/DX2 analytically  !
 ! D71   D(31,15,16,17)       -174.8105         calculate D2E/DX2 analytically  !
 ! D72   D(31,15,16,32)         -1.7277         calculate D2E/DX2 analytically  !
 ! D73   D(15,16,17,7)         -56.755          calculate D2E/DX2 analytically  !
 ! D74   D(15,16,17,18)        138.6276         calculate D2E/DX2 analytically  !
 ! D75   D(32,16,17,7)         130.0397         calculate D2E/DX2 analytically  !
 ! D76   D(32,16,17,18)        -34.5777         calculate D2E/DX2 analytically  !
 ! D77   D(7,17,19,2)           -7.2083         calculate D2E/DX2 analytically  !
 ! D78   D(7,17,19,33)         168.6113         calculate D2E/DX2 analytically  !
 ! D79   D(16,17,19,2)         157.6528         calculate D2E/DX2 analytically  !
 ! D80   D(16,17,19,33)        -26.5276         calculate D2E/DX2 analytically  !
 --------------------------------------------------------------------------------
 Trust Radius=3.00D-01 FncErr=1.00D-07 GrdErr=1.00D-07 EigMax=2.50D+02 EigMin=1.00D-04
 Number of steps in this run=      2 maximum allowed number of steps=      2.
 GradGradGradGradGradGradGradGradGradGradGradGradGradGradGradGradGradGrad

                          Input orientation:                          
 ---------------------------------------------------------------------
 Center     Atomic      Atomic             Coordinates (Angstroms)
 Number     Number       Type             X           Y           Z
 ---------------------------------------------------------------------
      1          7           0        2.764878    2.208175   -0.445077
      2          6           0        3.880053    1.796254    0.259796
      3          6           0        3.753047    0.948185    1.395387
      4          6           0        4.929415    0.305922    1.785719
      5          6           0        5.683089    0.562964    2.959669
      6          6           0        7.041489    0.611314    2.720921
      7          6           0        7.694977    1.938692    2.663964
      8          6           0        8.408266    2.532033    3.634208
      9          6           0        9.085318    3.804226    3.695156
     10          6           0        9.394067    4.406871    4.888480
     11          6           0       10.093951    5.653274    4.658380
     12          6           0       10.261551    5.807814    3.320116
     13          6           0        9.660622    4.666998    2.631867
     14          6           0        9.838922    4.514898    1.290476
     15          6           0        9.403132    3.567793    0.297611
     16          6           0        8.343597    2.726413    0.257195
     17          6           0        7.320994    2.436668    1.261039
     18          7           0        6.080504    2.302330    0.938184
     19          6           0        5.150219    2.391338    0.003259
     20          1           0        2.073152    1.507048   -0.655695
     21          1           0        2.918539    2.864451   -1.195594
     22          1           0        2.924232    1.127453    2.075564
     23          1           0        5.510622   -0.129020    0.976427
     24          1           0        5.243788    1.211609    3.713476
     25          1           0        7.413483   -0.076572    1.957930
     26          1           0        8.468471    1.969820    4.565324
     27          1           0        9.141772    4.007291    5.862914
     28          1           0       10.427738    6.328932    5.434684
     29          1           0       10.764034    6.616715    2.807246
     30          1           0       10.457968    5.297698    0.851612
     31          1           0        9.958035    3.652260   -0.634892
     32          1           0        8.150741    2.254718   -0.708039
     33          1           0        5.255094    3.028586   -0.884578
 ---------------------------------------------------------------------
                    Distance matrix (angstroms):
                    1          2          3          4          5
     1  N    0.000000
     2  C    1.382079   0.000000
     3  C    2.439541   1.422996   0.000000
     4  C    3.644206   2.377118   1.395960   0.000000
     5  C    4.776502   3.472931   2.514048   1.418539   0.000000
     6  C    5.555440   4.178025   3.561513   2.329962   1.380068
     7  C    5.834778   4.511535   4.257840   3.329503   2.455150
     8  C    6.970889   5.694975   5.402959   4.524919   3.429114
     9  C    7.722492   6.551979   6.471400   5.758091   4.756247
    10  C    8.787903   7.657962   7.482333   6.810142   5.680430
    11  C    9.572319   8.534440   8.543538   7.969868   6.946407
    12  C    9.128756   8.135212   8.347526   7.813889   6.971419
    13  C    7.941328   6.876254   7.089280   6.489936   5.724624
    14  C    7.640367   6.630342   7.054808   6.485677   5.972849
    15  C    6.816639   5.800360   6.323837   5.733098   5.473049
    16  C    5.646580   4.559432   5.052794   4.455536   4.366025
    17  C    4.870445   3.640424   3.868317   3.245769   3.013111
    18  N    3.593836   2.357606   2.731263   2.455396   2.696244
    19  C    2.434010   1.425923   2.443931   2.752250   3.516712
    20  H    1.007186   2.046132   2.709486   3.944800   5.195555
    21  H    1.008755   2.045414   3.328913   4.413380   5.495979
    22  H    2.747178   2.158217   1.087066   2.186248   2.951539
    23  H    3.875857   2.622784   2.103562   1.087166   2.107566
    24  H    4.942844   3.758921   2.768617   2.152986   1.087176
    25  H    5.709995   4.344682   3.842574   2.519237   2.099226
    26  H    7.595520   6.294543   5.772995   4.797883   3.509377
    27  H    9.148353   7.998081   7.639063   6.933081   5.679323
    28  H   10.501031   9.497200   9.477334   8.934381   7.866624
    29  H    9.695326   8.781545   9.125761   8.655196   7.904880
    30  H    8.391078   7.475247   8.010612   7.507015   7.047061
    31  H    7.339137   6.417717   7.066536   6.507254   6.382772
    32  H    5.392480   4.402916   5.046894   4.515925   4.733224
    33  H    2.658460   2.172320   3.432558   3.827460   4.587015
                    6          7          8          9         10
     6  C    0.000000
     7  C    1.480616   0.000000
     8  C    2.528109   1.342464   0.000000
     9  C    3.914213   2.544921   1.442425   0.000000
    10  C    4.963788   3.731928   2.461711   1.372053   0.000000
    11  C    6.204243   4.850865   3.692236   2.316057   1.447862
    12  C    6.142593   4.689130   3.776779   2.353411   2.274849
    13  C    4.828702   3.362803   2.670423   1.485238   2.287142
    14  C    5.010965   3.622127   3.386976   2.618293   3.627010
    15  C    4.493390   3.342362   3.632552   3.420558   4.666927
    16  C    3.498439   2.614144   3.383221   3.678506   5.037482
    17  C    2.353996   1.534940   2.612123   3.302723   4.619271
    18  N    2.638405   2.391040   3.569284   4.345744   5.568988
    19  C    3.759132   3.709452   4.880416   5.577756   6.777758
    20  H    6.073570   6.543039   7.719296   8.566061   9.630298
    21  H    6.116734   6.210280   7.319467   7.926650   9.018175
    22  H    4.199368   4.874867   5.871699   6.909933   7.779835
    23  H    2.436166   3.448858   4.747773   5.969955   7.138600
    24  H    2.139451   2.763775   3.429829   4.634582   5.367974
    25  H    1.092576   2.153837   3.256428   4.568761   5.710700
    26  H    2.698822   2.052909   1.089351   2.121965   2.626856
    27  H    5.080942   4.074997   2.771561   2.177981   1.082977
    28  H    7.177907   5.866777   4.662234   3.346967   2.249696
    29  H    7.066091   5.596744   4.787289   3.393607   3.330429
    30  H    6.093344   4.711863   4.426401   3.492903   4.268696
    31  H    5.386564   4.352033   4.677810   4.419733   5.603136
    32  H    3.960932   3.417308   4.358707   4.760518   6.123614
    33  H    4.694043   4.442189   5.532494   6.020482   7.235949
                   11         12         13         14         15
    11  C    0.000000
    12  C    1.357543   0.000000
    13  C    2.295053   1.461596   0.000000
    14  C    3.564227   2.443294   1.361710   0.000000
    15  C    4.882905   3.858771   2.592933   1.439688   0.000000
    16  C    5.567826   4.749217   3.337588   2.549969   1.353576
    17  C    5.438545   4.924561   3.511040   3.264945   2.557916
    18  N    6.416887   5.953416   4.612750   4.375530   3.612698
    19  C    7.533317   6.985668   5.694905   5.305692   4.422438
    20  H   10.476822  10.067449   8.852291   8.552305   7.673595
    21  H    9.671250   9.109053   7.959543   7.536326   6.691360
    22  H    8.863344   8.791526   7.629994   7.739772   7.147903
    23  H    8.246127   7.956771   6.554752   6.356003   5.410993
    24  H    6.644194   6.815994   5.711219   6.156127   5.875362
    25  H    6.878115   6.677802   5.292001   5.235441   4.471773
    26  H    4.027241   4.415413   3.526223   4.368087   4.651933
    27  H    2.250957   3.310833   3.338276   4.653050   5.588745
    28  H    1.081932   2.184167   3.347578   4.562005   5.921421
    29  H    2.191786   1.081594   2.247148   2.752101   4.176871
    30  H    3.840628   2.528302   2.050086   1.090227   2.100516
    31  H    5.660499   4.514490   3.433636   2.113143   1.088400
    32  H    6.642642   5.771138   4.387916   3.457228   2.074604
    33  H    7.812036   7.104095   5.870133   5.286914   4.346784
                   16         17         18         19         20
    16  C    0.000000
    17  C    1.461975   0.000000
    18  N    2.401079   1.288836   0.000000
    19  C    3.220935   2.509249   1.321907   0.000000
    20  H    6.452805   5.663736   4.385407   3.268720   0.000000
    21  H    5.617909   5.059610   3.855776   2.577107   1.687813
    22  H    5.935710   4.659293   3.554718   3.293459   2.885863
    23  H    4.086140   3.152968   2.497538   2.725648   4.142070
    24  H    4.883577   3.439477   3.097098   3.894385   5.406466
    25  H    3.407981   2.609710   2.911338   3.877330   6.152887
    26  H    4.375843   3.528874   4.355353   5.656935   8.268816
    27  H    5.805327   5.192239   6.044107   7.271820   9.935234
    28  H    6.642905   6.497761   7.438446   8.535645  11.407997
    29  H    5.243637   5.631881   6.636472   7.565122  10.659835
    30  H    3.381627   4.265410   5.304895   6.110550   9.324491
    31  H    2.063837   3.467882   4.396831   5.011213   8.171521
    32  H    1.091497   2.144494   2.645411   3.086704   6.123629
    33  H    3.306630   3.036772   2.128664   1.097879   3.534433
                   21         22         23         24         25
    21  H    0.000000
    22  H    3.703737   0.000000
    23  H    4.516353   3.078351   0.000000
    24  H    5.677820   2.840806   3.059400   0.000000
    25  H    6.228873   4.649397   2.141723   3.073911   0.000000
    26  H    8.049242   6.135721   5.102371   3.420396   3.478394
    27  H    9.479307   7.829131   7.360169   5.256444   5.908792
    28  H   10.599589   9.728395   9.260628   7.484844   7.886953
    29  H    9.573610   9.598430   8.743865   7.778788   7.533102
    30  H    8.182587   8.697481   7.344459   7.216236   6.274998
    31  H    7.105599   7.949567   6.055899   6.862158   5.205925
    32  H    5.290125   6.027899   3.935716   5.393352   3.617437
    33  H    2.362871   4.220150   3.674114   4.944051   4.730804
                   26         27         28         29         30
    26  H    0.000000
    27  H    2.507660   0.000000
    28  H    4.857609   2.688328   0.000000
    29  H    5.473032   4.333352   2.664460   0.000000
    30  H    5.368848   5.339539   4.697756   2.378653   0.000000
    31  H    5.664949   6.558492   6.650184   4.613669   2.273123
    32  H    5.290603   6.872487   7.714725   6.181711   4.124988
    33  H    6.414687   7.848107   8.808042   7.540070   5.935749
                   31         32         33
    31  H    0.000000
    32  H    2.285779   0.000000
    33  H    4.750681   3.002468   0.000000
 Stoichiometry    C17H14N2
 Framework group  C1[X(C17H14N2)]
 Deg. of freedom    93
 Full point group                 C1      NOp   1
 Largest Abelian subgroup         C1      NOp   1
 Largest concise Abelian subgroup C1      NOp   1
                         Standard orientation:                         
 ---------------------------------------------------------------------
 Center     Atomic      Atomic             Coordinates (Angstroms)
 Number     Number       Type             X           Y           Z
 ---------------------------------------------------------------------
      1          7           0        4.747145    1.148655   -1.485129
      2          6           0        3.783985    0.513298   -0.724347
      3          6           0        3.846870   -0.888971   -0.490669
      4          6           0        3.064433   -1.345015    0.571649
      5          6           0        1.893345   -2.140060    0.478326
      6          6           0        0.883527   -1.701087    1.310287
      7          6           0       -0.237862   -0.943347    0.709837
      8          6           0       -1.456674   -1.412163    0.398521
      9          6           0       -2.616181   -0.779343   -0.180851
     10          6           0       -3.603872   -1.501122   -0.802164
     11          6           0       -4.657426   -0.621750   -1.263719
     12          6           0       -4.348424    0.646586   -0.891205
     13          6           0       -3.069857    0.634908   -0.183114
     14          6           0       -2.623938    1.767182    0.427923
     15          6           0       -1.450457    2.136231    1.175884
     16          6           0       -0.197668    1.624239    1.199365
     17          6           0        0.364653    0.456069    0.523683
     18          7           0        1.537295    0.487547   -0.010187
     19          6           0        2.593964    1.204750   -0.351518
     20          1           0        5.707311    0.906196   -1.301502
     21          1           0        4.605160    2.129951   -1.670826
     22          1           0        4.159205   -1.529265   -1.311755
     23          1           0        3.118672   -0.746618    1.477689
     24          1           0        1.647235   -2.570294   -0.489290
     25          1           0        1.205083   -1.291077    2.270608
     26          1           0       -1.598264   -2.475823    0.586313
     27          1           0       -3.590406   -2.576028   -0.933453
     28          1           0       -5.538924   -0.941074   -1.803689
     29          1           0       -4.930659    1.543022   -1.056278
     30          1           0       -3.314948    2.604685    0.329485
     31          1           0       -1.572206    3.076382    1.710587
     32          1           0        0.548648    2.223975    1.723477
     33          1           0        2.552501    2.290122   -0.511475
 ---------------------------------------------------------------------
 Rotational constants (GHZ):           0.8262416           0.2222070           0.1999252
 Standard basis: 6-31G(2df,p) (6D, 7F)
 There are   659 symmetry adapted cartesian basis functions of A   symmetry.
 There are   602 symmetry adapted basis functions of A   symmetry.
   602 basis functions,   934 primitive gaussians,   659 cartesian basis functions
    65 alpha electrons       65 beta electrons
       nuclear repulsion energy      1277.9738474774 Hartrees.
 NAtoms=   33 NActive=   33 NUniq=   33 SFac= 1.00D+00 NAtFMM=   60 NAOKFM=F Big=F
 Integral buffers will be    131072 words long.
 Raffenetti 2 integral format.
 Two-electron integral symmetry is turned on.
 One-electron integrals computed using PRISM.
 PrsmSu:  requested number of processors reduced to:  12 ShMem   1 Linda.
 NBasis=   602 RedAO= T EigKep=  1.65D-04  NBF=   602
 NBsUse=   602 1.00D-06 EigRej= -1.00D+00 NBFU=   602
 Initial guess from the checkpoint file:  "Nc1ccccc2cc3cccc-3cccc-2nc1.chk"
 B after Tr=     0.000000    0.000000   -0.000000
         Rot=    1.000000   -0.000000    0.000000   -0.000000 Ang=   0.00 deg.
 Requested convergence on RMS density matrix=1.00D-08 within 128 cycles.
 Requested convergence on MAX density matrix=1.00D-06.
 Requested convergence on             energy=1.00D-06.
 No special actions if energy rises.
 SCF Done:  E(RB3LYP) =  -765.552385790     A.U. after    1 cycles
            NFock=  1  Conv=0.56D-08     -V/T= 2.0082
 DoSCS=F DFT=T ScalE2(SS,OS)=  1.000000  1.000000
 Range of M.O.s used for correlation:     1   602
 NBasis=   602 NAE=    65 NBE=    65 NFC=     0 NFV=     0
 NROrb=    602 NOA=    65 NOB=    65 NVA=   537 NVB=   537

 **** Warning!!: The largest alpha MO coefficient is  0.56614625D+02

 PrsmSu:  requested number of processors reduced to:  11 ShMem   1 Linda.
 PrsmSu:  requested number of processors reduced to:   3 ShMem   1 Linda.
 Symmetrizing basis deriv contribution to polar:
 IMax=3 JMax=2 DiffMx= 0.00D+00
 G2DrvN: will do     1 centers at a time, making   34 passes.
 Calling FoFCou, ICntrl=  3107 FMM=F I1Cent=   0 AccDes= 0.00D+00.
 Calling FoFCou, ICntrl=  3107 FMM=F I1Cent=   0 AccDes= 0.00D+00.
 Calling FoFCou, ICntrl=  3107 FMM=F I1Cent=   0 AccDes= 0.00D+00.
 Calling FoFCou, ICntrl=  3107 FMM=F I1Cent=   0 AccDes= 0.00D+00.
 Calling FoFCou, ICntrl=  3107 FMM=F I1Cent=   0 AccDes= 0.00D+00.
 Calling FoFCou, ICntrl=  3107 FMM=F I1Cent=   0 AccDes= 0.00D+00.
 Calling FoFCou, ICntrl=  3107 FMM=F I1Cent=   0 AccDes= 0.00D+00.
 Calling FoFCou, ICntrl=  3107 FMM=F I1Cent=   0 AccDes= 0.00D+00.
 Calling FoFCou, ICntrl=  3107 FMM=F I1Cent=   0 AccDes= 0.00D+00.
 Calling FoFCou, ICntrl=  3107 FMM=F I1Cent=   0 AccDes= 0.00D+00.
 Calling FoFCou, ICntrl=  3107 FMM=F I1Cent=   0 AccDes= 0.00D+00.
 Calling FoFCou, ICntrl=  3107 FMM=F I1Cent=   0 AccDes= 0.00D+00.
 Calling FoFCou, ICntrl=  3107 FMM=F I1Cent=   0 AccDes= 0.00D+00.
 Calling FoFCou, ICntrl=  3107 FMM=F I1Cent=   0 AccDes= 0.00D+00.
 Calling FoFCou, ICntrl=  3107 FMM=F I1Cent=   0 AccDes= 0.00D+00.
slurmstepd: error: *** JOB 27447043 ON lewis4-r630-hpc4-node300 CANCELLED AT 2023-05-16T00:17:57 DUE TO TIME LIMIT ***
