### Starting Gaussian ###
 Entering Gaussian System, Link 0=g16
 Initial command:
 /cluster/software/gaussian/gaussian-16-A.03/avx2/g16/l1.exe "/local/scratch/cz9n3/Gau-14880.inp" -scrdir="/local/scratch/cz9n3/"
 Entering Link 1 = /cluster/software/gaussian/gaussian-16-A.03/avx2/g16/l1.exe PID=     14882.
  
 Copyright (c) 1988,1990,1992,1993,1995,1998,2003,2009,2016,
            Gaussian, Inc.  All Rights Reserved.
  
 This is part of the Gaussian(R) 16 program.  It is based on
 the Gaussian(R) 09 system (copyright 2009, Gaussian, Inc.),
 the Gaussian(R) 03 system (copyright 2003, Gaussian, Inc.),
 the Gaussian(R) 98 system (copyright 1998, Gaussian, Inc.),
 the Gaussian(R) 94 system (copyright 1995, Gaussian, Inc.),
 the Gaussian 92(TM) system (copyright 1992, Gaussian, Inc.),
 the Gaussian 90(TM) system (copyright 1990, Gaussian, Inc.),
 the Gaussian 88(TM) system (copyright 1988, Gaussian, Inc.),
 the Gaussian 86(TM) system (copyright 1986, Carnegie Mellon
 University), and the Gaussian 82(TM) system (copyright 1983,
 Carnegie Mellon University). Gaussian is a federally registered
 trademark of Gaussian, Inc.
  
 This software contains proprietary and confidential information,
 including trade secrets, belonging to Gaussian, Inc.
  
 This software is provided under written license and may be
 used, copied, transmitted, or stored only in accord with that
 written license.
  
 The following legend is applicable only to US Government
 contracts under FAR:
  
                    RESTRICTED RIGHTS LEGEND
  
 Use, reproduction and disclosure by the US Government is
 subject to restrictions as set forth in subparagraphs (a)
 and (c) of the Commercial Computer Software - Restricted
 Rights clause in FAR 52.227-19.
  
 Gaussian, Inc.
 340 Quinnipiac St., Bldg. 40, Wallingford CT 06492
  
  
 ---------------------------------------------------------------
 Warning -- This program may not be used in any manner that
 competes with the business of Gaussian, Inc. or will provide
 assistance to any competitor of Gaussian, Inc.  The licensee
 of this program is prohibited from giving any competitor of
 Gaussian, Inc. access to this program.  By using this program,
 the user acknowledges that Gaussian, Inc. is engaged in the
 business of creating and licensing software in the field of
 computational chemistry and represents and warrants to the
 licensee that it is not a competitor of Gaussian, Inc. and that
 it will not use this program in any manner prohibited above.
 ---------------------------------------------------------------
  

 Cite this work as:
 Gaussian 16, Revision A.03,
 M. J. Frisch, G. W. Trucks, H. B. Schlegel, G. E. Scuseria, 
 M. A. Robb, J. R. Cheeseman, G. Scalmani, V. Barone, 
 G. A. Petersson, H. Nakatsuji, X. Li, M. Caricato, A. V. Marenich, 
 J. Bloino, B. G. Janesko, R. Gomperts, B. Mennucci, H. P. Hratchian, 
 J. V. Ortiz, A. F. Izmaylov, J. L. Sonnenberg, D. Williams-Young, 
 F. Ding, F. Lipparini, F. Egidi, J. Goings, B. Peng, A. Petrone, 
 T. Henderson, D. Ranasinghe, V. G. Zakrzewski, J. Gao, N. Rega, 
 G. Zheng, W. Liang, M. Hada, M. Ehara, K. Toyota, R. Fukuda, 
 J. Hasegawa, M. Ishida, T. Nakajima, Y. Honda, O. Kitao, H. Nakai, 
 T. Vreven, K. Throssell, J. A. Montgomery, Jr., J. E. Peralta, 
 F. Ogliaro, M. J. Bearpark, J. J. Heyd, E. N. Brothers, K. N. Kudin, 
 V. N. Staroverov, T. A. Keith, R. Kobayashi, J. Normand, 
 K. Raghavachari, A. P. Rendell, J. C. Burant, S. S. Iyengar, 
 J. Tomasi, M. Cossi, J. M. Millam, M. Klene, C. Adamo, R. Cammi, 
 J. W. Ochterski, R. L. Martin, K. Morokuma, O. Farkas, 
 J. B. Foresman, and D. J. Fox, Gaussian, Inc., Wallingford CT, 2016.
 
 ******************************************
 Gaussian 16:  ES64L-G16RevA.03 25-Dec-2016
                16-May-2023 
 ******************************************
 %chk=Nc1csccccc2cqc1dSrdCqCCSrCCd2.chk
 %NProcShared=20
 Will use up to   20 processors via shared memory.
 -----------------------------
 # opt freq b3lyp/6-31g(2df,p)
 -----------------------------
 1/18=20,19=15,26=3,38=1/1,3;
 2/9=110,12=2,17=6,18=5,40=1/2;
 3/5=1,6=6,7=104,11=2,25=1,30=1,71=1,74=-5/1,2,3;
 4//1;
 5/5=2,38=5/2;
 6/7=2,8=2,9=2,10=2,28=1/1;
 7//1,2,3,16;
 1/18=20,19=15,26=3/3(2);
 2/9=110/2;
 99//99;
 2/9=110/2;
 3/5=1,6=6,7=104,11=2,25=1,30=1,71=1,74=-5/1,2,3;
 4/5=5,16=3,69=1/1;
 5/5=2,38=5/2;
 7//1,2,3,16;
 1/18=20,19=15,26=3/3(-5);
 2/9=110/2;
 6/7=2,8=2,9=2,10=2,19=2,28=1/1;
 99/9=1/99;
 -------------------
 Title Card Required
 -------------------
 Symbolic Z-matrix:
 Charge =  0 Multiplicity = 1
 N                     2.31009   0.12913  -0.20577 
 C                     4.32168   0.37881  -0.64352 
 C                     3.04677   0.8209   -1.22391 
 S                     4.29001   1.29494  -1.90416 
 C                     5.46588   1.8072   -2.64796 
 C                     6.73475   1.85053  -2.63357 
 C                     7.39723   2.52626  -3.53067 
 C                     8.60657   2.28147  -2.59222 
 C                     9.40796   2.43389  -3.72707 
 C                     8.60715   1.46494  -2.56244 
 C                     6.57314   0.74078  -1.35085 
 S                     5.49942  -0.24872   0.32797 
 C                     10.10141   2.45225  -3.81678 
 C                     11.09202   3.72142  -5.49459 
 C                     9.85285   4.36439  -6.39258 
 S                     8.90974   5.16432  -7.6293 
 C                     11.88476   3.15603  -4.58326 
 C                     9.77411   3.17316  -4.65101 
 H                     0.98454   0.46319  -0.69714 
 H                     1.11188  -0.35678   0.50863 
 H                     2.44093   1.30322  -1.92216 
 H                     5.01236   2.26803  -3.34004 
 H                     7.77056   1.14543  -1.54157 
 H                     7.17944   2.95741  -4.40649 
 H                     10.11519   1.65717  -2.33827 
 H                     11.53911   3.74041  -6.9655 
 H                     11.53766   5.10817  -6.03052 
 H                     9.55887   4.9645   -5.40102 
 H                     9.55944   3.21333  -6.59987 
 H                     9.2916    6.41754  -7.41883 
 H                     13.15737   4.12527  -4.87022 
 H                     13.35606   2.98613  -5.21102 
 H                     8.70968   3.63756  -5.3294 
 
 Add virtual bond connecting atoms H32        and H31        Dist= 2.28D+00.
 Add virtual bond connecting atoms H33        and C18        Dist= 2.54D+00.
 Add virtual bond connecting atoms H19        and N1         Dist= 2.75D+00.
 Add virtual bond connecting atoms H20        and N1         Dist= 2.79D+00.
 Add virtual bond connecting atoms H20        and H19        Dist= 2.77D+00.
 Add virtual bond connecting atoms H25        and C8         Dist= 3.12D+00.
 Add virtual bond connecting atoms H25        and C10        Dist= 2.90D+00.
 Add virtual bond connecting atoms H25        and C13        Dist= 3.17D+00.
 Add virtual bond connecting atoms H26        and C14        Dist= 2.91D+00.
 Add virtual bond connecting atoms H27        and C14        Dist= 2.93D+00.
 Add virtual bond connecting atoms H27        and H26        Dist= 3.13D+00.
 Add virtual bond connecting atoms H31        and C17        Dist= 3.07D+00.
 Add virtual bond connecting atoms H32        and C17        Dist= 3.04D+00.

 GradGradGradGradGradGradGradGradGradGradGradGradGradGradGradGradGradGrad
 Berny optimization.
 Initialization pass.
                           ----------------------------
                           !    Initial Parameters    !
                           ! (Angstroms and Degrees)  !
 --------------------------                            --------------------------
 ! Name  Definition              Value          Derivative Info.                !
 --------------------------------------------------------------------------------
 ! R1    R(1,3)                  1.4345         estimate D2E/DX2                !
 ! R2    R(1,19)                 1.4526         estimate D2E/DX2                !
 ! R3    R(1,20)                 1.4772         estimate D2E/DX2                !
 ! R4    R(2,3)                  1.4689         estimate D2E/DX2                !
 ! R5    R(2,4)                  1.5587         estimate D2E/DX2                !
 ! R6    R(2,12)                 1.6507         estimate D2E/DX2                !
 ! R7    R(3,4)                  1.4944         estimate D2E/DX2                !
 ! R8    R(3,21)                 1.0427         estimate D2E/DX2                !
 ! R9    R(4,5)                  1.4827         estimate D2E/DX2                !
 ! R10   R(5,6)                  1.2697         estimate D2E/DX2                !
 ! R11   R(5,22)                 0.9471         estimate D2E/DX2                !
 ! R12   R(6,7)                  1.3039         estimate D2E/DX2                !
 ! R13   R(6,11)                 1.7038         estimate D2E/DX2                !
 ! R14   R(7,8)                  1.5502         estimate D2E/DX2                !
 ! R15   R(7,24)                 1.0002         estimate D2E/DX2                !
 ! R16   R(8,9)                  1.3976         estimate D2E/DX2                !
 ! R17   R(8,10)                 0.8171         estimate D2E/DX2                !
 ! R18   R(8,25)                 1.6523         estimate D2E/DX2                !
 ! R19   R(9,10)                 1.7136         estimate D2E/DX2                !
 ! R20   R(9,13)                 0.6995         estimate D2E/DX2                !
 ! R21   R(9,18)                 1.2386         estimate D2E/DX2                !
 ! R22   R(10,25)                1.5367         estimate D2E/DX2                !
 ! R23   R(11,23)                1.2783         estimate D2E/DX2                !
 ! R24   R(13,18)                1.1501         estimate D2E/DX2                !
 ! R25   R(13,25)                1.6788         estimate D2E/DX2                !
 ! R26   R(14,15)                1.6599         estimate D2E/DX2                !
 ! R27   R(14,17)                1.3337         estimate D2E/DX2                !
 ! R28   R(14,18)                1.658          estimate D2E/DX2                !
 ! R29   R(14,26)                1.5375         estimate D2E/DX2                !
 ! R30   R(14,27)                1.5521         estimate D2E/DX2                !
 ! R31   R(15,16)                1.7489         estimate D2E/DX2                !
 ! R32   R(15,28)                1.1957         estimate D2E/DX2                !
 ! R33   R(15,29)                1.2058         estimate D2E/DX2                !
 ! R34   R(16,30)                1.3269         estimate D2E/DX2                !
 ! R35   R(17,31)                1.6252         estimate D2E/DX2                !
 ! R36   R(17,32)                1.6086         estimate D2E/DX2                !
 ! R37   R(18,33)                1.345          estimate D2E/DX2                !
 ! R38   R(19,20)                1.4637         estimate D2E/DX2                !
 ! R39   R(26,27)                1.6568         estimate D2E/DX2                !
 ! R40   R(31,32)                1.2055         estimate D2E/DX2                !
 ! A1    A(3,1,19)              96.7556         estimate D2E/DX2                !
 ! A2    A(3,1,20)             156.6938         estimate D2E/DX2                !
 ! A3    A(4,2,12)             135.5574         estimate D2E/DX2                !
 ! A4    A(1,3,2)               91.1545         estimate D2E/DX2                !
 ! A5    A(1,3,4)              154.595          estimate D2E/DX2                !
 ! A6    A(1,3,21)             113.576          estimate D2E/DX2                !
 ! A7    A(2,3,21)             155.2442         estimate D2E/DX2                !
 ! A8    A(4,3,21)              91.8235         estimate D2E/DX2                !
 ! A9    A(2,4,5)              126.3481         estimate D2E/DX2                !
 ! A10   A(4,5,6)              143.003          estimate D2E/DX2                !
 ! A11   A(4,5,22)              98.9124         estimate D2E/DX2                !
 ! A12   A(6,5,22)             118.0481         estimate D2E/DX2                !
 ! A13   A(5,6,7)              121.1725         estimate D2E/DX2                !
 ! A14   A(5,6,11)              83.772          estimate D2E/DX2                !
 ! A15   A(7,6,11)             154.6445         estimate D2E/DX2                !
 ! A16   A(6,7,8)               84.147          estimate D2E/DX2                !
 ! A17   A(6,7,24)             135.6593         estimate D2E/DX2                !
 ! A18   A(8,7,24)             140.1779         estimate D2E/DX2                !
 ! A19   A(7,8,9)               86.4764         estimate D2E/DX2                !
 ! A20   A(7,8,10)             100.3943         estimate D2E/DX2                !
 ! A21   A(7,8,25)             149.88           estimate D2E/DX2                !
 ! A22   A(9,8,25)              69.0517         estimate D2E/DX2                !
 ! A23   A(8,9,13)             132.4903         estimate D2E/DX2                !
 ! A24   A(8,9,18)             147.1686         estimate D2E/DX2                !
 ! A25   A(10,9,13)            124.4234         estimate D2E/DX2                !
 ! A26   A(9,10,25)             64.5199         estimate D2E/DX2                !
 ! A27   A(6,11,23)             65.9604         estimate D2E/DX2                !
 ! A28   A(9,13,25)             83.2667         estimate D2E/DX2                !
 ! A29   A(18,13,25)           159.7192         estimate D2E/DX2                !
 ! A30   A(15,14,18)            79.044          estimate D2E/DX2                !
 ! A31   A(15,14,26)            72.2261         estimate D2E/DX2                !
 ! A32   A(15,14,27)            71.4249         estimate D2E/DX2                !
 ! A33   A(17,14,18)            89.119          estimate D2E/DX2                !
 ! A34   A(17,14,26)           119.0868         estimate D2E/DX2                !
 ! A35   A(17,14,27)           116.364          estimate D2E/DX2                !
 ! A36   A(18,14,26)           136.2181         estimate D2E/DX2                !
 ! A37   A(18,14,27)           134.3755         estimate D2E/DX2                !
 ! A38   A(14,15,16)           164.2098         estimate D2E/DX2                !
 ! A39   A(14,15,28)            85.9475         estimate D2E/DX2                !
 ! A40   A(14,15,29)            84.5424         estimate D2E/DX2                !
 ! A41   A(16,15,28)           102.9593         estimate D2E/DX2                !
 ! A42   A(16,15,29)           100.5932         estimate D2E/DX2                !
 ! A43   A(28,15,29)           124.1819         estimate D2E/DX2                !
 ! A44   A(15,16,30)            99.4759         estimate D2E/DX2                !
 ! A45   A(14,17,31)            95.2768         estimate D2E/DX2                !
 ! A46   A(14,17,32)           108.7704         estimate D2E/DX2                !
 ! A47   A(9,18,14)            144.2752         estimate D2E/DX2                !
 ! A48   A(9,18,33)            110.388          estimate D2E/DX2                !
 ! A49   A(13,18,14)           110.4938         estimate D2E/DX2                !
 ! A50   A(13,18,33)           143.8541         estimate D2E/DX2                !
 ! A51   A(14,18,33)           104.9673         estimate D2E/DX2                !
 ! A52   A(8,25,13)             71.2286         estimate D2E/DX2                !
 ! A53   A(10,25,13)            85.5674         estimate D2E/DX2                !
 ! A54   L(3,2,12,5,-1)        194.6716         estimate D2E/DX2                !
 ! A55   L(3,4,5,12,-1)        183.8267         estimate D2E/DX2                !
 ! A56   L(10,9,18,24,-1)      169.3239         estimate D2E/DX2                !
 ! A57   L(15,14,17,18,-1)     168.163          estimate D2E/DX2                !
 ! A58   L(3,2,12,5,-2)        177.1489         estimate D2E/DX2                !
 ! A59   L(3,4,5,12,-2)        179.8152         estimate D2E/DX2                !
 ! A60   L(10,9,18,24,-2)      180.905          estimate D2E/DX2                !
 ! A61   L(15,14,17,18,-2)     182.719          estimate D2E/DX2                !
 ! D1    D(19,1,3,2)          -178.4656         estimate D2E/DX2                !
 ! D2    D(19,1,3,4)           179.1176         estimate D2E/DX2                !
 ! D3    D(19,1,3,21)            0.385          estimate D2E/DX2                !
 ! D4    D(20,1,3,2)          -178.4173         estimate D2E/DX2                !
 ! D5    D(20,1,3,4)           179.1659         estimate D2E/DX2                !
 ! D6    D(20,1,3,21)            0.4334         estimate D2E/DX2                !
 ! D7    D(3,2,4,12)           176.1044         estimate D2E/DX2                !
 ! D8    D(12,2,4,5)             4.2458         estimate D2E/DX2                !
 ! D9    D(1,3,5,6)             -2.3395         estimate D2E/DX2                !
 ! D10   D(1,3,5,22)          -179.824          estimate D2E/DX2                !
 ! D11   D(21,3,5,6)           176.6155         estimate D2E/DX2                !
 ! D12   D(21,3,5,22)           -0.869          estimate D2E/DX2                !
 ! D13   D(2,4,5,6)             -5.0913         estimate D2E/DX2                !
 ! D14   D(2,4,5,22)           177.4012         estimate D2E/DX2                !
 ! D15   D(4,5,6,7)           -176.1191         estimate D2E/DX2                !
 ! D16   D(4,5,6,11)             8.7333         estimate D2E/DX2                !
 ! D17   D(22,5,6,7)             1.0906         estimate D2E/DX2                !
 ! D18   D(22,5,6,11)         -174.057          estimate D2E/DX2                !
 ! D19   D(5,6,7,8)            168.4348         estimate D2E/DX2                !
 ! D20   D(5,6,7,24)           -12.8555         estimate D2E/DX2                !
 ! D21   D(11,6,7,8)           -22.8896         estimate D2E/DX2                !
 ! D22   D(11,6,7,24)          155.82           estimate D2E/DX2                !
 ! D23   D(5,6,11,23)         -172.984          estimate D2E/DX2                !
 ! D24   D(7,6,11,23)           16.7462         estimate D2E/DX2                !
 ! D25   D(6,7,8,9)            155.0444         estimate D2E/DX2                !
 ! D26   D(6,7,8,10)            57.6067         estimate D2E/DX2                !
 ! D27   D(6,7,8,25)           120.1249         estimate D2E/DX2                !
 ! D28   D(24,7,8,9)           -23.5473         estimate D2E/DX2                !
 ! D29   D(24,7,8,10)         -120.985          estimate D2E/DX2                !
 ! D30   D(24,7,8,25)          -58.4668         estimate D2E/DX2                !
 ! D31   D(7,8,9,13)           174.9428         estimate D2E/DX2                !
 ! D32   D(7,8,9,18)            60.8536         estimate D2E/DX2                !
 ! D33   D(25,8,9,13)          -22.9707         estimate D2E/DX2                !
 ! D34   D(25,8,9,18)         -137.0599         estimate D2E/DX2                !
 ! D35   D(7,8,25,13)           44.9936         estimate D2E/DX2                !
 ! D36   D(9,8,25,13)            7.2753         estimate D2E/DX2                !
 ! D37   D(13,9,10,25)          16.4153         estimate D2E/DX2                !
 ! D38   D(25,10,18,14)         19.3799         estimate D2E/DX2                !
 ! D39   D(25,10,18,33)       -171.3847         estimate D2E/DX2                !
 ! D40   D(8,9,13,25)           21.1746         estimate D2E/DX2                !
 ! D41   D(10,9,13,25)         -13.5997         estimate D2E/DX2                !
 ! D42   D(8,9,18,14)          134.7319         estimate D2E/DX2                !
 ! D43   D(8,9,18,33)          -53.917          estimate D2E/DX2                !
 ! D44   D(9,10,25,13)          -5.5904         estimate D2E/DX2                !
 ! D45   D(25,13,18,14)        146.1857         estimate D2E/DX2                !
 ! D46   D(25,13,18,33)        -45.5386         estimate D2E/DX2                !
 ! D47   D(9,13,25,8)          -13.7657         estimate D2E/DX2                !
 ! D48   D(9,13,25,10)          12.5296         estimate D2E/DX2                !
 ! D49   D(18,13,25,8)          21.0453         estimate D2E/DX2                !
 ! D50   D(18,13,25,10)         47.3406         estimate D2E/DX2                !
 ! D51   D(18,14,15,16)       -173.1891         estimate D2E/DX2                !
 ! D52   D(18,14,15,28)         61.665          estimate D2E/DX2                !
 ! D53   D(18,14,15,29)        -63.2642         estimate D2E/DX2                !
 ! D54   D(26,14,15,16)        -26.6463         estimate D2E/DX2                !
 ! D55   D(26,14,15,28)       -151.7922         estimate D2E/DX2                !
 ! D56   D(26,14,15,29)         83.2786         estimate D2E/DX2                !
 ! D57   D(27,14,15,16)         42.0707         estimate D2E/DX2                !
 ! D58   D(27,14,15,28)        -83.0752         estimate D2E/DX2                !
 ! D59   D(27,14,15,29)        151.9956         estimate D2E/DX2                !
 ! D60   D(16,15,17,31)         27.8012         estimate D2E/DX2                !
 ! D61   D(16,15,17,32)        -15.7972         estimate D2E/DX2                !
 ! D62   D(28,15,17,31)        -93.7759         estimate D2E/DX2                !
 ! D63   D(28,15,17,32)       -137.3743         estimate D2E/DX2                !
 ! D64   D(29,15,17,31)        140.3177         estimate D2E/DX2                !
 ! D65   D(29,15,17,32)         96.7193         estimate D2E/DX2                !
 ! D66   D(18,14,17,31)       -156.1837         estimate D2E/DX2                !
 ! D67   D(18,14,17,32)        161.0841         estimate D2E/DX2                !
 ! D68   D(26,14,17,31)         58.9595         estimate D2E/DX2                !
 ! D69   D(26,14,17,32)         16.2274         estimate D2E/DX2                !
 ! D70   D(27,14,17,31)        -15.5587         estimate D2E/DX2                !
 ! D71   D(27,14,17,32)        -58.2909         estimate D2E/DX2                !
 ! D72   D(15,14,18,9)         172.4909         estimate D2E/DX2                !
 ! D73   D(15,14,18,13)        173.754          estimate D2E/DX2                !
 ! D74   D(15,14,18,33)          0.8809         estimate D2E/DX2                !
 ! D75   D(17,14,18,9)         -10.2281         estimate D2E/DX2                !
 ! D76   D(17,14,18,13)         -8.9651         estimate D2E/DX2                !
 ! D77   D(17,14,18,33)        178.1618         estimate D2E/DX2                !
 ! D78   D(26,14,18,9)         123.1358         estimate D2E/DX2                !
 ! D79   D(26,14,18,13)        124.3988         estimate D2E/DX2                !
 ! D80   D(26,14,18,33)        -48.4743         estimate D2E/DX2                !
 ! D81   D(27,14,18,9)        -137.5508         estimate D2E/DX2                !
 ! D82   D(27,14,18,13)       -136.2878         estimate D2E/DX2                !
 ! D83   D(27,14,18,33)         50.8391         estimate D2E/DX2                !
 ! D84   D(14,15,16,30)        -69.6755         estimate D2E/DX2                !
 ! D85   D(28,15,16,30)         53.5038         estimate D2E/DX2                !
 ! D86   D(29,15,16,30)       -177.4802         estimate D2E/DX2                !
 --------------------------------------------------------------------------------
 Trust Radius=3.00D-01 FncErr=1.00D-07 GrdErr=1.00D-06 EigMax=2.50D+02 EigMin=1.00D-04
 Number of steps in this run=    197 maximum allowed number of steps=    198.
 GradGradGradGradGradGradGradGradGradGradGradGradGradGradGradGradGradGrad

                          Input orientation:                          
 ---------------------------------------------------------------------
 Center     Atomic      Atomic             Coordinates (Angstroms)
 Number     Number       Type             X           Y           Z
 ---------------------------------------------------------------------
      1          7           0        2.310090    0.129130   -0.205770
      2          6           0        4.321680    0.378810   -0.643520
      3          6           0        3.046770    0.820900   -1.223910
      4         16           0        4.290010    1.294940   -1.904160
      5          6           0        5.465880    1.807200   -2.647960
      6          6           0        6.734750    1.850530   -2.633570
      7          6           0        7.397230    2.526260   -3.530670
      8          6           0        8.606570    2.281470   -2.592220
      9          6           0        9.407960    2.433890   -3.727070
     10          6           0        8.607150    1.464940   -2.562440
     11          6           0        6.573140    0.740780   -1.350850
     12         16           0        5.499420   -0.248720    0.327970
     13          6           0       10.101410    2.452250   -3.816780
     14          6           0       11.092020    3.721420   -5.494590
     15          6           0        9.852850    4.364390   -6.392580
     16         16           0        8.909740    5.164320   -7.629300
     17          6           0       11.884760    3.156030   -4.583260
     18          6           0        9.774110    3.173160   -4.651010
     19          1           0        0.984540    0.463190   -0.697140
     20          1           0        1.111880   -0.356780    0.508630
     21          1           0        2.440930    1.303220   -1.922160
     22          1           0        5.012360    2.268030   -3.340040
     23          1           0        7.770560    1.145430   -1.541570
     24          1           0        7.179440    2.957410   -4.406490
     25          1           0       10.115190    1.657170   -2.338270
     26          1           0       11.539110    3.740410   -6.965500
     27          1           0       11.537660    5.108170   -6.030520
     28          1           0        9.558870    4.964500   -5.401020
     29          1           0        9.559440    3.213330   -6.599870
     30          1           0        9.291600    6.417540   -7.418830
     31          1           0       13.157370    4.125270   -4.870220
     32          1           0       13.356060    2.986130   -5.211020
     33          1           0        8.709680    3.637560   -5.329400
 ---------------------------------------------------------------------
                    Distance matrix (angstroms):
                    1          2          3          4          5
     1  N    0.000000
     2  C    2.073755   0.000000
     3  C    1.434522   1.468908   0.000000
     4  S    2.857223   1.558689   1.494356   0.000000
     5  C    4.328882   2.714272   2.975365   1.482673   0.000000
     6  C    5.332452   3.456757   4.080254   2.611029   1.269691
     7  C    6.533007   4.733517   5.211132   3.717055   2.241949
     8  C    7.069185   5.077187   5.909053   4.481000   3.176787
     9  C    8.251741   6.293002   7.023695   5.551002   4.134878
    10  C    6.855016   4.819459   5.755369   4.370347   3.161018
    11  C    4.456335   2.387553   3.529563   2.413696   2.011410
    12  S    3.255683   1.650654   3.093204   2.971189   3.617194
    13  C    8.896120   6.911875   7.691048   6.226544   4.823937
    14  C   10.862710   8.974599   9.559172   8.065131   6.589461
    15  C   10.635190   8.917981   9.251713   7.778986   6.309271
    16  S   11.136306   9.630811   9.709209   8.312114   6.924173
    17  C   10.954399   8.968538   9.739001   8.265680   6.838622
    18  C    9.205318   7.321022   7.907923   6.414690   4.943572
    19  H    1.452626   3.338637   2.158295   3.615914   5.068971
    20  H    1.477221   3.488747   2.851741   4.318593   5.796912
    21  H    2.083651   2.454929   1.042702   1.849186   3.151365
    22  H    4.658412   3.364136   3.230439   1.878948   0.947111
    23  H    5.712614   3.645404   4.745568   3.502578   2.640755
    24  H    7.025367   5.382928   5.636706   4.168245   2.711402
    25  H    8.234200   6.170182   7.204423   5.852554   4.662027
    26  H   11.996254  10.166567  10.658763   9.173164   7.698219
    27  H   11.994440  10.171381  10.657363   9.170387   7.694454
    28  H   10.144764   8.431519   8.776395   7.311264   5.856659
    29  H   10.146422   8.422989   8.777217   7.314151   5.861060
    30  H   11.845413  10.347521  10.425800   9.037064   7.658497
    31  H   12.465541  10.486676  11.244495   9.769256   8.334921
    32  H   12.459070  10.453717  11.263513   9.797383   8.379385
    33  H    8.917142   7.199407   7.540369   6.062476   4.589398
                    6          7          8          9         10
     6  C    0.000000
     7  C    1.303948   0.000000
     8  C    1.921231   1.550198   0.000000
     9  C    2.946541   2.022410   1.397620   0.000000
    10  C    1.913014   1.878237   0.817073   1.713629   0.000000
    11  C    1.703829   2.935759   2.837175   4.068077   2.475794
    12  S    3.834529   5.117744   4.958200   6.238304   4.577017
    13  C    3.618902   2.720280   1.939912   0.699470   2.186541
    14  C    5.538183   4.351651   4.083463   2.760058   4.456881
    15  C    5.492922   4.195154   4.509380   3.321099   4.962716
    16  S    6.377233   5.103510   5.811619   4.788619   6.280927
    17  C    5.659348   4.652148   3.933907   2.718287   4.205500
    18  C    3.880351   2.706141   2.529205   1.238649   2.939717
    19  H    6.224097   7.308060   8.061812   9.166141   7.911197
    20  H    6.808987   8.008339   8.529127   9.723885   8.302362
    21  H    4.386632   5.352386   6.278620   7.285302   6.201482
    22  H    1.907887   2.406372   3.671207   4.415722   3.764589
    23  H    1.662087   2.450017   1.758796   3.019539   1.357993
    24  H    2.136862   1.000192   2.405238   2.387883   2.768816
    25  H    3.398818   3.092643   1.652324   1.741331   1.536681
    26  H    6.739372   5.516103   5.463870   4.090993   5.758567
    27  H    6.724540   5.482579   5.329487   4.122290   5.821391
    28  H    5.033015   3.757115   3.999360   3.037905   4.605456
    29  H    5.056445   3.816701   4.223456   2.980512   4.501618
    30  H    7.091810   5.817945   6.393161   5.432504   6.970025
    31  H    7.171269   6.126209   5.412824   4.269149   5.753930
    32  H    7.195456   6.208278   5.469215   4.253771   5.646339
    33  H    3.789634   2.488562   3.056430   2.122234   3.519497
                   11         12         13         14         15
    11  C    0.000000
    12  S    2.224954   0.000000
    13  C    4.632346   6.756664   0.000000
    14  C    6.817263   8.996743   2.325327   0.000000
    15  C    7.021829   9.241154   3.217578   1.659921   0.000000
    16  S    8.027848  10.210261   4.828117   3.376580   1.748948
    17  C    6.670473   8.745574   2.064736   1.333651   2.976984
    18  C    5.201321   7.400843   1.150120   1.658042   2.111467
    19  H    5.633546   4.684208   9.838995  11.653014  11.238519
    20  H    5.872620   4.392587  10.363951  12.339917  12.096309
    21  H    4.209263   4.101946   7.974510   9.667022   9.181066
    22  H    2.953879   4.474992   5.114650   6.611860   6.094511
    23  H    1.278253   3.255290   3.509590   5.770112   6.183036
    24  H    3.823347   5.959601   3.023384   4.132306   3.615421
    25  H    3.789576   5.660970   1.678789   3.895854   4.882140
    26  H    8.073595  10.275491   3.693342   1.537474   1.887077
    27  H    8.100609  10.275554   3.743978   1.552060   1.876934
    28  H    6.569496   8.745177   3.019200   1.975994   1.195720
    29  H    6.525619   8.744399   2.935739   1.956681   1.205818
    30  H    8.742769  10.901035   5.417941   3.770050   2.362968
    31  H    8.197123  10.237049   3.639728   2.195132   3.646178
    32  H    8.120992  10.142557   3.580737   2.397278   3.945651
    33  H    5.365165   7.577254   2.372739   2.389532   1.722054
                   16         17         18         19         20
    16  S    0.000000
    17  C    4.707689   0.000000
    18  C    3.685385   2.111807   0.000000
    19  H   11.531013  11.881419  10.011671   0.000000
    20  H   12.550501  12.422646  10.682537   1.463710   0.000000
    21  H    9.451193   9.985003   8.044801   2.080239   3.229662
    22  H    6.478875   7.040172   5.021172   5.144483   6.075824
    23  H    7.383066   5.497366   4.218355   6.872305   7.127270
    24  H    4.272107   4.712827   2.615081   7.639188   8.482779
    25  H    6.461285   3.227683   2.786275   9.353484   9.655073
    26  H    3.062962   2.477103   2.965445  12.705568  13.467617
    27  H    3.076559   2.454769   2.959294  12.703902  13.465625
    28  H    2.329491   3.057623   1.953904  10.766031  11.601363
    29  H    2.299608   3.078492   1.961059  10.767284  11.603350
    30  H    1.326904   5.040078   4.291811  12.232851  13.253070
    31  H    5.170542   1.625210   3.521507  13.379208  13.932503
    32  H    5.510204   1.608624   3.630283  13.408760  13.921544
    33  H    2.767772   3.296927   1.344950   9.550510  10.380940
                   21         22         23         24         25
    21  H    0.000000
    22  H    3.090873   0.000000
    23  H    5.345531   3.478849   0.000000
    24  H    5.600153   2.511732   3.440997   0.000000
    25  H    7.693679   5.235988   2.528616   3.819265   0.000000
    26  H   10.684196   7.609884   7.096119   5.115500   5.270550
    27  H   10.682077   7.608194   7.074251   5.124190   5.250289
    28  H    8.727686   5.673565   5.716529   3.267903   4.541846
    29  H    8.729414   5.674154   5.750017   3.246661   4.570747
    30  H   10.163726   7.222663   8.040578   5.050536   7.010814
    31  H   11.467219   8.493055   6.998363   6.108567   4.664456
    32  H   11.523404   8.581000   6.931872   6.228862   4.530129
    33  H    7.507040   4.416259   4.630369   1.912067   3.852825
                   26         27         28         29         30
    26  H    0.000000
    27  H    1.656791   0.000000
    28  H    2.804879   2.081471   0.000000
    29  H    2.081007   2.797844   2.122225   0.000000
    30  H    3.524746   2.947311   2.500863   3.318041   0.000000
    31  H    2.675272   2.221677   3.732996   4.094927   5.166633
    32  H    2.635990   2.912252   4.285872   4.049055   5.759239
    33  H    3.270027   3.263699   1.577030   1.586240   3.525995
                   31         32         33
    31  H    0.000000
    32  H    1.205513   0.000000
    33  H    4.497850   4.693317   0.000000
 Stoichiometry    C14H15NS3
 Framework group  C1[X(C14H15NS3)]
 Deg. of freedom    93
 Full point group                 C1      NOp   1
 Largest Abelian subgroup         C1      NOp   1
 Largest concise Abelian subgroup C1      NOp   1
                         Standard orientation:                         
 ---------------------------------------------------------------------
 Center     Atomic      Atomic             Coordinates (Angstroms)
 Number     Number       Type             X           Y           Z
 ---------------------------------------------------------------------
      1          7           0       -5.973011    1.147755    0.005451
      2          6           0       -4.230776    0.023623   -0.031995
      3          6           0       -4.571225    1.452281   -0.005149
      4         16           0       -3.116010    1.112550    0.000292
      5          6           0       -1.652888    0.872564    0.000579
      6          6           0       -0.775634   -0.044053    0.049094
      7          6           0        0.496087    0.240512    0.094153
      8          6           0        0.658484   -1.263351    0.433471
      9          6           0        1.951105   -1.152503   -0.086324
     10          6           0        0.302653   -1.601155   -0.219890
     11          6           0       -2.116095   -1.080405   -0.130268
     12         16           0       -4.268427   -1.626019    0.011842
     13          6           0        2.486906   -1.600887   -0.119886
     14          6           0        4.697670   -0.885370   -0.032121
     15          6           0        4.655575    0.773984   -0.021547
     16         16           0        5.084383    2.468726   -0.074397
     17          6           0        4.458536   -2.196076    0.026951
     18          6           0        3.062571   -0.611793   -0.005526
     19          1           0       -6.446307    2.521068   -0.005760
     20          1           0       -7.422846    1.430851    0.009930
     21          1           0       -4.366589    2.474694   -0.010072
     22          1           0       -1.356669    1.771971   -0.017898
     23          1           0       -1.014857   -1.688121    0.097519
     24          1           0        1.051557    1.059209   -0.052715
     25          1           0        1.279267   -2.751237    0.071530
     26          1           0        5.894400   -0.380278   -0.854646
     27          1           0        5.898873   -0.365638    0.802075
     28          1           0        4.107887    0.668818    1.036151
     29          1           0        4.102347    0.652008   -1.086000
     30          1           0        5.738536    2.564526    1.076073
     31          1           0        5.902934   -2.582991    0.663597
     32          1           0        5.771406   -2.984477   -0.465461
     33          1           0        2.934172    0.726977   -0.015530
 ---------------------------------------------------------------------
 Rotational constants (GHZ):           0.8100508           0.1224054           0.1067475
 Standard basis: 6-31G(2df,p) (6D, 7F)
 There are   645 symmetry adapted cartesian basis functions of A   symmetry.
 There are   591 symmetry adapted basis functions of A   symmetry.
   591 basis functions,   969 primitive gaussians,   645 cartesian basis functions
    77 alpha electrons       77 beta electrons
       nuclear repulsion energy      1620.4187848806 Hartrees.
 NAtoms=   33 NActive=   33 NUniq=   33 SFac= 1.00D+00 NAtFMM=   60 NAOKFM=F Big=F
 Integral buffers will be    131072 words long.
 Raffenetti 2 integral format.
 Two-electron integral symmetry is turned on.
 One-electron integrals computed using PRISM.
 PrsmSu:  requested number of processors reduced to:  12 ShMem   1 Linda.
 NBasis=   591 RedAO= T EigKep=  6.74D-06  NBF=   591
 NBsUse=   591 1.00D-06 EigRej= -1.00D+00 NBFU=   591
 ExpMin= 1.17D-01 ExpMax= 2.19D+04 ExpMxC= 3.30D+03 IAcc=3 IRadAn=         5 AccDes= 0.00D+00
 Harris functional with IExCor=  402 and IRadAn=       5 diagonalized for initial guess.
 HarFok:  IExCor=  402 AccDes= 0.00D+00 IRadAn=         5 IDoV= 1 UseB2=F ITyADJ=14
 ICtDFT=  3500011 ScaDFX=  1.000000  1.000000  1.000000  1.000000
 FoFCou: FMM=F IPFlag=           0 FMFlag=      100000 FMFlg1=           0
         NFxFlg=           0 DoJE=T BraDBF=F KetDBF=T FulRan=T
         wScrn=  0.000000 ICntrl=       500 IOpCl=  0 I1Cent=   200000004 NGrid=           0
         NMat0=    1 NMatS0=      1 NMatT0=    0 NMatD0=    1 NMtDS0=    0 NMtDT0=    0
 Petite list used in FoFCou.
 Requested convergence on RMS density matrix=1.00D-08 within 128 cycles.
 Requested convergence on MAX density matrix=1.00D-06.
 Requested convergence on             energy=1.00D-06.
 No special actions if energy rises.
 Integral accuracy reduced to 1.0D-05 until final iterations.
 EnCoef did     4 forward-backward iterations
 EnCoef did   100 forward-backward iterations
 EnCoef did   100 forward-backward iterations
 EnCoef did   100 forward-backward iterations
 EnCoef did    11 forward-backward iterations
 EnCoef did     5 forward-backward iterations
 EnCoef did     8 forward-backward iterations
 EnCoef did     8 forward-backward iterations
 EnCoef did     8 forward-backward iterations
 Problem detected with inexpensive integrals.
 Switching to full accuracy and repeating last cycle.
 EnCoef did   100 forward-backward iterations
 EnCoef did   100 forward-backward iterations
 EnCoef did   100 forward-backward iterations
 EnCoef did   100 forward-backward iterations
 EnCoef did    18 forward-backward iterations
 EnCoef did    12 forward-backward iterations
 EnCoef did     3 forward-backward iterations
 EnCoef did     2 forward-backward iterations
 EnCoef did     5 forward-backward iterations
 Restarting incremental Fock formation.
 SCF Done:  E(RB3LYP) =  -1786.67472460     A.U. after   43 cycles
            NFock= 43  Conv=0.24D-08     -V/T= 1.9949

 **********************************************************************

            Population analysis using the SCF density.

 **********************************************************************

 Orbital symmetries:
       Occupied  (A) (A) (A) (A) (A) (A) (A) (A) (A) (A) (A) (A)
                 (A) (A) (A) (A) (A) (A) (A) (A) (A) (A) (A) (A)
                 (A) (A) (A) (A) (A) (A) (A) (A) (A) (A) (A) (A)
                 (A) (A) (A) (A) (A) (A) (A) (A) (A) (A) (A) (A)
                 (A) (A) (A) (A) (A) (A) (A) (A) (A) (A) (A) (A)
                 (A) (A) (A) (A) (A) (A) (A) (A) (A) (A) (A) (A)
                 (A) (A) (A) (A) (A)
       Virtual   (A) (A) (A) (A) (A) (A) (A) (A) (A) (A) (A) (A)
                 (A) (A) (A) (A) (A) (A) (A) (A) (A) (A) (A) (A)
                 (A) (A) (A) (A) (A) (A) (A) (A) (A) (A) (A) (A)
                 (A) (A) (A) (A) (A) (A) (A) (A) (A) (A) (A) (A)
                 (A) (A) (A) (A) (A) (A) (A) (A) (A) (A) (A) (A)
                 (A) (A) (A) (A) (A) (A) (A) (A) (A) (A) (A) (A)
                 (A) (A) (A) (A) (A) (A) (A) (A) (A) (A) (A) (A)
                 (A) (A) (A) (A) (A) (A) (A) (A) (A) (A) (A) (A)
                 (A) (A) (A) (A) (A) (A) (A) (A) (A) (A) (A) (A)
                 (A) (A) (A) (A) (A) (A) (A) (A) (A) (A) (A) (A)
                 (A) (A) (A) (A) (A) (A) (A) (A) (A) (A) (A) (A)
                 (A) (A) (A) (A) (A) (A) (A) (A) (A) (A) (A) (A)
                 (A) (A) (A) (A) (A) (A) (A) (A) (A) (A) (A) (A)
                 (A) (A) (A) (A) (A) (A) (A) (A) (A) (A) (A) (A)
                 (A) (A) (A) (A) (A) (A) (A) (A) (A) (A) (A) (A)
                 (A) (A) (A) (A) (A) (A) (A) (A) (A) (A) (A) (A)
                 (A) (A) (A) (A) (A) (A) (A) (A) (A) (A) (A) (A)
                 (A) (A) (A) (A) (A) (A) (A) (A) (A) (A) (A) (A)
                 (A) (A) (A) (A) (A) (A) (A) (A) (A) (A) (A) (A)
                 (A) (A) (A) (A) (A) (A) (A) (A) (A) (A) (A) (A)
                 (A) (A) (A) (A) (A) (A) (A) (A) (A) (A) (A) (A)
                 (A) (A) (A) (A) (A) (A) (A) (A) (A) (A) (A) (A)
                 (A) (A) (A) (A) (A) (A) (A) (A) (A) (A) (A) (A)
                 (A) (A) (A) (A) (A) (A) (A) (A) (A) (A) (A) (A)
                 (A) (A) (A) (A) (A) (A) (A) (A) (A) (A) (A) (A)
                 (A) (A) (A) (A) (A) (A) (A) (A) (A) (A) (A) (A)
                 (A) (A) (A) (A) (A) (A) (A) (A) (A) (A) (A) (A)
                 (A) (A) (A) (A) (A) (A) (A) (A) (A) (A) (A) (A)
                 (A) (A) (A) (A) (A) (A) (A) (A) (A) (A) (A) (A)
                 (A) (A) (A) (A) (A) (A) (A) (A) (A) (A) (A) (A)
                 (A) (A) (A) (A) (A) (A) (A) (A) (A) (A) (A) (A)
                 (A) (A) (A) (A) (A) (A) (A) (A) (A) (A) (A) (A)
                 (A) (A) (A) (A) (A) (A) (A) (A) (A) (A) (A) (A)
                 (A) (A) (A) (A) (A) (A) (A) (A) (A) (A) (A) (A)
                 (A) (A) (A) (A) (A) (A) (A) (A) (A) (A) (A) (A)
                 (A) (A) (A) (A) (A) (A) (A) (A) (A) (A) (A) (A)
                 (A) (A) (A) (A) (A) (A) (A) (A) (A) (A) (A) (A)
                 (A) (A) (A) (A) (A) (A) (A) (A) (A) (A) (A) (A)
                 (A) (A) (A) (A) (A) (A) (A) (A) (A) (A) (A) (A)
                 (A) (A) (A) (A) (A) (A) (A) (A) (A) (A) (A) (A)
                 (A) (A) (A) (A) (A) (A) (A) (A) (A) (A) (A) (A)
                 (A) (A) (A) (A) (A) (A) (A) (A) (A) (A) (A) (A)
                 (A) (A) (A) (A) (A) (A) (A) (A) (A) (A)
 The electronic state is 1-A.
 Alpha  occ. eigenvalues --  -88.94221 -88.90561 -88.88179 -14.36551 -10.42514
 Alpha  occ. eigenvalues --  -10.30464 -10.29382 -10.28171 -10.27953 -10.26393
 Alpha  occ. eigenvalues --  -10.23138 -10.22880 -10.22029 -10.21841 -10.19708
 Alpha  occ. eigenvalues --  -10.18594 -10.17090 -10.12822  -8.01557  -7.97198
 Alpha  occ. eigenvalues --   -7.94387  -5.97975  -5.97337  -5.97308  -5.93656
 Alpha  occ. eigenvalues --   -5.93295  -5.92708  -5.90812  -5.90416  -5.90073
 Alpha  occ. eigenvalues --   -1.11081  -1.05500  -0.99327  -0.89302  -0.86404
 Alpha  occ. eigenvalues --   -0.83814  -0.80338  -0.79479  -0.78273  -0.71668
 Alpha  occ. eigenvalues --   -0.70780  -0.69201  -0.66120  -0.65723  -0.61510
 Alpha  occ. eigenvalues --   -0.58140  -0.56270  -0.55557  -0.53597  -0.53187
 Alpha  occ. eigenvalues --   -0.51400  -0.49797  -0.49429  -0.48585  -0.44620
 Alpha  occ. eigenvalues --   -0.43362  -0.42966  -0.42315  -0.38825  -0.38224
 Alpha  occ. eigenvalues --   -0.36151  -0.34908  -0.33438  -0.31993  -0.30706
 Alpha  occ. eigenvalues --   -0.29714  -0.29429  -0.27625  -0.27091  -0.25696
 Alpha  occ. eigenvalues --   -0.25089  -0.23233  -0.21048  -0.20275  -0.16729
 Alpha  occ. eigenvalues --   -0.16276  -0.14488
 Alpha virt. eigenvalues --   -0.10988  -0.09770  -0.08523  -0.07809  -0.07080
 Alpha virt. eigenvalues --   -0.06839  -0.05045  -0.04543  -0.03199  -0.01150
 Alpha virt. eigenvalues --   -0.00174   0.00684   0.01023   0.03171   0.06143
 Alpha virt. eigenvalues --    0.06531   0.07279   0.07633   0.08968   0.09364
 Alpha virt. eigenvalues --    0.10945   0.11080   0.11481   0.14380   0.16242
 Alpha virt. eigenvalues --    0.18263   0.18635   0.20340   0.21822   0.23003
 Alpha virt. eigenvalues --    0.23427   0.23717   0.25292   0.26268   0.27693
 Alpha virt. eigenvalues --    0.29920   0.30198   0.30642   0.31751   0.32393
 Alpha virt. eigenvalues --    0.33131   0.33379   0.33698   0.34436   0.34808
 Alpha virt. eigenvalues --    0.35203   0.35228   0.35402   0.36500   0.37316
 Alpha virt. eigenvalues --    0.39151   0.39781   0.41200   0.41657   0.42167
 Alpha virt. eigenvalues --    0.43014   0.43487   0.44561   0.46058   0.48058
 Alpha virt. eigenvalues --    0.48892   0.49439   0.50273   0.51128   0.52206
 Alpha virt. eigenvalues --    0.52381   0.52709   0.54519   0.55078   0.55286
 Alpha virt. eigenvalues --    0.56953   0.57650   0.57867   0.58607   0.59819
 Alpha virt. eigenvalues --    0.60565   0.60848   0.61580   0.62012   0.62772
 Alpha virt. eigenvalues --    0.63123   0.63903   0.64165   0.64921   0.65119
 Alpha virt. eigenvalues --    0.65944   0.66589   0.67128   0.68292   0.68880
 Alpha virt. eigenvalues --    0.69838   0.70609   0.71312   0.71730   0.72042
 Alpha virt. eigenvalues --    0.72529   0.73014   0.73909   0.75007   0.75254
 Alpha virt. eigenvalues --    0.75931   0.76734   0.77020   0.78679   0.79193
 Alpha virt. eigenvalues --    0.79458   0.80407   0.80617   0.82233   0.83174
 Alpha virt. eigenvalues --    0.83730   0.83984   0.84813   0.86027   0.87104
 Alpha virt. eigenvalues --    0.88847   0.89060   0.90329   0.91507   0.91925
 Alpha virt. eigenvalues --    0.93247   0.93280   0.94575   0.95032   0.95346
 Alpha virt. eigenvalues --    0.96633   0.97069   0.97414   0.99768   1.01059
 Alpha virt. eigenvalues --    1.01821   1.03709   1.04583   1.04779   1.05357
 Alpha virt. eigenvalues --    1.06830   1.08513   1.08867   1.09590   1.10715
 Alpha virt. eigenvalues --    1.11649   1.13066   1.14550   1.15313   1.15808
 Alpha virt. eigenvalues --    1.16852   1.20106   1.20539   1.21369   1.22701
 Alpha virt. eigenvalues --    1.24614   1.24754   1.25460   1.26098   1.27207
 Alpha virt. eigenvalues --    1.27958   1.29223   1.30329   1.31107   1.31680
 Alpha virt. eigenvalues --    1.32228   1.34081   1.35442   1.35651   1.36731
 Alpha virt. eigenvalues --    1.37719   1.39274   1.40786   1.41710   1.43331
 Alpha virt. eigenvalues --    1.45349   1.45682   1.47010   1.48254   1.49128
 Alpha virt. eigenvalues --    1.50570   1.51034   1.51468   1.52761   1.53707
 Alpha virt. eigenvalues --    1.54586   1.55146   1.55377   1.57356   1.59783
 Alpha virt. eigenvalues --    1.60292   1.61202   1.62983   1.63894   1.64281
 Alpha virt. eigenvalues --    1.65534   1.65868   1.67508   1.68371   1.69805
 Alpha virt. eigenvalues --    1.70489   1.71383   1.72495   1.73456   1.74943
 Alpha virt. eigenvalues --    1.75839   1.76603   1.78006   1.78821   1.80106
 Alpha virt. eigenvalues --    1.81952   1.82109   1.84276   1.85107   1.85662
 Alpha virt. eigenvalues --    1.86452   1.87102   1.88919   1.89746   1.90837
 Alpha virt. eigenvalues --    1.93003   1.94506   1.94914   1.96408   1.97342
 Alpha virt. eigenvalues --    1.97655   1.98742   2.02268   2.02615   2.03284
 Alpha virt. eigenvalues --    2.05248   2.06818   2.08614   2.08890   2.10639
 Alpha virt. eigenvalues --    2.11834   2.13133   2.14466   2.14819   2.15438
 Alpha virt. eigenvalues --    2.16193   2.16879   2.18381   2.19426   2.20238
 Alpha virt. eigenvalues --    2.20642   2.22467   2.23127   2.23943   2.24641
 Alpha virt. eigenvalues --    2.25804   2.26918   2.28508   2.29136   2.30327
 Alpha virt. eigenvalues --    2.30851   2.31753   2.32385   2.33163   2.33492
 Alpha virt. eigenvalues --    2.34387   2.36986   2.37290   2.38521   2.39290
 Alpha virt. eigenvalues --    2.40915   2.41558   2.42928   2.43780   2.45278
 Alpha virt. eigenvalues --    2.45652   2.46401   2.46628   2.48758   2.51934
 Alpha virt. eigenvalues --    2.53670   2.55323   2.55795   2.57031   2.58411
 Alpha virt. eigenvalues --    2.59505   2.60308   2.61493   2.62331   2.64849
 Alpha virt. eigenvalues --    2.66168   2.66884   2.68355   2.69519   2.69845
 Alpha virt. eigenvalues --    2.72018   2.73375   2.74261   2.74993   2.78217
 Alpha virt. eigenvalues --    2.79930   2.81045   2.81476   2.82365   2.83751
 Alpha virt. eigenvalues --    2.85029   2.86666   2.88359   2.89962   2.90035
 Alpha virt. eigenvalues --    2.90505   2.92281   2.94200   2.94690   2.96681
 Alpha virt. eigenvalues --    2.98133   2.98281   3.00771   3.01956   3.02374
 Alpha virt. eigenvalues --    3.02437   3.04717   3.05803   3.07313   3.08040
 Alpha virt. eigenvalues --    3.10064   3.11552   3.12564   3.13534   3.15629
 Alpha virt. eigenvalues --    3.17260   3.18461   3.19796   3.20367   3.22445
 Alpha virt. eigenvalues --    3.23388   3.23650   3.25033   3.25927   3.27559
 Alpha virt. eigenvalues --    3.27780   3.28207   3.29043   3.29735   3.31054
 Alpha virt. eigenvalues --    3.32415   3.32750   3.34513   3.35136   3.35786
 Alpha virt. eigenvalues --    3.37241   3.39687   3.40495   3.42633   3.42822
 Alpha virt. eigenvalues --    3.43898   3.44217   3.45632   3.46302   3.47925
 Alpha virt. eigenvalues --    3.48514   3.50332   3.50765   3.52875   3.53477
 Alpha virt. eigenvalues --    3.54074   3.54752   3.56813   3.59496   3.60085
 Alpha virt. eigenvalues --    3.63482   3.63571   3.65598   3.66289   3.67029
 Alpha virt. eigenvalues --    3.68742   3.69646   3.70602   3.71712   3.74333
 Alpha virt. eigenvalues --    3.75502   3.76883   3.78510   3.79319   3.80245
 Alpha virt. eigenvalues --    3.80585   3.83163   3.83851   3.85297   3.88761
 Alpha virt. eigenvalues --    3.89284   3.91069   3.91258   3.91721   3.94136
 Alpha virt. eigenvalues --    3.96370   3.97119   3.99022   4.01720   4.02682
 Alpha virt. eigenvalues --    4.05036   4.06067   4.07953   4.10511   4.11012
 Alpha virt. eigenvalues --    4.12517   4.16755   4.17975   4.20483   4.21674
 Alpha virt. eigenvalues --    4.23123   4.23575   4.25898   4.27297   4.28506
 Alpha virt. eigenvalues --    4.30313   4.32320   4.33484   4.35765   4.37075
 Alpha virt. eigenvalues --    4.37923   4.38666   4.41595   4.43239   4.44259
 Alpha virt. eigenvalues --    4.45498   4.47628   4.48359   4.49382   4.50605
 Alpha virt. eigenvalues --    4.51918   4.53059   4.54497   4.57126   4.57591
 Alpha virt. eigenvalues --    4.59129   4.61454   4.61840   4.62661   4.63868
 Alpha virt. eigenvalues --    4.64736   4.65978   4.66283   4.68471   4.69652
 Alpha virt. eigenvalues --    4.70817   4.73687   4.75164   4.76672   4.79602
 Alpha virt. eigenvalues --    4.80251   4.81107   4.82466   4.83528   4.85186
 Alpha virt. eigenvalues --    4.87287   4.89033   4.90874   4.91205   4.93300
 Alpha virt. eigenvalues --    4.94121   4.96663   4.99581   5.01873   5.03814
 Alpha virt. eigenvalues --    5.04658   5.07085   5.09780   5.13705   5.17276
 Alpha virt. eigenvalues --    5.17822   5.21234   5.23781   5.24537   5.27119
 Alpha virt. eigenvalues --    5.29788   5.32690   5.34027   5.36622   5.40331
 Alpha virt. eigenvalues --    5.45334   5.49049   5.50284   5.55699   5.62638
 Alpha virt. eigenvalues --    5.65371   5.69263   5.72467   5.79237   5.80165
 Alpha virt. eigenvalues --    5.90571   5.92859   6.04262   6.10060   6.17531
 Alpha virt. eigenvalues --    6.18419   6.22923   6.36701   6.46086   6.51219
 Alpha virt. eigenvalues --    6.59017   6.89372   7.02328   7.09629   7.41459
 Alpha virt. eigenvalues --    7.54306   7.68577   8.79519   9.58334  10.20122
 Alpha virt. eigenvalues --   10.61761  10.84015  10.91006  11.38990  11.48956
 Alpha virt. eigenvalues --   11.64634  11.69097  11.71915  12.06304  12.24999
 Alpha virt. eigenvalues --   12.67296  12.96574  13.80544  14.33771
          Condensed to atoms (all electrons):
               1          2          3          4          5          6
     1  N    7.303243  -0.110353   0.205737   0.062504  -0.001424   0.000021
     2  C   -0.110353   4.848492   0.346680   0.195529  -0.037914   0.002621
     3  C    0.205737   0.346680   5.144641  -0.079138   0.050846  -0.000188
     4  S    0.062504   0.195529  -0.079138  15.633057   0.313325   0.011980
     5  C   -0.001424  -0.037914   0.050846   0.313325   5.578328   0.071419
     6  C    0.000021   0.002621  -0.000188   0.011980   0.071419   5.442731
     7  C   -0.000000  -0.000222  -0.000141   0.020624   0.033182  -0.039270
     8  C    0.000000  -0.000071   0.000004  -0.000234  -0.121364  -0.108056
     9  C   -0.000000  -0.000001  -0.000000   0.000015   0.018048  -0.124996
    10  C    0.000000   0.000328   0.000016  -0.001834   0.026488   0.321558
    11  C   -0.000048  -0.054865   0.003417  -0.046647  -0.096931   0.289407
    12  S    0.012972   0.526986  -0.035098  -0.100713   0.002506   0.010431
    13  C   -0.000000  -0.000000   0.000000  -0.000034   0.005429   0.125182
    14  C    0.000000   0.000000   0.000000   0.000000  -0.000000   0.000033
    15  C   -0.000000  -0.000000  -0.000000  -0.000000   0.000002  -0.000015
    16  S   -0.000000   0.000000   0.000000   0.000000   0.000000   0.000007
    17  C    0.000000   0.000000  -0.000000  -0.000000   0.000000  -0.000003
    18  C   -0.000000  -0.000000   0.000000   0.000006   0.001410   0.029306
    19  H    0.113434   0.000600  -0.034594  -0.003686   0.000089   0.000003
    20  H    0.074458   0.007900  -0.005463  -0.004380   0.000027   0.000000
    21  H   -0.105555   0.050567   0.480716  -0.319945   0.010368   0.000232
    22  H   -0.000029   0.008486  -0.003681  -0.095468   0.269901  -0.051746
    23  H   -0.000001  -0.003320  -0.000337   0.011550   0.010774  -0.134815
    24  H    0.000000   0.000018   0.000002   0.000696   0.011318  -0.041671
    25  H   -0.000000  -0.000001   0.000000  -0.000015  -0.000679  -0.004764
    26  H    0.000000   0.000000   0.000000   0.000000  -0.000000   0.000000
    27  H   -0.000000  -0.000000   0.000000  -0.000000   0.000000  -0.000001
    28  H    0.000000   0.000000  -0.000000   0.000000  -0.000001  -0.000019
    29  H   -0.000000   0.000000  -0.000000  -0.000000  -0.000001  -0.000132
    30  H   -0.000000  -0.000000  -0.000000  -0.000000  -0.000000  -0.000000
    31  H    0.000000   0.000000  -0.000000   0.000000  -0.000000  -0.000000
    32  H   -0.000000  -0.000000  -0.000000  -0.000000  -0.000000  -0.000000
    33  H    0.000000   0.000000   0.000000   0.000002   0.000028  -0.000434
               7          8          9         10         11         12
     1  N   -0.000000   0.000000  -0.000000   0.000000  -0.000048   0.012972
     2  C   -0.000222  -0.000071  -0.000001   0.000328  -0.054865   0.526986
     3  C   -0.000141   0.000004  -0.000000   0.000016   0.003417  -0.035098
     4  S    0.020624  -0.000234   0.000015  -0.001834  -0.046647  -0.100713
     5  C    0.033182  -0.121364   0.018048   0.026488  -0.096931   0.002506
     6  C   -0.039270  -0.108056  -0.124996   0.321558   0.289407   0.010431
     7  C    6.426870  -0.247391   0.975932  -0.257585  -0.043792  -0.001090
     8  C   -0.247391   9.023588  -1.214842  -0.808609   0.007629  -0.000261
     9  C    0.975932  -1.214842  30.202576  -0.760585  -0.003087  -0.000030
    10  C   -0.257585  -0.808609  -0.760585   6.564623  -0.054716   0.003016
    11  C   -0.043792   0.007629  -0.003087  -0.054716   6.233294  -0.117963
    12  S   -0.001090  -0.000261  -0.000030   0.003016  -0.117963  15.885798
    13  C   -0.607233  -0.422076 -19.584171   1.133589  -0.003020   0.000001
    14  C    0.000425   0.003120  -0.111943  -0.000099   0.000000   0.000000
    15  C   -0.000956   0.000613  -0.098874   0.000321  -0.000000  -0.000000
    16  S   -0.000292  -0.000026  -0.003863   0.000001   0.000000   0.000000
    17  C   -0.000525   0.001966  -0.110306  -0.000601   0.000000   0.000000
    18  C   -0.111523  -0.264200  -5.475907   0.175665  -0.000226  -0.000001
    19  H    0.000000   0.000000  -0.000000  -0.000000   0.000003   0.000131
    20  H    0.000000  -0.000000  -0.000000   0.000000  -0.000006  -0.002925
    21  H    0.000033   0.000000  -0.000000  -0.000000  -0.000232  -0.001412
    22  H   -0.048432  -0.001331  -0.000090   0.001699   0.035128  -0.000859
    23  H    0.005260   0.035801  -0.016949   0.035081   0.137856  -0.007492
    24  H    0.342894  -0.116628  -0.038776   0.018553   0.001527   0.000024
    25  H    0.032001   0.102882   0.552042  -0.067484  -0.001329  -0.000113
    26  H   -0.000023   0.000011   0.000292   0.000017   0.000000   0.000000
    27  H   -0.000050   0.000015   0.002986  -0.000023  -0.000000   0.000000
    28  H    0.000451   0.000946   0.009132   0.000351   0.000000   0.000000
    29  H   -0.001153   0.000657   0.007072  -0.000222  -0.000000   0.000000
    30  H    0.000000  -0.000000   0.000027  -0.000000  -0.000000  -0.000000
    31  H    0.000000   0.000033   0.003912   0.000009   0.000000   0.000000
    32  H    0.000004  -0.000039   0.006496  -0.000007  -0.000000  -0.000000
    33  H   -0.025018  -0.002883   0.037152  -0.000689   0.000007   0.000000
              13         14         15         16         17         18
     1  N   -0.000000   0.000000  -0.000000  -0.000000   0.000000  -0.000000
     2  C   -0.000000   0.000000  -0.000000   0.000000   0.000000  -0.000000
     3  C    0.000000   0.000000  -0.000000   0.000000  -0.000000   0.000000
     4  S   -0.000034   0.000000  -0.000000   0.000000  -0.000000   0.000006
     5  C    0.005429  -0.000000   0.000002   0.000000   0.000000   0.001410
     6  C    0.125182   0.000033  -0.000015   0.000007  -0.000003   0.029306
     7  C   -0.607233   0.000425  -0.000956  -0.000292  -0.000525  -0.111523
     8  C   -0.422076   0.003120   0.000613  -0.000026   0.001966  -0.264200
     9  C  -19.584171  -0.111943  -0.098874  -0.003863  -0.110306  -5.475907
    10  C    1.133589  -0.000099   0.000321   0.000001  -0.000601   0.175665
    11  C   -0.003020   0.000000  -0.000000   0.000000   0.000000  -0.000226
    12  S    0.000001   0.000000  -0.000000   0.000000   0.000000  -0.000001
    13  C   23.019748   0.070260   0.028733   0.000636   0.092746   3.946539
    14  C    0.070260   5.032940   0.304958  -0.013488   0.534105   0.106134
    15  C    0.028733   0.304958   5.391019   0.261680  -0.013785  -0.221880
    16  S    0.000636  -0.013488   0.261680  15.816394  -0.000695   0.016912
    17  C    0.092746   0.534105  -0.013785  -0.000695   5.873045   0.029629
    18  C    3.946539   0.106134  -0.221880   0.016912   0.029629   7.879732
    19  H   -0.000000  -0.000000  -0.000000   0.000000  -0.000000   0.000000
    20  H    0.000000   0.000000  -0.000000  -0.000000   0.000000  -0.000000
    21  H   -0.000000   0.000000   0.000000  -0.000000   0.000000  -0.000000
    22  H    0.000005   0.000000  -0.000000   0.000001  -0.000000   0.000079
    23  H    0.018258  -0.000004   0.000001  -0.000000  -0.000001  -0.000093
    24  H    0.042657  -0.000124  -0.000289   0.000749  -0.000029   0.009527
    25  H   -0.516742  -0.000937   0.000005  -0.000007  -0.011409  -0.077120
    26  H    0.005887   0.187867  -0.088033   0.015625  -0.041449  -0.000460
    27  H   -0.001867   0.149389   0.023165   0.004377  -0.032204  -0.003855
    28  H    0.003135  -0.096766   0.331949  -0.091825   0.011392  -0.040284
    29  H   -0.006414  -0.090902   0.350252  -0.071096   0.006834  -0.026818
    30  H   -0.000007  -0.000476  -0.007498   0.274857   0.000041  -0.000255
    31  H   -0.003119  -0.024463  -0.007748   0.000176  -0.014420   0.013109
    32  H   -0.002105  -0.018841  -0.000110  -0.000016   0.031496   0.003175
    33  H   -0.073186  -0.108995  -0.051452   0.003761   0.003758   0.255653
              19         20         21         22         23         24
     1  N    0.113434   0.074458  -0.105555  -0.000029  -0.000001   0.000000
     2  C    0.000600   0.007900   0.050567   0.008486  -0.003320   0.000018
     3  C   -0.034594  -0.005463   0.480716  -0.003681  -0.000337   0.000002
     4  S   -0.003686  -0.004380  -0.319945  -0.095468   0.011550   0.000696
     5  C    0.000089   0.000027   0.010368   0.269901   0.010774   0.011318
     6  C    0.000003   0.000000   0.000232  -0.051746  -0.134815  -0.041671
     7  C    0.000000   0.000000   0.000033  -0.048432   0.005260   0.342894
     8  C    0.000000  -0.000000   0.000000  -0.001331   0.035801  -0.116628
     9  C   -0.000000  -0.000000  -0.000000  -0.000090  -0.016949  -0.038776
    10  C   -0.000000   0.000000  -0.000000   0.001699   0.035081   0.018553
    11  C    0.000003  -0.000006  -0.000232   0.035128   0.137856   0.001527
    12  S    0.000131  -0.002925  -0.001412  -0.000859  -0.007492   0.000024
    13  C   -0.000000   0.000000  -0.000000   0.000005   0.018258   0.042657
    14  C   -0.000000   0.000000   0.000000   0.000000  -0.000004  -0.000124
    15  C   -0.000000  -0.000000   0.000000  -0.000000   0.000001  -0.000289
    16  S    0.000000  -0.000000  -0.000000   0.000001  -0.000000   0.000749
    17  C   -0.000000   0.000000   0.000000  -0.000000  -0.000001  -0.000029
    18  C    0.000000  -0.000000  -0.000000   0.000079  -0.000093   0.009527
    19  H    0.798830   0.065371  -0.019105  -0.000022   0.000000  -0.000000
    20  H    0.065371   0.636567   0.007319  -0.000000  -0.000000   0.000000
    21  H   -0.019105   0.007319   0.719676   0.002157   0.000007   0.000000
    22  H   -0.000022  -0.000000   0.002157   0.852445  -0.004933   0.005889
    23  H    0.000000  -0.000000   0.000007  -0.004933   0.779419  -0.001854
    24  H   -0.000000   0.000000   0.000000   0.005889  -0.001854   0.590773
    25  H    0.000000  -0.000000  -0.000000   0.000022  -0.014978  -0.001545
    26  H   -0.000000   0.000000   0.000000   0.000000  -0.000000   0.000012
    27  H   -0.000000   0.000000   0.000000  -0.000000  -0.000000   0.000041
    28  H   -0.000000   0.000000   0.000000  -0.000000   0.000001  -0.000526
    29  H   -0.000000   0.000000   0.000000  -0.000001   0.000001   0.001128
    30  H    0.000000  -0.000000  -0.000000  -0.000000   0.000000  -0.000004
    31  H    0.000000   0.000000   0.000000  -0.000000   0.000000   0.000000
    32  H    0.000000   0.000000  -0.000000  -0.000000   0.000000  -0.000001
    33  H   -0.000000   0.000000  -0.000000   0.000023  -0.000121   0.023681
              25         26         27         28         29         30
     1  N   -0.000000   0.000000  -0.000000   0.000000  -0.000000  -0.000000
     2  C   -0.000001   0.000000  -0.000000   0.000000   0.000000  -0.000000
     3  C    0.000000   0.000000   0.000000  -0.000000  -0.000000  -0.000000
     4  S   -0.000015   0.000000  -0.000000   0.000000  -0.000000  -0.000000
     5  C   -0.000679  -0.000000   0.000000  -0.000001  -0.000001  -0.000000
     6  C   -0.004764   0.000000  -0.000001  -0.000019  -0.000132  -0.000000
     7  C    0.032001  -0.000023  -0.000050   0.000451  -0.001153   0.000000
     8  C    0.102882   0.000011   0.000015   0.000946   0.000657  -0.000000
     9  C    0.552042   0.000292   0.002986   0.009132   0.007072   0.000027
    10  C   -0.067484   0.000017  -0.000023   0.000351  -0.000222  -0.000000
    11  C   -0.001329   0.000000  -0.000000   0.000000  -0.000000  -0.000000
    12  S   -0.000113   0.000000   0.000000   0.000000   0.000000  -0.000000
    13  C   -0.516742   0.005887  -0.001867   0.003135  -0.006414  -0.000007
    14  C   -0.000937   0.187867   0.149389  -0.096766  -0.090902  -0.000476
    15  C    0.000005  -0.088033   0.023165   0.331949   0.350252  -0.007498
    16  S   -0.000007   0.015625   0.004377  -0.091825  -0.071096   0.274857
    17  C   -0.011409  -0.041449  -0.032204   0.011392   0.006834   0.000041
    18  C   -0.077120  -0.000460  -0.003855  -0.040284  -0.026818  -0.000255
    19  H    0.000000  -0.000000  -0.000000  -0.000000  -0.000000   0.000000
    20  H   -0.000000   0.000000   0.000000   0.000000   0.000000  -0.000000
    21  H   -0.000000   0.000000   0.000000   0.000000   0.000000  -0.000000
    22  H    0.000022   0.000000  -0.000000  -0.000000  -0.000001  -0.000000
    23  H   -0.014978  -0.000000  -0.000000   0.000001   0.000001   0.000000
    24  H   -0.001545   0.000012   0.000041  -0.000526   0.001128  -0.000004
    25  H    1.056751  -0.000061  -0.000012  -0.000124  -0.000008   0.000000
    26  H   -0.000061   1.154225  -0.141727   0.023915  -0.039312  -0.001218
    27  H   -0.000012  -0.141727   1.063590  -0.059794   0.014689   0.001960
    28  H   -0.000124   0.023915  -0.059794   0.744672  -0.014556  -0.001942
    29  H   -0.000008  -0.039312   0.014689  -0.014556   0.628077   0.003740
    30  H    0.000000  -0.001218   0.001960  -0.001942   0.003740   0.560643
    31  H   -0.000100   0.020155  -0.004403   0.000999   0.000069   0.000004
    32  H    0.000371  -0.017237  -0.000595  -0.000196  -0.000233  -0.000000
    33  H   -0.000790   0.004310   0.009621   0.012893   0.040265   0.000128
              31         32         33
     1  N    0.000000  -0.000000   0.000000
     2  C    0.000000  -0.000000   0.000000
     3  C   -0.000000  -0.000000   0.000000
     4  S    0.000000  -0.000000   0.000002
     5  C   -0.000000  -0.000000   0.000028
     6  C   -0.000000  -0.000000  -0.000434
     7  C    0.000000   0.000004  -0.025018
     8  C    0.000033  -0.000039  -0.002883
     9  C    0.003912   0.006496   0.037152
    10  C    0.000009  -0.000007  -0.000689
    11  C    0.000000  -0.000000   0.000007
    12  S    0.000000  -0.000000   0.000000
    13  C   -0.003119  -0.002105  -0.073186
    14  C   -0.024463  -0.018841  -0.108995
    15  C   -0.007748  -0.000110  -0.051452
    16  S    0.000176  -0.000016   0.003761
    17  C   -0.014420   0.031496   0.003758
    18  C    0.013109   0.003175   0.255653
    19  H    0.000000   0.000000  -0.000000
    20  H    0.000000   0.000000   0.000000
    21  H    0.000000  -0.000000  -0.000000
    22  H   -0.000000  -0.000000   0.000023
    23  H    0.000000   0.000000  -0.000121
    24  H    0.000000  -0.000001   0.023681
    25  H   -0.000100   0.000371  -0.000790
    26  H    0.020155  -0.017237   0.004310
    27  H   -0.004403  -0.000595   0.009621
    28  H    0.000999  -0.000196   0.012893
    29  H    0.000069  -0.000233   0.040265
    30  H    0.000004  -0.000000   0.000128
    31  H    0.752436   0.189342   0.000026
    32  H    0.189342   0.694117  -0.000105
    33  H    0.000026  -0.000105   0.702521
 Mulliken charges:
               1
     1  N   -0.554959
     2  C    0.218539
     3  C   -0.073419
     4  S    0.402808
     5  C   -0.145172
     6  C    0.201181
     7  C   -0.452980
     8  C    0.130748
     9  C    1.728740
    10  C   -0.328861
    11  C   -0.285406
    12  S   -0.173909
    13  C   -1.272830
    14  C    0.077809
    15  C   -0.202057
    16  S   -0.213868
    17  C   -0.359584
    18  C   -0.244250
    19  H    0.078947
    20  H    0.221132
    21  H    0.175173
    22  H    0.030759
    23  H    0.150891
    24  H    0.151957
    25  H   -0.045857
    26  H   -0.082797
    27  H   -0.025304
    28  H    0.166199
    29  H    0.198063
    30  H    0.169999
    31  H    0.073981
    32  H    0.114482
    33  H    0.169845
 Sum of Mulliken charges =  -0.00000
 Mulliken charges with hydrogens summed into heavy atoms:
               1
     1  N   -0.254881
     2  C    0.218539
     3  C    0.101754
     4  S    0.402808
     5  C   -0.114413
     6  C    0.201181
     7  C   -0.301023
     8  C    0.130748
     9  C    1.728740
    10  C   -0.374718
    11  C   -0.134515
    12  S   -0.173909
    13  C   -1.272830
    14  C   -0.030292
    15  C    0.162205
    16  S   -0.043868
    17  C   -0.171122
    18  C   -0.074405
 Electronic spatial extent (au):  <R**2>=           9458.6395
 Charge=             -0.0000 electrons
 Dipole moment (field-independent basis, Debye):
    X=             -0.3857    Y=              7.0176    Z=              1.4329  Tot=              7.1728
 Quadrupole moment (field-independent basis, Debye-Ang):
   XX=           -125.7885   YY=           -129.8380   ZZ=           -130.6981
   XY=            -14.5088   XZ=              6.0588   YZ=              0.3306
 Traceless Quadrupole moment (field-independent basis, Debye-Ang):
   XX=              2.9864   YY=             -1.0631   ZZ=             -1.9233
   XY=            -14.5088   XZ=              6.0588   YZ=              0.3306
 Octapole moment (field-independent basis, Debye-Ang**2):
  XXX=           -147.2565  YYY=             58.6473  ZZZ=              2.0469  XYY=            -39.2423
  XXY=            103.7261  XXZ=             39.3500  XZZ=             -3.0759  YZZ=              9.9800
  YYZ=              9.6314  XYZ=             17.8292
 Hexadecapole moment (field-independent basis, Debye-Ang**3):
 XXXX=         -10952.7756 YYYY=          -1821.5393 ZZZZ=           -179.8257 XXXY=           -590.7693
 XXXZ=            307.3783 YYYX=             -5.1862 YYYZ=             16.1771 ZZZX=              9.5484
 ZZZY=              1.3679 XXYY=          -1994.8686 XXZZ=          -1984.0325 YYZZ=           -335.8829
 XXYZ=            111.7365 YYXZ=             38.1345 ZZXY=             36.2734
 N-N= 1.620418784881D+03 E-N=-7.462174221963D+03  KE= 1.795801842441D+03
 PrsmSu:  requested number of processors reduced to:  12 ShMem   1 Linda.
 Calling FoFJK, ICntrl=      2127 FMM=F ISym2X=0 I1Cent= 0 IOpClX= 0 NMat=1 NMatS=1 NMatT=0.
 ***** Axes restored to original set *****
 -------------------------------------------------------------------
 Center     Atomic                   Forces (Hartrees/Bohr)
 Number     Number              X              Y              Z
 -------------------------------------------------------------------
      1        7          -0.158234496   -0.013770233    0.023797445
      2        6           0.042728788   -0.016228737    0.027377927
      3        6          -0.281989570   -0.116545443    0.162865665
      4       16           0.204178955    0.070931488   -0.113755377
      5        6          -0.027922713    0.027465210   -0.047275090
      6        6          -0.076682942   -0.041846484    0.037639972
      7        6          -0.015374494    0.002276971    0.065933224
      8        6           0.003313687    2.860664924   -0.206512386
      9        6          -5.321468849   -0.203191776    0.873900375
     10        6           0.111774840   -2.895800764    0.270087404
     11        6           0.161622837    0.023651238   -0.065934468
     12       16          -0.042418013   -0.006758210    0.036269104
     13        6           5.417334117   -0.060445355   -0.539459710
     14        6           0.000841257    0.097429940   -0.172878426
     15        6          -0.039078154    0.010400415    0.035804920
     16       16           0.015755520    0.012147152   -0.047031084
     17        6           0.097721675   -0.019600509    0.055906086
     18        6          -0.049507712    0.291487533   -0.360931097
     19        1           0.051385809   -0.019850071    0.032441965
     20        1           0.052322423    0.022538578   -0.036638635
     21        1          -0.069060076   -0.002707898    0.005382638
     22        1          -0.071837278    0.086387280   -0.118160047
     23        1          -0.002723155   -0.046424572    0.050759399
     24        1          -0.008896802    0.039220293   -0.057033567
     25        1           0.016807959   -0.053686208    0.021183375
     26        1           0.005245934   -0.038651378    0.026104318
     27        1          -0.006937581   -0.014559519    0.034755190
     28        1          -0.017326347   -0.024314537   -0.039252575
     29        1          -0.011837986    0.051674536    0.007063564
     30        1           0.001133466    0.012715209    0.000820461
     31        1           0.001572701   -0.051709177   -0.016754966
     32        1          -0.029910207    0.049299048    0.021044609
     33        1           0.047466409   -0.032198943    0.032479791
 -------------------------------------------------------------------
 Cartesian Forces:  Max     5.417334117 RMS     0.876580912

 GradGradGradGradGradGradGradGradGradGradGradGradGradGradGradGradGradGrad
 Berny optimization.
 FormGI is forming the generalized inverse of G from B-inverse, IUseBI=4.
 Internal  Forces:  Max     2.300995266 RMS     0.319661514
 Search for a local minimum.
 Step number   1 out of a maximum of  197
 All quantities printed in internal units (Hartrees-Bohrs-Radians)
 Mixed Optimization -- RFO/linear search
 Second derivative matrix not updated -- first step.
 ITU=  0
     Eigenvalues ---    0.00230   0.00230   0.00230   0.00231   0.00413
     Eigenvalues ---    0.00492   0.00735   0.01046   0.01050   0.01235
     Eigenvalues ---    0.01235   0.01355   0.01502   0.01618   0.01925
     Eigenvalues ---    0.02035   0.02075   0.02694   0.02725   0.02947
     Eigenvalues ---    0.03184   0.03341   0.03359   0.03703   0.03812
     Eigenvalues ---    0.03821   0.03946   0.04278   0.06091   0.07028
     Eigenvalues ---    0.07080   0.08301   0.08753   0.09090   0.09265
     Eigenvalues ---    0.09992   0.10272   0.10626   0.11255   0.11325
     Eigenvalues ---    0.12028   0.12731   0.13324   0.13362   0.13480
     Eigenvalues ---    0.14363   0.14996   0.15640   0.15818   0.15855
     Eigenvalues ---    0.15976   0.15989   0.15996   0.16000   0.16000
     Eigenvalues ---    0.16000   0.16000   0.16518   0.17481   0.17824
     Eigenvalues ---    0.19734   0.19775   0.20072   0.20179   0.22000
     Eigenvalues ---    0.22003   0.22286   0.22739   0.22750   0.24245
     Eigenvalues ---    0.24551   0.24975   0.24980   0.27498   0.27632
     Eigenvalues ---    0.30589   0.33861   0.34748   0.40346   0.40905
     Eigenvalues ---    0.42205   0.42550   0.47653   0.52666   0.58341
     Eigenvalues ---    0.58643   0.66109   0.72390   0.76366   0.82713
     Eigenvalues ---    1.03607   7.33596  11.05146
 RFO step:  Lambda=-2.13683056D+00 EMin= 2.30000000D-03
 Linear search not attempted -- first point.
 Maximum step size (   0.300) exceeded in Quadratic search.
    -- Step size scaled by   0.550
 Iteration  1 RMS(Cart)=  0.13188912 RMS(Int)=  0.00275550
 Iteration  2 RMS(Cart)=  0.00683973 RMS(Int)=  0.00039407
 Iteration  3 RMS(Cart)=  0.00002288 RMS(Int)=  0.00039396
 Iteration  4 RMS(Cart)=  0.00000002 RMS(Int)=  0.00039396
 Variable       Old X    -DE/DX   Delta X   Delta X   Delta X     New X
                                 (Linear)    (Quad)   (Total)
    R1        2.71085   0.04726   0.00000   0.01023   0.01023   2.72108
    R2        2.74507  -0.05556   0.00000  -0.01349  -0.01349   2.73157
    R3        2.79154  -0.06035   0.00000  -0.01470  -0.01470   2.77684
    R4        2.77583   0.01541   0.00000   0.00275   0.00269   2.77853
    R5        2.94549   0.11072   0.00000   0.02094   0.02100   2.96649
    R6        3.11928  -0.00635   0.00000  -0.00136  -0.00136   3.11792
    R7        2.82392   0.40145   0.00000   0.07734   0.07732   2.90125
    R8        1.97042   0.03527   0.00000   0.00762   0.00762   1.97804
    R9        2.80185   0.25704   0.00000   0.04768   0.04768   2.84953
   R10        2.39937   0.29989   0.00000   0.05685   0.05685   2.45622
   R11        1.78978   0.16277   0.00000   0.03290   0.03290   1.82268
   R12        2.46410   0.12466   0.00000   0.02450   0.02450   2.48860
   R13        3.21977  -0.01166   0.00000  -0.00277  -0.00277   3.21700
   R14        2.92945   0.18924   0.00000   0.04297   0.04298   2.97243
   R15        1.89009   0.06934   0.00000   0.01447   0.01448   1.90457
   R16        2.64112  -0.66356   0.00000  -0.02084  -0.02086   2.62026
   R17        1.54404   1.81793   0.00000   0.07659   0.07733   1.62137
   R18        3.12244   1.09541   0.00000   0.07110   0.07060   3.19304
   R19        3.23829   0.32903   0.00000   0.02215   0.02189   3.26018
   R20        1.32181   2.30100   0.00000   0.13364   0.13598   1.45778
   R21        2.34071   0.82948   0.00000   0.07218   0.07140   2.41211
   R22        2.90391   0.36061   0.00000   0.00818   0.00763   2.91154
   R23        2.41555  -0.02482   0.00000  -0.00585  -0.00585   2.40970
   R24        2.17341   0.75103   0.00000   0.05987   0.05966   2.23307
   R25        3.17245   0.06246   0.00000   0.01360   0.01417   3.18662
   R26        3.13680   0.08559   0.00000   0.02014   0.02014   3.15693
   R27        2.52024   0.09177   0.00000   0.01852   0.01852   2.53876
   R28        3.13325   0.08974   0.00000   0.02110   0.02110   3.15435
   R29        2.90540  -0.01980   0.00000  -0.00504  -0.00502   2.90039
   R30        2.93297  -0.02278   0.00000  -0.00579  -0.00576   2.92721
   R31        3.30503   0.03494   0.00000   0.00786   0.00786   3.31290
   R32        2.25958  -0.04049   0.00000  -0.00933  -0.00933   2.25026
   R33        2.27867  -0.04766   0.00000  -0.01101  -0.01101   2.26765
   R34        2.50749   0.01247   0.00000   0.00284   0.00284   2.51033
   R35        3.07120  -0.01180   0.00000  -0.00289  -0.00289   3.06831
   R36        3.03986  -0.02684   0.00000  -0.00661  -0.00661   3.03325
   R37        2.54159  -0.06507   0.00000  -0.01554  -0.01554   2.52605
   R38        2.76601  -0.01410   0.00000  -0.00353  -0.00354   2.76248
   R39        3.13088  -0.00778   0.00000  -0.00160  -0.00165   3.12923
   R40        2.27809  -0.03862   0.00000  -0.00952  -0.00952   2.26857
    A1        1.68870   0.00365   0.00000   0.00086   0.00085   1.68955
    A2        2.73482   0.02194   0.00000   0.00527   0.00528   2.74010
    A3        2.36592   0.01492   0.00000   0.00751   0.00752   2.37345
    A4        1.59095   0.03527   0.00000   0.00731   0.00736   1.59831
    A5        2.69819  -0.01174   0.00000  -0.00184  -0.00189   2.69630
    A6        1.98228  -0.04673   0.00000  -0.01113  -0.01114   1.97114
    A7        2.70952   0.01255   0.00000   0.00409   0.00402   2.71354
    A8        1.60262   0.05846   0.00000   0.01296   0.01303   1.61565
    A9        2.20519   0.15466   0.00000   0.03475   0.03469   2.23988
   A10        2.49587   0.14080   0.00000   0.03285   0.03285   2.52872
   A11        1.72635  -0.06485   0.00000  -0.01510  -0.01509   1.71125
   A12        2.06033  -0.07608   0.00000  -0.01779  -0.01779   2.04254
   A13        2.11486  -0.09737   0.00000  -0.02241  -0.02242   2.09244
   A14        1.46210   0.22712   0.00000   0.05233   0.05233   1.51442
   A15        2.69906  -0.13227   0.00000  -0.03052  -0.03052   2.66854
   A16        1.46864   0.28854   0.00000   0.06737   0.06736   1.53601
   A17        2.36770  -0.13691   0.00000  -0.03183  -0.03184   2.33586
   A18        2.44657  -0.15146   0.00000  -0.03549  -0.03548   2.41108
   A19        1.50930   0.13333   0.00000   0.01657   0.01658   1.52588
[...]
   D39       -2.86264   0.00189   0.00236   0.01278   0.01584  -2.84679
   D40        0.18336   0.00489  -0.00434  -0.01587  -0.02087   0.16249
   D41       -0.16631  -0.00386   0.00223  -0.01157  -0.00922  -0.17553
   D42        2.29480  -0.00307  -0.00035  -0.02488  -0.02502   2.26978
   D43       -0.91642  -0.00032   0.00118   0.00038   0.00312  -0.91330
   D44       -0.25531  -0.00093  -0.00051  -0.01057  -0.01064  -0.26595
   D45        2.81566  -0.00229   0.00414   0.01802   0.02275   2.83841
   D46       -0.78711  -0.00043  -0.00035  -0.01503  -0.01637  -0.80349
   D47       -0.08249  -0.00189   0.00190   0.00546   0.00773  -0.07476
   D48        0.36454   0.00868   0.00123   0.02710   0.02832   0.39286
   D49        0.23820  -0.00254  -0.00201  -0.02827  -0.03021   0.20799
   D50        0.68523   0.00803  -0.00268  -0.00662  -0.00962   0.67561
   D51       -3.05475   0.00266  -0.00063   0.00485   0.00438  -3.05037
   D52        1.04285   0.00404   0.00074   0.01490   0.01585   1.05870
   D53       -1.07690   0.00303   0.00011   0.00581   0.00536  -1.07154
   D54       -0.73860  -0.00396  -0.00601  -0.02686  -0.03411  -0.77271
   D55       -2.92418  -0.00257  -0.00464  -0.01681  -0.02264  -2.94683
   D56        1.23925  -0.00358  -0.00527  -0.02590  -0.03313   1.20612
   D57        0.86164   0.00322   0.00280   0.01355   0.01781   0.87945
   D58       -1.32395   0.00461   0.00417   0.02360   0.02928  -1.29467
   D59        2.83949   0.00360   0.00354   0.01451   0.01879   2.85828
   D60        0.88178   0.00452   0.01342   0.05556   0.06926   0.95104
   D61       -0.58175  -0.01072  -0.01161  -0.07083  -0.08249  -0.66424
   D62       -1.34430   0.00703   0.01175   0.06169   0.07363  -1.27067
   D63       -2.80782  -0.00821  -0.01328  -0.06470  -0.07813  -2.88595
   D64        2.92599   0.00566   0.01428   0.06504   0.07981   3.00580
   D65        1.46246  -0.00958  -0.01075  -0.06135  -0.07194   1.39051
   D66       -2.48846   0.01302   0.00836   0.05850   0.06784  -2.42061
   D67        2.54129  -0.01066  -0.00909  -0.06486  -0.07444   2.46685
   D68        1.55244   0.00615   0.01527   0.07207   0.08787   1.64031
   D69        0.29899  -0.01753  -0.00218  -0.05130  -0.05442   0.24458
   D70       -0.23737   0.02413   0.00525   0.07427   0.07974  -0.15763
   D71       -1.49081   0.00045  -0.01220  -0.04910  -0.06254  -1.55336
   D72       -3.08940   0.00129   0.00138   0.01057   0.01204  -3.07737
   D73       -3.12364  -0.00198   0.00188  -0.00666  -0.00390  -3.12754
   D74        0.12477  -0.00273  -0.00026  -0.01777  -0.01850   0.10628
   D75       -0.03976   0.00058   0.00405   0.00442   0.00847  -0.03129
   D76       -0.07400  -0.00269   0.00455  -0.01281  -0.00747  -0.08146
   D77       -3.10877  -0.00344   0.00241  -0.02391  -0.02206  -3.13083
   D78        1.75765   0.00917  -0.00719   0.00613  -0.00131   1.75634
   D79        1.72342   0.00590  -0.00669  -0.01110  -0.01725   1.70617
   D80       -1.31135   0.00515  -0.00883  -0.02221  -0.03185  -1.34320
   D81       -1.85495  -0.00073   0.01205   0.04183   0.05373  -1.80122
   D82       -1.88918  -0.00400   0.01255   0.02460   0.03779  -1.85139
   D83        1.35923  -0.00475   0.01040   0.01350   0.02320   1.38243
   D84       -1.20033   0.00058   0.00088   0.00129   0.00206  -1.19827
   D85        0.94321   0.00066  -0.00113  -0.00358  -0.00473   0.93848
   D86        3.10165  -0.00419  -0.00093  -0.01570  -0.01650   3.08515
         Item               Value     Threshold  Converged?
 Maximum Force            0.117438     0.000450     NO 
 RMS     Force            0.019725     0.000300     NO 
 Maximum Displacement     1.420105     0.001800     NO 
 RMS     Displacement     0.268415     0.001200     NO 
 Predicted change in Energy=-1.249385D-01
 GradGradGradGradGradGradGradGradGradGradGradGradGradGradGradGradGradGrad

                          Input orientation:                          
 ---------------------------------------------------------------------
 Center     Atomic      Atomic             Coordinates (Angstroms)
 Number     Number       Type             X           Y           Z
 ---------------------------------------------------------------------
      1          7           0        2.004284   -0.322234    1.123329
      2          6           0        3.578885    0.528758   -0.571874
      3          6           0        2.291353    0.234972   -0.130882
      4         16           0        3.228499    1.141486   -2.127846
      5          6           0        4.527286    1.538568   -3.024276
      6          6           0        5.880772    1.382057   -2.611537
      7          6           0        6.926711    1.876977   -3.444027
      8          6           0        8.231860    1.959644   -3.037016
      9          6           0        9.032243    2.443102   -4.128006
     10          6           0        9.251819    1.368497   -2.355425
     11          6           0        6.209171    0.562836   -1.530911
     12         16           0        4.997015    0.363637    0.331370
     13          6           0       10.432847    2.913375   -4.462410
     14          6           0       11.716956    4.312176   -5.993860
     15          6           0       10.587065    4.992510   -7.202793
     16         16           0       11.659242    5.895793   -8.377014
     17          6           0       11.941344    3.536177   -4.666961
     18          6           0        9.592272    3.394182   -5.358490
     19          1           0        1.019649   -0.251344    0.801046
     20          1           0        1.653112   -0.690268    1.955318
     21          1           0        1.387374    0.456507   -0.691723
     22          1           0        4.252083    2.004487   -3.973210
     23          1           0        7.181829    0.677436   -1.016167
     24          1           0        6.737880    2.221733   -4.460354
     25          1           0       10.084441    2.023875   -2.518632
     26          1           0       12.404848    3.989702   -6.722670
     27          1           0       12.123343    5.277651   -5.909743
     28          1           0        9.815375    5.598720   -6.730134
     29          1           0       10.142423    4.166214   -7.759071
     30          1           0       12.036667    6.886098   -7.536354
     31          1           0       12.577747    4.001817   -3.946199
     32          1           0       12.875817    3.033708   -4.701116
     33          1           0        8.818019    3.623432   -6.047473
 ---------------------------------------------------------------------
                    Distance matrix (angstroms):
                    1          2          3          4          5
     1  N    0.000000
     2  C    2.465212   0.000000
     3  C    1.402117   1.392308   0.000000
     4  S    3.769790   1.708583   2.384927   0.000000
     5  C    5.199111   2.816639   3.882072   1.627301   0.000000
     6  C    5.646326   3.191713   4.511472   2.706730   1.423648
     7  C    7.065944   4.612472   5.929558   3.993752   2.459259
     8  C    7.829313   5.456605   6.834451   5.150689   3.728450
     9  C    9.198686   6.786009   8.142017   6.275213   4.725574
    10  C    8.215051   6.005697   7.394697   6.031891   4.774673
    11  C    5.050685   2.799878   4.173352   3.094442   2.451719
    12  S    3.170813   1.689440   2.747878   3.127370   3.586289
    13  C   10.616512   8.234043   9.603119   7.777687   6.231692
    14  C   12.902253  10.485246  11.825400   9.851560   8.258492
    15  C   13.085677  10.630558  11.893903   9.733138   8.130845
    16  S   14.904314  12.450600  13.704048  11.520979   9.924818
    17  C   12.130951   9.784940  11.162271   9.385912   7.852205
    18  C   10.649098   8.202632   9.519028   7.483937   5.877580
    19  H    1.038459   3.007184   1.649917   3.923953   5.490027
    20  H    0.975180   3.403134   2.369736   4.744406   6.166436
    21  H    2.069161   2.195974   1.086646   2.433390   4.058412
    22  H    6.036633   3.768296   4.662523   2.279882   1.092379
    23  H    5.690673   3.633278   4.989615   4.132795   3.438118
    24  H    7.749595   5.288260   6.516375   4.350090   2.723189
    25  H    9.168263   6.953237   8.344683   6.923530   5.601176
    26  H   13.723128  11.300799  12.642486  10.650359   9.041138
    27  H   13.535811  11.137890  12.469638  10.513271   8.944649
    28  H   12.559766  10.125340  11.354771   9.188848   7.627720
    29  H   12.855836  10.390714  11.631132   9.416052   7.800806
    30  H   15.086380  12.667037  13.930170  11.825242  10.263807
    31  H   12.497826  10.218989  11.599813   9.944664   8.469207
    32  H   12.781891  10.476563  11.863845  10.162331   8.645531
    33  H   10.649679   8.185824   9.438489   7.264039   5.647722
                    6          7          8          9         10
     6  C    0.000000
     7  C    1.425473   0.000000
     8  C    2.458099   1.369637   0.000000
     9  C    3.654760   2.285080   1.436874   0.000000
    10  C    3.380789   2.617199   1.361741   2.084475   0.000000
    11  C    1.395249   2.429371   2.882827   4.272007   3.253709
    12  S    3.237114   4.501950   4.935330   6.363433   5.131469
    13  C    5.147043   3.795288   2.790286   1.514818   2.867204
    14  C    7.354369   5.947965   5.140353   3.765970   5.289646
    15  C    7.500946   6.101890   5.665595   4.286171   6.197849
    16  S    9.327660   7.929822   7.466980   6.072583   7.908959
    17  C    6.752447   5.421721   4.347696   3.154070   4.156391
    18  C    5.036827   3.615562   3.049240   1.652959   3.638366
    19  H    6.159890   7.579168   8.463756   9.785565   8.964141
    20  H    6.559253   7.972109   8.673254  10.063618   8.975598
    21  H    4.973224   6.346430   7.389642   8.613863   8.090063
    22  H    2.212284   2.729456   4.088654   4.802737   5.293304
    23  H    2.175878   2.720016   2.613513   4.028046   2.560476
    24  H    2.204045   1.089694   2.080038   2.328854   3.388012
    25  H    4.253398   3.293811   1.924813   1.967983   1.072109
    26  H    8.140319   6.724812   5.926130   4.527551   5.990421
    27  H    8.063716   6.682015   5.865610   4.556770   6.013345
    28  H    7.086903   5.744062   5.421210   4.164407   6.111503
    29  H    7.239496   5.848163   5.551307   4.169682   6.149780
    30  H    9.614745   8.243184   7.680531   6.354809   8.064820
    31  H    7.313955   6.058162   4.887108   3.877273   4.530644
    32  H    7.484981   6.189520   5.048681   3.930690   4.626938
    33  H    5.045477   3.661295   3.489216   2.263498   4.347888
                   11         12         13         14         15
    11  C    0.000000
    12  S    2.230940   0.000000
    13  C    5.653155   7.683083   0.000000
    14  C    8.019424  10.037784   2.439450   0.000000
    15  C    8.423670  10.461297   3.443296   1.789142   0.000000
    16  S   10.247576  12.281122   5.071783   2.861922   1.828737
    17  C    7.178676   9.125352   1.644776   1.553443   3.222642
    18  C    5.840569   7.916761   1.319357   2.400144   2.635473
    19  H    5.747352   4.051942  11.239560  13.469552  13.531257
    20  H    5.872115   3.863885  11.456754  13.765712  13.999302
    21  H    4.895433   3.752979  10.103211  12.234341  12.149226
    22  H    3.445775   4.666553   6.266358   8.070489   7.713008
    23  H    1.106417   2.586066   5.238810   7.652198   8.275859
    24  H    3.407801   5.426210   3.759143   5.613625   5.478540
    25  H    4.257693   6.063069   2.165841   4.469746   5.568374
    26  H    8.779760  10.852826   3.186855   1.052782   2.130840
    27  H    8.739627  10.671625   3.246899   1.050889   2.028160
    28  H    8.086826  10.024347   3.568603   2.411080   1.089221
    29  H    8.200292  10.314556   3.538634   2.369901   1.090833
    30  H   10.488503  12.409685   5.272940   3.017711   2.407962
    31  H    7.630136   9.434058   2.460036   2.242810   3.943309
    32  H    7.784573   9.722691   2.457552   2.156067   3.915824
    33  H    6.047534   8.118865   2.371556   2.980114   2.517670
                   16         17         18         19         20
    16  S    0.000000
    17  C    4.405889   0.000000
    18  C    4.431919   2.452859   0.000000
    19  H   15.337047  12.787801  11.167794   0.000000
    20  H   15.819478  12.944695  11.541437   1.387902   0.000000
    21  H   13.934160  11.690731   9.885798   1.692523   2.896986
    22  H    9.455250   7.870966   5.689277   6.191197   7.011689
    23  H   10.072762   6.644824   5.660982   6.491330   6.423943
    24  H    7.284143   5.370893   3.213851   8.154545   8.688812
    25  H    7.196692   3.217214   3.191358   9.918031   9.923210
    26  H    2.631723   2.155565   3.182172  14.290401  14.587989
    27  H    2.585520   2.147175   3.202758  14.103067  14.391003
    28  H    2.490042   3.609780   2.605988  12.973309  13.476312
    29  H    2.382023   3.632383   2.580986  13.267081  13.784889
    30  H    1.352724   4.411855   4.786610  15.550884  15.978465
    31  H    4.905396   1.068329   3.358102  13.199066  13.273704
    32  H    4.814957   1.061547   3.368049  13.477169  13.569274
    33  H    4.320062   3.415932   1.061471  11.078388  11.575342
                   21         22         23         24         25
    21  H    0.000000
    22  H    4.622873   0.000000
    23  H    5.807735   4.369048   0.000000
    24  H    6.778386   2.542379   3.800575   0.000000
    25  H    9.024035   6.011038   3.534891   3.874132   0.000000
    26  H   13.047626   8.829960   8.415178   6.352820   5.188709
    27  H   12.873702   8.741882   8.338323   6.359448   5.122871
    28  H   11.573071   7.174216   7.987742   5.101659   5.530702
    29  H   11.847372   7.328160   8.148831   5.123813   5.661729
    30  H   14.198453   9.855246  10.228869   7.700339   7.254648
    31  H   12.181350   8.561936   6.982301   6.126753   3.488091
    32  H   12.437907   8.715385   7.179998   6.196091   3.684397
    33  H    9.691644   5.269851   6.055580   2.968280   4.076165
                   26         27         28         29         30
    26  H    0.000000
    27  H    1.548841   0.000000
    28  H    3.048667   2.470393   0.000000
    29  H    2.494765   2.929053   1.793808   0.000000
    30  H    3.030965   2.289209   2.690997   3.321976   0.000000
    31  H    2.781876   2.385317   4.234512   4.527231   4.636923
    32  H    2.285261   2.657494   4.479119   4.255009   4.856301
    33  H    3.668159   3.698727   2.315709   2.231194   4.818864
                   31         32         33
    31  H    0.000000
    32  H    1.263322   0.000000
    33  H    4.323665   4.315806   0.000000
 Stoichiometry    C14H15NS3
 Framework group  C1[X(C14H15NS3)]
 Deg. of freedom    93
 Full point group                 C1      NOp   1
 Largest Abelian subgroup         C1      NOp   1
 Largest concise Abelian subgroup C1      NOp   1
                         Standard orientation:                         
 ---------------------------------------------------------------------
 Center     Atomic      Atomic             Coordinates (Angstroms)
 Number     Number       Type             X           Y           Z
 ---------------------------------------------------------------------
      1          7           0       -7.304365   -0.004686    0.378566
      2          6           0       -4.864993    0.260279    0.140812
      3          6           0       -6.156571    0.777989    0.189036
      4         16           0       -3.977788    1.696504   -0.122587
      5          6           0       -2.375116    1.494162   -0.319083
      6          6           0       -1.705827    0.237662   -0.313266
      7          6           0       -0.282278    0.204061   -0.379246
      8          6           0        0.450243   -0.934072   -0.169550
      9          6           0        1.842330   -0.637040   -0.365696
     10          6           0        0.554234   -2.275854   -0.377263
     11          6           0       -2.416711   -0.952487   -0.471095
     12         16           0       -4.435237   -1.354514    0.389730
     13          6           0        3.223228   -1.241077   -0.214261
     14          6           0        5.576913   -0.691763    0.116403
     15          6           0        5.733096    1.090470    0.133216
     16         16           0        7.533571    1.393287    0.237465
     17          6           0        4.666878   -1.950678    0.128711
     18          6           0        3.327512    0.074131   -0.221665
     19          1           0       -7.795564    0.908761    0.326246
     20          1           0       -8.180186   -0.411431    0.514474
     21          1           0       -6.393152    1.837308    0.137365
     22          1           0       -1.841615    2.444163   -0.397600
     23          1           0       -1.971579   -1.916488   -0.160099
     24          1           0        0.303958    1.095496   -0.600841
     25          1           0        1.503189   -2.530039    0.052029
     26          1           0        6.361428   -0.818833   -0.574060
     27          1           0        6.200954   -0.700571    0.961899
     28          1           0        5.148220    1.534158    0.937867
     29          1           0        5.408522    1.471861   -0.835860
     30          1           0        7.711128    0.934352    1.497510
     31          1           0        4.891463   -2.691926    0.864536
     32          1           0        5.156808   -2.749987   -0.369239
     33          1           0        3.260608    1.126836   -0.340225
 ---------------------------------------------------------------------
 Rotational constants (GHZ):           1.0212564           0.0788776           0.0738430
 Standard basis: 6-31G(2df,p) (6D, 7F)
 There are   645 symmetry adapted cartesian basis functions of A   symmetry.
 There are   591 symmetry adapted basis functions of A   symmetry.
   591 basis functions,   969 primitive gaussians,   645 cartesian basis functions
    77 alpha electrons       77 beta electrons
       nuclear repulsion energy      1429.1471357942 Hartrees.
 NAtoms=   33 NActive=   33 NUniq=   33 SFac= 1.00D+00 NAtFMM=   60 NAOKFM=F Big=F
 Integral buffers will be    131072 words long.
 Raffenetti 2 integral format.
 Two-electron integral symmetry is turned on.
 One-electron integrals computed using PRISM.
 PrsmSu:  requested number of processors reduced to:  12 ShMem   1 Linda.
 NBasis=   591 RedAO= T EigKep=  2.81D-04  NBF=   591
 NBsUse=   591 1.00D-06 EigRej= -1.00D+00 NBFU=   591
 Initial guess from the checkpoint file:  "Nc1csccccc2cqc1dSrdCqCCSrCCd2.chk"
 B after Tr=    -0.000000    0.000000    0.000000
         Rot=    0.999740   -0.022604   -0.001832   -0.002495 Ang=  -2.61 deg.
 ExpMin= 1.17D-01 ExpMax= 2.19D+04 ExpMxC= 3.30D+03 IAcc=2 IRadAn=         4 AccDes= 0.00D+00
 Harris functional with IExCor=  402 and IRadAn=       4 diagonalized for initial guess.
 HarFok:  IExCor=  402 AccDes= 0.00D+00 IRadAn=         4 IDoV= 1 UseB2=F ITyADJ=14
 ICtDFT=  3500011 ScaDFX=  1.000000  1.000000  1.000000  1.000000
 FoFCou: FMM=F IPFlag=           0 FMFlag=      100000 FMFlg1=           0
         NFxFlg=           0 DoJE=T BraDBF=F KetDBF=T FulRan=T
         wScrn=  0.000000 ICntrl=       500 IOpCl=  0 I1Cent=   200000004 NGrid=           0
         NMat0=    1 NMatS0=      1 NMatT0=    0 NMatD0=    1 NMtDS0=    0 NMtDT0=    0
 Petite list used in FoFCou.
 Requested convergence on RMS density matrix=1.00D-08 within 128 cycles.
 Requested convergence on MAX density matrix=1.00D-06.
 Requested convergence on             energy=1.00D-06.
 No special actions if energy rises.
 Integral accuracy reduced to 1.0D-05 until final iterations.
 EnCoef did     2 forward-backward iterations
 Initial convergence to 1.0D-05 achieved.  Increase integral accuracy.
slurmstepd: error: *** JOB 27447117 ON lewis4-r630-hpc4-node226 CANCELLED AT 2023-05-16T16:43:17 DUE TO TIME LIMIT ***
