### Starting Gaussian ###
 Entering Gaussian System, Link 0=g16
 Initial command:
 /cluster/software/gaussian/gaussian-16-A.03/avx2/g16/l1.exe "/local/scratch/cz9n3/Gau-1863.inp" -scrdir="/local/scratch/cz9n3/"
 Entering Link 1 = /cluster/software/gaussian/gaussian-16-A.03/avx2/g16/l1.exe PID=      1864.
  
 Copyright (c) 1988,1990,1992,1993,1995,1998,2003,2009,2016,
            Gaussian, Inc.  All Rights Reserved.
  
 This is part of the Gaussian(R) 16 program.  It is based on
 the Gaussian(R) 09 system (copyright 2009, Gaussian, Inc.),
 the Gaussian(R) 03 system (copyright 2003, Gaussian, Inc.),
 the Gaussian(R) 98 system (copyright 1998, Gaussian, Inc.),
 the Gaussian(R) 94 system (copyright 1995, Gaussian, Inc.),
 the Gaussian 92(TM) system (copyright 1992, Gaussian, Inc.),
 the Gaussian 90(TM) system (copyright 1990, Gaussian, Inc.),
 the Gaussian 88(TM) system (copyright 1988, Gaussian, Inc.),
 the Gaussian 86(TM) system (copyright 1986, Carnegie Mellon
 University), and the Gaussian 82(TM) system (copyright 1983,
 Carnegie Mellon University). Gaussian is a federally registered
 trademark of Gaussian, Inc.
  
 This software contains proprietary and confidential information,
 including trade secrets, belonging to Gaussian, Inc.
  
 This software is provided under written license and may be
 used, copied, transmitted, or stored only in accord with that
 written license.
  
 The following legend is applicable only to US Government
 contracts under FAR:
  
                    RESTRICTED RIGHTS LEGEND
  
 Use, reproduction and disclosure by the US Government is
 subject to restrictions as set forth in subparagraphs (a)
 and (c) of the Commercial Computer Software - Restricted
 Rights clause in FAR 52.227-19.
  
 Gaussian, Inc.
 340 Quinnipiac St., Bldg. 40, Wallingford CT 06492
  
  
 ---------------------------------------------------------------
 Warning -- This program may not be used in any manner that
 competes with the business of Gaussian, Inc. or will provide
 assistance to any competitor of Gaussian, Inc.  The licensee
 of this program is prohibited from giving any competitor of
 Gaussian, Inc. access to this program.  By using this program,
 the user acknowledges that Gaussian, Inc. is engaged in the
 business of creating and licensing software in the field of
 computational chemistry and represents and warrants to the
 licensee that it is not a competitor of Gaussian, Inc. and that
 it will not use this program in any manner prohibited above.
 ---------------------------------------------------------------
  

 Cite this work as:
 Gaussian 16, Revision A.03,
 M. J. Frisch, G. W. Trucks, H. B. Schlegel, G. E. Scuseria, 
 M. A. Robb, J. R. Cheeseman, G. Scalmani, V. Barone, 
 G. A. Petersson, H. Nakatsuji, X. Li, M. Caricato, A. V. Marenich, 
 J. Bloino, B. G. Janesko, R. Gomperts, B. Mennucci, H. P. Hratchian, 
 J. V. Ortiz, A. F. Izmaylov, J. L. Sonnenberg, D. Williams-Young, 
 F. Ding, F. Lipparini, F. Egidi, J. Goings, B. Peng, A. Petrone, 
 T. Henderson, D. Ranasinghe, V. G. Zakrzewski, J. Gao, N. Rega, 
 G. Zheng, W. Liang, M. Hada, M. Ehara, K. Toyota, R. Fukuda, 
 J. Hasegawa, M. Ishida, T. Nakajima, Y. Honda, O. Kitao, H. Nakai, 
 T. Vreven, K. Throssell, J. A. Montgomery, Jr., J. E. Peralta, 
 F. Ogliaro, M. J. Bearpark, J. J. Heyd, E. N. Brothers, K. N. Kudin, 
 V. N. Staroverov, T. A. Keith, R. Kobayashi, J. Normand, 
 K. Raghavachari, A. P. Rendell, J. C. Burant, S. S. Iyengar, 
 J. Tomasi, M. Cossi, J. M. Millam, M. Klene, C. Adamo, R. Cammi, 
 J. W. Ochterski, R. L. Martin, K. Morokuma, O. Farkas, 
 J. B. Foresman, and D. J. Fox, Gaussian, Inc., Wallingford CT, 2016.
 
 ******************************************
 Gaussian 16:  ES64L-G16RevA.03 25-Dec-2016
                17-May-2023 
 ******************************************
 %chk=NC1dCdc2cnncc2dCCdCC2dCqCdCCdC1rCdC2O.chk
 %NProcShared=20
 Will use up to   20 processors via shared memory.
 -----------------------------
 # opt freq b3lyp/6-31g(2df,p)
 -----------------------------
 1/18=20,19=15,26=3,38=1/1,3;
 2/9=110,12=2,17=6,18=5,40=1/2;
 3/5=1,6=6,7=104,11=2,25=1,30=1,71=1,74=-5/1,2,3;
 4//1;
 5/5=2,38=5/2;
 6/7=2,8=2,9=2,10=2,28=1/1;
 7//1,2,3,16;
 1/18=20,19=15,26=3/3(2);
 2/9=110/2;
 99//99;
 2/9=110/2;
 3/5=1,6=6,7=104,11=2,25=1,30=1,71=1,74=-5/1,2,3;
 4/5=5,16=3,69=1/1;
 5/5=2,38=5/2;
 7//1,2,3,16;
 1/18=20,19=15,26=3/3(-5);
 2/9=110/2;
 6/7=2,8=2,9=2,10=2,19=2,28=1/1;
 99/9=1/99;
 -------------------
 Title Card Required
 -------------------
 Symbolic Z-matrix:
 Charge =  0 Multiplicity = 1
 N                     1.41029  -0.02754  -0.05933 
 C                     2.5894   -0.62893   0.58605 
 C                     3.44402  -0.98891  -0.41504 
 C                     3.86137  -1.83923  -1.35863 
 C                     4.71248  -1.55401  -2.55288 
 N                     5.13342  -2.43947  -3.41437 
 N                     4.91581  -3.81868  -3.18337 
 C                     4.25859  -4.18636  -2.13114 
 C                     3.51719  -3.27838  -1.23725 
 C                     2.45116  -3.8582   -0.61136 
 C                     1.33506  -2.98705  -0.22186 
 C                     0.34483  -2.84904   0.64387 
 C                    -0.22713  -1.62025   1.80981 
 C                    -0.77167  -1.97311   2.99509 
 C                    -0.51792  -3.21399   3.72097 
 C                     0.57756  -3.77322   3.1738 
 C                     1.92943  -2.83048   2.77761 
 C                     2.57531  -1.78211   1.95005 
 C                    -0.647    -0.69852   3.58478 
 C                     0.10628  -0.27635   2.485 
 O                     0.70867   0.81166   2.31851 
 H                     0.8321   -0.70666  -0.58356 
 H                     0.64129   0.42269   0.44468 
 H                     5.04487  -0.51674  -2.7209 
 H                     4.13861  -5.26343  -1.92807 
 H                     2.46336  -4.90541  -0.3298 
 H                     1.85867  -2.12904  -0.2305 
 H                     0.33142  -3.85373   1.01711 
 H                    -1.23156  -3.68248   4.40231 
 H                     0.27099  -4.67463   2.58663 
 H                     2.4609   -3.8066    2.80602 
 H                     3.06206  -1.04011   2.6107 
 H                    -0.91952  -0.32061   4.55187 
 H                     1.50303   0.76798   1.73191 
 

 GradGradGradGradGradGradGradGradGradGradGradGradGradGradGradGradGradGrad
 Berny optimization.
 Initialization pass.
                           ----------------------------
                           !    Initial Parameters    !
                           ! (Angstroms and Degrees)  !
 --------------------------                            --------------------------
 ! Name  Definition              Value          Derivative Info.                !
 --------------------------------------------------------------------------------
 ! R1    R(1,2)                  1.4726         estimate D2E/DX2                !
 ! R2    R(1,22)                 1.0346         estimate D2E/DX2                !
 ! R3    R(1,23)                 1.0238         estimate D2E/DX2                !
 ! R4    R(2,3)                  1.3646         estimate D2E/DX2                !
 ! R5    R(2,18)                 1.7862         estimate D2E/DX2                !
 ! R6    R(3,4)                  1.337          estimate D2E/DX2                !
 ! R7    R(4,5)                  1.494          estimate D2E/DX2                !
 ! R8    R(4,9)                  1.4847         estimate D2E/DX2                !
 ! R9    R(5,6)                  1.3051         estimate D2E/DX2                !
 ! R10   R(5,24)                 1.1021         estimate D2E/DX2                !
 ! R11   R(6,7)                  1.4153         estimate D2E/DX2                !
 ! R12   R(7,8)                  1.294          estimate D2E/DX2                !
 ! R13   R(8,9)                  1.4742         estimate D2E/DX2                !
 ! R14   R(8,25)                 1.1026         estimate D2E/DX2                !
 ! R15   R(9,10)                 1.3654         estimate D2E/DX2                !
 ! R16   R(10,11)                1.4684         estimate D2E/DX2                !
 ! R17   R(10,26)                1.0845         estimate D2E/DX2                !
 ! R18   R(11,12)                1.3225         estimate D2E/DX2                !
 ! R19   R(11,27)                1.0052         estimate D2E/DX2                !
 ! R20   R(12,13)                1.7879         estimate D2E/DX2                !
 ! R21   R(12,28)                1.0719         estimate D2E/DX2                !
 ! R22   R(13,14)                1.3513         estimate D2E/DX2                !
 ! R23   R(13,20)                1.5405         estimate D2E/DX2                !
 ! R24   R(14,15)                1.4598         estimate D2E/DX2                !
 ! R25   R(14,19)                1.4099         estimate D2E/DX2                !
 ! R26   R(15,16)                1.3462         estimate D2E/DX2                !
 ! R27   R(15,29)                1.0922         estimate D2E/DX2                !
 ! R28   R(16,17)                1.6951         estimate D2E/DX2                !
 ! R29   R(16,30)                1.1186         estimate D2E/DX2                !
 ! R30   R(17,18)                1.4836         estimate D2E/DX2                !
 ! R31   R(17,31)                1.1118         estimate D2E/DX2                !
 ! R32   R(18,32)                1.1063         estimate D2E/DX2                !
 ! R33   R(19,20)                1.3983         estimate D2E/DX2                !
 ! R34   R(19,33)                1.0735         estimate D2E/DX2                !
 ! R35   R(20,21)                1.2547         estimate D2E/DX2                !
 ! R36   R(21,34)                0.9884         estimate D2E/DX2                !
 ! A1    A(2,1,22)             113.6714         estimate D2E/DX2                !
 ! A2    A(2,1,23)             124.4227         estimate D2E/DX2                !
 ! A3    A(22,1,23)             96.7968         estimate D2E/DX2                !
 ! A4    A(1,2,3)              106.7193         estimate D2E/DX2                !
 ! A5    A(1,2,18)             126.3003         estimate D2E/DX2                !
 ! A6    A(3,2,18)             113.256          estimate D2E/DX2                !
 ! A7    A(2,3,4)              151.7647         estimate D2E/DX2                !
 ! A8    A(3,4,5)              128.3578         estimate D2E/DX2                !
 ! A9    A(3,4,9)              119.1052         estimate D2E/DX2                !
 ! A10   A(5,4,9)              112.4869         estimate D2E/DX2                !
 ! A11   A(4,5,6)              125.5818         estimate D2E/DX2                !
 ! A12   A(4,5,24)             118.253          estimate D2E/DX2                !
 ! A13   A(6,5,24)             116.1437         estimate D2E/DX2                !
 ! A14   A(5,6,7)              120.2539         estimate D2E/DX2                !
 ! A15   A(6,7,8)              119.1924         estimate D2E/DX2                !
 ! A16   A(7,8,9)              124.9964         estimate D2E/DX2                !
 ! A17   A(7,8,25)             118.8562         estimate D2E/DX2                !
 ! A18   A(9,8,25)             115.8023         estimate D2E/DX2                !
 ! A19   A(4,9,8)              115.5229         estimate D2E/DX2                !
 ! A20   A(4,9,10)             129.0562         estimate D2E/DX2                !
 ! A21   A(8,9,10)             114.1457         estimate D2E/DX2                !
 ! A22   A(9,10,11)            117.5857         estimate D2E/DX2                !
 ! A23   A(9,10,26)            121.3515         estimate D2E/DX2                !
 ! A24   A(11,10,26)           120.8341         estimate D2E/DX2                !
 ! A25   A(10,11,12)           143.5743         estimate D2E/DX2                !
 ! A26   A(10,11,27)            96.2107         estimate D2E/DX2                !
 ! A27   A(12,11,27)           107.8528         estimate D2E/DX2                !
 ! A28   A(11,12,13)           137.5733         estimate D2E/DX2                !
 ! A29   A(11,12,28)            98.0187         estimate D2E/DX2                !
 ! A30   A(13,12,28)           114.4018         estimate D2E/DX2                !
 ! A31   A(12,13,14)           121.4313         estimate D2E/DX2                !
 ! A32   A(12,13,20)           144.7036         estimate D2E/DX2                !
 ! A33   A(14,13,20)            86.0188         estimate D2E/DX2                !
 ! A34   A(13,14,15)           126.0209         estimate D2E/DX2                !
 ! A35   A(13,14,19)            95.4609         estimate D2E/DX2                !
 ! A36   A(15,14,19)           123.0314         estimate D2E/DX2                !
 ! A37   A(14,15,16)           107.0052         estimate D2E/DX2                !
 ! A38   A(14,15,29)           124.1391         estimate D2E/DX2                !
 ! A39   A(16,15,29)           127.3772         estimate D2E/DX2                !
 ! A40   A(15,16,17)           120.8614         estimate D2E/DX2                !
 ! A41   A(15,16,30)           108.9709         estimate D2E/DX2                !
 ! A42   A(17,16,30)           122.9604         estimate D2E/DX2                !
 ! A43   A(16,17,18)           150.526          estimate D2E/DX2                !
 ! A44   A(16,17,31)            83.5102         estimate D2E/DX2                !
 ! A45   A(18,17,31)           115.2489         estimate D2E/DX2                !
 ! A46   A(2,18,17)            152.3249         estimate D2E/DX2                !
 ! A47   A(2,18,32)             91.1195         estimate D2E/DX2                !
 ! A48   A(17,18,32)           109.4131         estimate D2E/DX2                !
 ! A49   A(14,19,20)            89.5198         estimate D2E/DX2                !
 ! A50   A(14,19,33)           132.2683         estimate D2E/DX2                !
 ! A51   A(20,19,33)           137.6508         estimate D2E/DX2                !
 ! A52   A(13,20,19)            87.9795         estimate D2E/DX2                !
 ! A53   A(13,20,21)           143.3422         estimate D2E/DX2                !
 ! A54   A(19,20,21)           128.6678         estimate D2E/DX2                !
 ! A55   A(20,21,34)           115.2301         estimate D2E/DX2                !
 ! D1    D(22,1,2,3)            69.2761         estimate D2E/DX2                !
 ! D2    D(22,1,2,18)          -67.7952         estimate D2E/DX2                !
 ! D3    D(23,1,2,3)          -173.5258         estimate D2E/DX2                !
 ! D4    D(23,1,2,18)           49.4029         estimate D2E/DX2                !
 ! D5    D(1,2,3,4)            -83.2722         estimate D2E/DX2                !
 ! D6    D(18,2,3,4)            60.0404         estimate D2E/DX2                !
 ! D7    D(1,2,18,17)           24.7907         estimate D2E/DX2                !
 ! D8    D(1,2,18,32)         -114.0619         estimate D2E/DX2                !
 ! D9    D(3,2,18,17)         -109.9759         estimate D2E/DX2                !
 ! D10   D(3,2,18,32)          111.1714         estimate D2E/DX2                !
 ! D11   D(2,3,4,5)            158.9091         estimate D2E/DX2                !
 ! D12   D(2,3,4,9)            -23.8732         estimate D2E/DX2                !
 ! D13   D(3,4,5,6)            177.0864         estimate D2E/DX2                !
 ! D14   D(3,4,5,24)            -1.1545         estimate D2E/DX2                !
 ! D15   D(9,4,5,6)             -0.2827         estimate D2E/DX2                !
 ! D16   D(9,4,5,24)          -178.5236         estimate D2E/DX2                !
 ! D17   D(3,4,9,8)           -166.6258         estimate D2E/DX2                !
 ! D18   D(3,4,9,10)            27.1665         estimate D2E/DX2                !
 ! D19   D(5,4,9,8)             11.0132         estimate D2E/DX2                !
 ! D20   D(5,4,9,10)          -155.1945         estimate D2E/DX2                !
 ! D21   D(4,5,6,7)             -6.9973         estimate D2E/DX2                !
 ! D22   D(24,5,6,7)           171.2766         estimate D2E/DX2                !
 ! D23   D(5,6,7,8)              2.1784         estimate D2E/DX2                !
 ! D24   D(6,7,8,9)             10.2731         estimate D2E/DX2                !
 ! D25   D(6,7,8,25)          -176.7695         estimate D2E/DX2                !
 ! D26   D(7,8,9,4)            -17.0448         estimate D2E/DX2                !
 ! D27   D(7,8,9,10)           151.25           estimate D2E/DX2                !
 ! D28   D(25,8,9,4)           169.8056         estimate D2E/DX2                !
 ! D29   D(25,8,9,10)          -21.8996         estimate D2E/DX2                !
 ! D30   D(4,9,10,11)           13.6034         estimate D2E/DX2                !
 ! D31   D(4,9,10,26)         -160.9443         estimate D2E/DX2                !
 ! D32   D(8,9,10,11)         -152.7598         estimate D2E/DX2                !
 ! D33   D(8,9,10,26)           32.6925         estimate D2E/DX2                !
 ! D34   D(9,10,11,12)        -152.713          estimate D2E/DX2                !
 ! D35   D(9,10,11,27)         -20.8907         estimate D2E/DX2                !
 ! D36   D(26,10,11,12)         21.8644         estimate D2E/DX2                !
 ! D37   D(26,10,11,27)        153.6868         estimate D2E/DX2                !
 ! D38   D(10,11,12,13)        125.0299         estimate D2E/DX2                !
 ! D39   D(10,11,12,28)        -15.5535         estimate D2E/DX2                !
 ! D40   D(27,11,12,13)         -3.863          estimate D2E/DX2                !
 ! D41   D(27,11,12,28)       -144.4464         estimate D2E/DX2                !
 ! D42   D(11,12,13,14)       -143.6685         estimate D2E/DX2                !
 ! D43   D(11,12,13,20)         -7.411          estimate D2E/DX2                !
 ! D44   D(28,12,13,14)         -7.3321         estimate D2E/DX2                !
 ! D45   D(28,12,13,20)        128.9255         estimate D2E/DX2                !
 ! D46   D(12,13,14,15)         25.6293         estimate D2E/DX2                !
 ! D47   D(12,13,14,19)        163.9211         estimate D2E/DX2                !
 ! D48   D(20,13,14,15)       -130.763          estimate D2E/DX2                !
 ! D49   D(20,13,14,19)          7.5287         estimate D2E/DX2                !
 ! D50   D(12,13,20,19)       -151.3061         estimate D2E/DX2                !
 ! D51   D(12,13,20,21)         29.9514         estimate D2E/DX2                !
 ! D52   D(14,13,20,19)         -7.5618         estimate D2E/DX2                !
 ! D53   D(14,13,20,21)        173.6957         estimate D2E/DX2                !
 ! D54   D(13,14,15,16)         14.7428         estimate D2E/DX2                !
 ! D55   D(13,14,15,29)       -152.2521         estimate D2E/DX2                !
 ! D56   D(19,14,15,16)       -113.0711         estimate D2E/DX2                !
 ! D57   D(19,14,15,29)         79.934          estimate D2E/DX2                !
 ! D58   D(13,14,19,20)         -8.2797         estimate D2E/DX2                !
 ! D59   D(13,14,19,33)        179.3562         estimate D2E/DX2                !
 ! D60   D(15,14,19,20)        131.7887         estimate D2E/DX2                !
 ! D61   D(15,14,19,33)        -40.5753         estimate D2E/DX2                !
 ! D62   D(14,15,16,17)         42.9989         estimate D2E/DX2                !
 ! D63   D(14,15,16,30)       -108.1199         estimate D2E/DX2                !
 ! D64   D(29,15,16,17)       -150.5568         estimate D2E/DX2                !
 ! D65   D(29,15,16,30)         58.3245         estimate D2E/DX2                !
 ! D66   D(15,16,17,18)        -67.8665         estimate D2E/DX2                !
 ! D67   D(15,16,17,31)        159.9706         estimate D2E/DX2                !
 ! D68   D(30,16,17,18)         79.1511         estimate D2E/DX2                !
 ! D69   D(30,16,17,31)        -53.0118         estimate D2E/DX2                !
 ! D70   D(16,17,18,2)          -6.3037         estimate D2E/DX2                !
 ! D71   D(16,17,18,32)        129.4672         estimate D2E/DX2                !
 ! D72   D(31,17,18,2)         119.1798         estimate D2E/DX2                !
 ! D73   D(31,17,18,32)       -105.0493         estimate D2E/DX2                !
 ! D74   D(14,19,20,13)          7.2282         estimate D2E/DX2                !
 ! D75   D(14,19,20,21)       -173.7333         estimate D2E/DX2                !
 ! D76   D(33,19,20,13)        178.835          estimate D2E/DX2                !
 ! D77   D(33,19,20,21)         -2.1266         estimate D2E/DX2                !
 ! D78   D(13,20,21,34)        -30.2216         estimate D2E/DX2                !
 ! D79   D(19,20,21,34)        151.388          estimate D2E/DX2                !
 --------------------------------------------------------------------------------
 Trust Radius=3.00D-01 FncErr=1.00D-07 GrdErr=1.00D-06 EigMax=2.50D+02 EigMin=1.00D-04
 Number of steps in this run=    180 maximum allowed number of steps=    204.
 GradGradGradGradGradGradGradGradGradGradGradGradGradGradGradGradGradGrad

                          Input orientation:                          
 ---------------------------------------------------------------------
 Center     Atomic      Atomic             Coordinates (Angstroms)
 Number     Number       Type             X           Y           Z
 ---------------------------------------------------------------------
      1          7           0        1.410290   -0.027540   -0.059330
      2          6           0        2.589400   -0.628930    0.586050
      3          6           0        3.444020   -0.988910   -0.415040
      4          6           0        3.861370   -1.839230   -1.358630
      5          6           0        4.712480   -1.554010   -2.552880
      6          7           0        5.133420   -2.439470   -3.414370
      7          7           0        4.915810   -3.818680   -3.183370
      8          6           0        4.258590   -4.186360   -2.131140
      9          6           0        3.517190   -3.278380   -1.237250
     10          6           0        2.451160   -3.858200   -0.611360
     11          6           0        1.335060   -2.987050   -0.221860
     12          6           0        0.344830   -2.849040    0.643870
     13          6           0       -0.227130   -1.620250    1.809810
     14          6           0       -0.771670   -1.973110    2.995090
     15          6           0       -0.517920   -3.213990    3.720970
     16          6           0        0.577560   -3.773220    3.173800
     17          6           0        1.929430   -2.830480    2.777610
     18          6           0        2.575310   -1.782110    1.950050
     19          6           0       -0.647000   -0.698520    3.584780
     20          6           0        0.106280   -0.276350    2.485000
     21          8           0        0.708670    0.811660    2.318510
     22          1           0        0.832100   -0.706660   -0.583560
     23          1           0        0.641290    0.422690    0.444680
     24          1           0        5.044870   -0.516740   -2.720900
     25          1           0        4.138610   -5.263430   -1.928070
     26          1           0        2.463360   -4.905410   -0.329800
     27          1           0        1.858670   -2.129040   -0.230500
     28          1           0        0.331420   -3.853730    1.017110
     29          1           0       -1.231560   -3.682480    4.402310
     30          1           0        0.270990   -4.674630    2.586630
     31          1           0        2.460900   -3.806600    2.806020
     32          1           0        3.062060   -1.040110    2.610700
     33          1           0       -0.919520   -0.320610    4.551870
     34          1           0        1.503030    0.767980    1.731910
 ---------------------------------------------------------------------
                    Distance matrix (angstroms):
                    1          2          3          4          5
     1  N    0.000000
     2  C    1.472578   0.000000
     3  C    2.277459   1.364603   0.000000
     4  C    3.313336   2.620022   1.337007   0.000000
     5  C    4.410483   3.900785   2.549253   1.493978   0.000000
     6  N    5.561960   5.074786   3.735529   2.490877   1.305142
     7  N    6.034985   5.458499   4.223436   2.891322   2.359574
     8  C    5.449862   4.777512   3.719168   2.502713   2.704283
     9  C    4.049010   3.347358   2.433733   1.484704   2.476500
    10  C    4.007755   3.446895   3.042554   2.573586   3.767275
    11  C    2.964924   2.790487   2.911631   2.998663   4.346749
    12  C    3.096863   3.157582   3.766477   4.170824   5.565310
    13  C    2.951534   3.226941   4.338881   5.177142   6.590690
    14  C    4.227963   4.348228   5.510869   6.359077   7.812267
    15  C    5.306800   5.115242   6.144471   6.846202   8.335095
    16  C    5.017638   4.542082   5.371103   5.921710   7.403872
    17  C    4.021717   3.175739   3.984768   4.671558   6.147265
    18  C    2.910910   1.786202   2.641491   3.550292   4.989580
    19  C    4.238183   4.412653   5.728816   6.787041   8.193092
    20  C    2.869837   3.145824   4.478670   5.596140   6.944763
    21  O    2.617375   2.934938   4.265734   5.521602   6.734785
    22  H    1.034565   2.112376   2.632525   3.325647   4.433235
    23  H    1.023765   2.218338   3.253771   4.328640   5.428379
    24  H    4.531384   4.120417   2.846516   2.237282   1.102108
    25  H    6.192775   5.495402   4.587291   3.482279   3.805195
    26  H    4.997572   4.375266   4.038308   3.523405   4.607875
    27  H    2.155608   1.857700   1.961450   2.316781   3.724022
    28  H    4.118545   3.960255   4.466153   4.707749   6.101412
    29  H    6.343831   6.203849   7.233480   7.907208   9.393437
    30  H    5.467591   5.073956   5.715127   6.041142   7.475270
    31  H    4.857500   3.878449   4.391028   4.814164   6.233906
    32  H    3.298894   2.119359   3.050183   4.127114   5.445231
    33  H    5.174657   5.304273   6.645096   7.752234   9.149764
    34  H    1.962140   2.108211   3.385779   4.680892   5.835378
                    6          7          8          9         10
     6  N    0.000000
     7  N    1.415251   0.000000
     8  C    2.337441   1.293953   0.000000
     9  C    2.838278   2.456714   1.474158   0.000000
    10  C    4.130881   3.562485   2.384161   1.365412   0.000000
    11  C    4.991944   4.720585   3.691981   2.424372   1.468432
    12  C    6.290282   6.040019   4.980625   3.713060   2.651534
    13  C    7.529852   7.497651   6.499053   5.104302   4.247790
    14  C    8.727471   8.598077   7.515333   6.165286   5.191019
    15  C    9.135130   8.806871   7.616281   6.392981   5.291458
    16  C    8.120267   7.696499   6.470167   5.323876   4.224338
    17  C    6.982769   6.740051   5.599931   4.340587   3.579599
    18  C    5.979385   5.998130   5.026924   3.644838   3.299452
    19  C    9.242957   9.299898   8.300698   6.873727   6.098341
    20  C    8.046974   8.234689   7.337479   5.873809   5.283517
    21  O    7.938147   8.331312   7.575059   6.104068   5.781695
    22  H    5.432998   5.755030   5.122904   3.775018   3.543209
    23  H    6.577496   7.030184   6.400238   4.979720   4.766222
    24  H    2.045882   3.336666   3.798969   3.487360   4.726822
    25  H    3.342676   2.065701   1.102593   2.191762   2.560446
    26  H    4.767038   3.916421   2.642860   2.140385   1.084469
    27  H    4.577923   4.573886   3.688443   2.255042   1.867108
    28  H    6.685608   6.217869   5.044282   3.944908   2.673057
    29  H   10.156699   9.764796   8.548778   7.383668   6.223358
    30  H    8.040595   7.456534   6.196508   5.206668   3.955609
    31  H    6.906856   6.472984   5.267965   4.212220   3.417783
    32  H    6.523052   6.687906   5.815120   4.474787   4.323945
    33  H   10.226858  10.301529   9.296207   7.870623   7.108795
    34  H    7.067649   7.539529   6.860157   5.407937   5.271756
                   11         12         13         14         15
    11  C    0.000000
    12  C    1.322532   0.000000
    13  C    2.904525   1.787870   0.000000
    14  C    3.976827   2.746281   1.351267   0.000000
    15  C    4.362447   3.216531   2.505414   1.459820   0.000000
    16  C    3.566844   2.703483   2.672691   2.256713   1.346183
    17  C    3.061799   2.657847   2.655569   2.842239   2.650760
    18  C    2.776201   2.796335   2.810611   3.511533   3.841160
    19  C    4.863789   3.775899   2.043623   1.409914   2.522459
    20  C    4.023044   3.172601   1.540490   1.977368   3.247611
    21  O    4.612596   4.041970   2.654936   3.225540   4.435907
    22  H    2.363043   2.516706   2.772153   4.121008   5.161224
    23  H    3.542869   3.291167   2.606019   3.773712   5.030237
    24  H    5.109826   6.233111   7.038398   8.284063   8.928465
    25  H    3.994115   5.180436   6.804718   7.692500   7.602311
    26  H    2.228187   3.108836   4.754886   5.488050   5.306380
    27  H    1.005198   1.890670   2.961806   4.165025   4.737026
    28  H    1.814793   1.071863   2.434910   2.943798   2.905427
    29  H    5.334239   4.159988   3.461608   2.261352   1.092240
    30  H    3.444966   2.666936   3.190738   2.924413   2.010616
    31  H    3.332752   3.173258   3.605283   3.721148   3.172017
    32  H    3.846622   3.811035   3.434641   3.964307   4.332979
    33  H    5.914519   4.823277   3.112453   2.275122   3.036993
    34  H    4.236234   3.950708   2.950113   3.779346   4.888423
                   16         17         18         19         20
    16  C    0.000000
    17  C    1.695075   0.000000
    18  C    3.074587   1.483609   0.000000
    19  C    3.335001   3.440170   3.772240   0.000000
    20  C    3.595087   3.151678   2.941019   1.398275   0.000000
    21  O    4.665816   3.868619   3.216792   2.392054   1.254734
    22  H    4.856576   4.124586   3.257998   4.422992   3.182458
    23  H    5.005778   4.205352   3.296622   3.574497   2.222116
    24  H    8.081399   6.730005   5.433016   8.496589   7.179753
    25  H    6.397725   5.739612   5.440892   8.609993   7.784975
    26  H    4.136824   3.774442   3.868495   6.534233   5.908225
    27  H    3.991720   3.089620   2.321364   4.783423   3.725221
    28  H    2.172183   2.588443   3.193279   4.183968   3.873375
    29  H    2.188695   3.654779   4.910931   3.148664   4.131297
    30  H    1.118612   2.487526   3.752572   4.201007   4.402536
    31  H    1.919204   1.111790   2.200985   4.463818   4.255579
    32  H    3.736270   2.125120   1.106322   3.850018   3.055448
    33  H    4.007598   4.190938   4.595572   1.073474   2.307851
    34  H    4.853662   3.771501   2.774947   3.194742   1.899653
                   21         22         23         24         25
    21  O    0.000000
    22  H    3.277582   0.000000
    23  H    1.914961   1.539194   0.000000
    24  H    6.779597   4.727761   5.504084   0.000000
    25  H    8.167291   5.788339   7.084712   4.897035   0.000000
    26  H    6.540441   4.511641   5.684049   5.625120   2.342885
    27  H    4.058038   1.789319   2.906752   4.353559   4.231344
    28  H    4.858171   3.566073   4.325675   6.879305   5.015579
    29  H    5.320151   6.162231   6.001902  10.007777   8.450553
    30  H    5.510248   5.109769   5.541457   8.261226   5.973917
    31  H    4.963497   4.873589   5.174341   6.931589   5.229596
    32  H    3.008799   3.909886   3.562521   5.712391   6.292521
    33  H    2.986793   5.439655   4.456190   9.407741   9.591964
    34  H    0.988441   2.825971   1.587067   5.832894   7.531244
                   26         27         28         29         30
    26  H    0.000000
    27  H    2.843192   0.000000
    28  H    2.732282   2.619843   0.000000
    29  H    6.127059   5.781490   3.732534   0.000000
    30  H    3.655860   4.115456   1.772265   2.557091   0.000000
    31  H    3.322763   3.520986   2.781565   4.024650   2.365864
    32  H    4.893417   3.272053   4.232302   5.350435   4.582618
    33  H    7.502997   5.818919   5.151924   3.379631   4.923106
    34  H    6.112302   3.517138   4.821184   5.866482   5.645394
                   31         32         33         34
    31  H    0.000000
    32  H    2.837783   0.000000
    33  H    5.160170   4.487627   0.000000
    34  H    4.795624   2.544020   3.873752   0.000000
 Stoichiometry    C17H13N3O
 Framework group  C1[X(C17H13N3O)]
 Deg. of freedom    96
 Full point group                 C1      NOp   1
 Largest Abelian subgroup         C1      NOp   1
 Largest concise Abelian subgroup C1      NOp   1
                         Standard orientation:                         
 ---------------------------------------------------------------------
 Center     Atomic      Atomic             Coordinates (Angstroms)
 Number     Number       Type             X           Y           Z
 ---------------------------------------------------------------------
      1          7           0       -0.274888    2.027471   -0.794524
      2          6           0        0.089477    1.472578    0.519940
      3          6           0        1.449413    1.360908    0.535626
      4          6           0        2.581271    0.710241    0.247327
      5          6           0        3.966168    1.260723    0.142440
      6          7           0        5.044720    0.563849   -0.090982
      7          7           0        4.987282   -0.849882   -0.122631
      8          6           0        3.846765   -1.438985    0.040133
      9          6           0        2.538121   -0.760359    0.047776
     10          6           0        1.501774   -1.540741   -0.378065
     11          6           0        0.345444   -0.865822   -0.981121
     12          6           0       -0.956611   -0.967498   -1.189463
     13          6           0       -2.423342    0.005289   -0.875033
     14          6           0       -3.596276   -0.576280   -0.540481
     15          6           0       -3.756760   -1.874400    0.107750
     16          6           0       -2.551685   -2.221857    0.596912
     17          6           0       -1.576002   -1.086763    1.392451
     18          6           0       -0.737677    0.137087    1.370117
     19          6           0       -4.198090    0.603658   -0.057343
     20          6           0       -2.971286    1.263984   -0.176067
     21          8           0       -2.667080    2.424789    0.190468
     22          1           0       -0.117272    1.372772   -1.579923
     23          1           0       -1.222036    2.310428   -1.060871
     24          1           0        4.111129    2.341871    0.299756
     25          1           0        3.816185   -2.540793    0.068345
     26          1           0        1.489492   -2.610046   -0.197759
     27          1           0        0.523199    0.036963   -0.576393
     28          1           0       -1.062091   -2.011333   -0.969985
     29          1           0       -4.633958   -2.514340   -0.010526
     30          1           0       -2.134831   -3.055596   -0.021478
     31          1           0       -1.083648   -1.991266    1.811424
     32          1           0       -1.067429    0.823372    2.172752
     33          1           0       -5.169685    0.802650    0.353450
     34          1           0       -1.716430    2.556378    0.427036
 ---------------------------------------------------------------------
 Rotational constants (GHZ):           0.7827016           0.2059093           0.1772526
 Standard basis: 6-31G(2df,p) (6D, 7F)
 There are   716 symmetry adapted cartesian basis functions of A   symmetry.
 There are   653 symmetry adapted basis functions of A   symmetry.
   653 basis functions,  1015 primitive gaussians,   716 cartesian basis functions
    72 alpha electrons       72 beta electrons
       nuclear repulsion energy      1562.1496510994 Hartrees.
 NAtoms=   34 NActive=   34 NUniq=   34 SFac= 1.00D+00 NAtFMM=   60 NAOKFM=F Big=F
 Integral buffers will be    131072 words long.
 Raffenetti 2 integral format.
 Two-electron integral symmetry is turned on.
 One-electron integrals computed using PRISM.
 PrsmSu:  requested number of processors reduced to:  12 ShMem   1 Linda.
 NBasis=   653 RedAO= T EigKep=  1.38D-04  NBF=   653
 NBsUse=   653 1.00D-06 EigRej= -1.00D+00 NBFU=   653
 ExpMin= 1.61D-01 ExpMax= 5.48D+03 ExpMxC= 8.25D+02 IAcc=3 IRadAn=         5 AccDes= 0.00D+00
 Harris functional with IExCor=  402 and IRadAn=       5 diagonalized for initial guess.
 HarFok:  IExCor=  402 AccDes= 0.00D+00 IRadAn=         5 IDoV= 1 UseB2=F ITyADJ=14
 ICtDFT=  3500011 ScaDFX=  1.000000  1.000000  1.000000  1.000000
 FoFCou: FMM=F IPFlag=           0 FMFlag=      100000 FMFlg1=           0
         NFxFlg=           0 DoJE=T BraDBF=F KetDBF=T FulRan=T
         wScrn=  0.000000 ICntrl=       500 IOpCl=  0 I1Cent=   200000004 NGrid=           0
         NMat0=    1 NMatS0=      1 NMatT0=    0 NMatD0=    1 NMtDS0=    0 NMtDT0=    0
 Petite list used in FoFCou.
 Requested convergence on RMS density matrix=1.00D-08 within 128 cycles.
 Requested convergence on MAX density matrix=1.00D-06.
 Requested convergence on             energy=1.00D-06.
 No special actions if energy rises.
 Integral accuracy reduced to 1.0D-05 until final iterations.
 Initial convergence to 1.0D-05 achieved.  Increase integral accuracy.
 SCF Done:  E(RB3LYP) =  -894.280671951     A.U. after   23 cycles
            NFock= 23  Conv=0.66D-08     -V/T= 2.0078

 **********************************************************************

            Population analysis using the SCF density.

 **********************************************************************

 Orbital symmetries:
       Occupied  (A) (A) (A) (A) (A) (A) (A) (A) (A) (A) (A) (A)
                 (A) (A) (A) (A) (A) (A) (A) (A) (A) (A) (A) (A)
                 (A) (A) (A) (A) (A) (A) (A) (A) (A) (A) (A) (A)
                 (A) (A) (A) (A) (A) (A) (A) (A) (A) (A) (A) (A)
                 (A) (A) (A) (A) (A) (A) (A) (A) (A) (A) (A) (A)
                 (A) (A) (A) (A) (A) (A) (A) (A) (A) (A) (A) (A)
       Virtual   (A) (A) (A) (A) (A) (A) (A) (A) (A) (A) (A) (A)
                 (A) (A) (A) (A) (A) (A) (A) (A) (A) (A) (A) (A)
                 (A) (A) (A) (A) (A) (A) (A) (A) (A) (A) (A) (A)
                 (A) (A) (A) (A) (A) (A) (A) (A) (A) (A) (A) (A)
                 (A) (A) (A) (A) (A) (A) (A) (A) (A) (A) (A) (A)
                 (A) (A) (A) (A) (A) (A) (A) (A) (A) (A) (A) (A)
                 (A) (A) (A) (A) (A) (A) (A) (A) (A) (A) (A) (A)
                 (A) (A) (A) (A) (A) (A) (A) (A) (A) (A) (A) (A)
                 (A) (A) (A) (A) (A) (A) (A) (A) (A) (A) (A) (A)
                 (A) (A) (A) (A) (A) (A) (A) (A) (A) (A) (A) (A)
                 (A) (A) (A) (A) (A) (A) (A) (A) (A) (A) (A) (A)
                 (A) (A) (A) (A) (A) (A) (A) (A) (A) (A) (A) (A)
                 (A) (A) (A) (A) (A) (A) (A) (A) (A) (A) (A) (A)
                 (A) (A) (A) (A) (A) (A) (A) (A) (A) (A) (A) (A)
                 (A) (A) (A) (A) (A) (A) (A) (A) (A) (A) (A) (A)
                 (A) (A) (A) (A) (A) (A) (A) (A) (A) (A) (A) (A)
                 (A) (A) (A) (A) (A) (A) (A) (A) (A) (A) (A) (A)
                 (A) (A) (A) (A) (A) (A) (A) (A) (A) (A) (A) (A)
                 (A) (A) (A) (A) (A) (A) (A) (A) (A) (A) (A) (A)
                 (A) (A) (A) (A) (A) (A) (A) (A) (A) (A) (A) (A)
                 (A) (A) (A) (A) (A) (A) (A) (A) (A) (A) (A) (A)
                 (A) (A) (A) (A) (A) (A) (A) (A) (A) (A) (A) (A)
                 (A) (A) (A) (A) (A) (A) (A) (A) (A) (A) (A) (A)
                 (A) (A) (A) (A) (A) (A) (A) (A) (A) (A) (A) (A)
                 (A) (A) (A) (A) (A) (A) (A) (A) (A) (A) (A) (A)
                 (A) (A) (A) (A) (A) (A) (A) (A) (A) (A) (A) (A)
                 (A) (A) (A) (A) (A) (A) (A) (A) (A) (A) (A) (A)
                 (A) (A) (A) (A) (A) (A) (A) (A) (A) (A) (A) (A)
                 (A) (A) (A) (A) (A) (A) (A) (A) (A) (A) (A) (A)
                 (A) (A) (A) (A) (A) (A) (A) (A) (A) (A) (A) (A)
                 (A) (A) (A) (A) (A) (A) (A) (A) (A) (A) (A) (A)
                 (A) (A) (A) (A) (A) (A) (A) (A) (A) (A) (A) (A)
                 (A) (A) (A) (A) (A) (A) (A) (A) (A) (A) (A) (A)
                 (A) (A) (A) (A) (A) (A) (A) (A) (A) (A) (A) (A)
                 (A) (A) (A) (A) (A) (A) (A) (A) (A) (A) (A) (A)
                 (A) (A) (A) (A) (A) (A) (A) (A) (A) (A) (A) (A)
                 (A) (A) (A) (A) (A) (A) (A) (A) (A) (A) (A) (A)
                 (A) (A) (A) (A) (A) (A) (A) (A) (A) (A) (A) (A)
                 (A) (A) (A) (A) (A) (A) (A) (A) (A) (A) (A) (A)
                 (A) (A) (A) (A) (A) (A) (A) (A) (A) (A) (A) (A)
                 (A) (A) (A) (A) (A) (A) (A) (A) (A) (A) (A) (A)
                 (A) (A) (A) (A) (A) (A) (A) (A) (A) (A) (A) (A)
                 (A) (A) (A) (A) (A) (A) (A) (A) (A) (A) (A) (A)
                 (A) (A) (A) (A) (A) (A) (A) (A) (A) (A) (A) (A)
                 (A) (A) (A) (A) (A) (A) (A) (A) (A) (A) (A) (A)
                 (A) (A) (A) (A) (A) (A) (A) (A) (A) (A) (A) (A)
                 (A) (A) (A) (A) (A) (A) (A) (A) (A) (A) (A) (A)
                 (A) (A) (A) (A) (A) (A) (A) (A) (A) (A) (A) (A)
                 (A) (A) (A) (A) (A)
 The electronic state is 1-A.
 Alpha  occ. eigenvalues --  -19.22444 -14.35711 -14.34711 -14.34013 -10.29633
 Alpha  occ. eigenvalues --  -10.27578 -10.25692 -10.25239 -10.24744 -10.24388
 Alpha  occ. eigenvalues --  -10.24149 -10.23920 -10.23910 -10.23147 -10.22756
 Alpha  occ. eigenvalues --  -10.22574 -10.22544 -10.22431 -10.20213 -10.18460
 Alpha  occ. eigenvalues --  -10.17890  -1.14129  -0.98510  -0.92294  -0.91640
 Alpha  occ. eigenvalues --   -0.85931  -0.83706  -0.81411  -0.80072  -0.77240
 Alpha  occ. eigenvalues --   -0.74305  -0.71958  -0.69473  -0.66424  -0.65407
 Alpha  occ. eigenvalues --   -0.63110  -0.61845  -0.59382  -0.58052  -0.56186
 Alpha  occ. eigenvalues --   -0.53447  -0.51538  -0.51037  -0.50373  -0.49857
 Alpha  occ. eigenvalues --   -0.48734  -0.48296  -0.47321  -0.45830  -0.45298
 Alpha  occ. eigenvalues --   -0.43932  -0.43534  -0.42841  -0.42060  -0.40678
 Alpha  occ. eigenvalues --   -0.39625  -0.39249  -0.36792  -0.36179  -0.34801
 Alpha  occ. eigenvalues --   -0.33841  -0.33002  -0.30805  -0.29917  -0.29042
 Alpha  occ. eigenvalues --   -0.26947  -0.26219  -0.24085  -0.23262  -0.21932
 Alpha  occ. eigenvalues --   -0.20887  -0.17146
 Alpha virt. eigenvalues --   -0.13053  -0.10919  -0.08788  -0.08191  -0.03375
 Alpha virt. eigenvalues --   -0.01980   0.00418   0.01851   0.05373   0.06417
 Alpha virt. eigenvalues --    0.07692   0.08195   0.09523   0.10289   0.11222
 Alpha virt. eigenvalues --    0.11613   0.12256   0.13460   0.14123   0.14271
 Alpha virt. eigenvalues --    0.14832   0.15368   0.15807   0.16499   0.18040
 Alpha virt. eigenvalues --    0.18913   0.21098   0.21279   0.22687   0.25381
 Alpha virt. eigenvalues --    0.25935   0.26282   0.27800   0.28826   0.31461
 Alpha virt. eigenvalues --    0.33051   0.33250   0.34555   0.35527   0.36038
 Alpha virt. eigenvalues --    0.36827   0.37949   0.38120   0.39141   0.39990
 Alpha virt. eigenvalues --    0.41723   0.42270   0.43200   0.44895   0.45082
 Alpha virt. eigenvalues --    0.45770   0.46578   0.46966   0.47471   0.47801
 Alpha virt. eigenvalues --    0.48292   0.48829   0.49722   0.50235   0.50572
 Alpha virt. eigenvalues --    0.51379   0.52001   0.52729   0.52939   0.54090
 Alpha virt. eigenvalues --    0.54757   0.55296   0.55816   0.56646   0.57012
 Alpha virt. eigenvalues --    0.57592   0.57777   0.58071   0.58444   0.59196
 Alpha virt. eigenvalues --    0.59595   0.60459   0.61738   0.62390   0.62820
 Alpha virt. eigenvalues --    0.63726   0.64341   0.65053   0.65520   0.66616
 Alpha virt. eigenvalues --    0.66681   0.67090   0.68247   0.69047   0.69965
 Alpha virt. eigenvalues --    0.70484   0.70864   0.71875   0.72782   0.73425
 Alpha virt. eigenvalues --    0.73743   0.74348   0.74729   0.75540   0.75703
 Alpha virt. eigenvalues --    0.76151   0.76839   0.77031   0.77577   0.78131
 Alpha virt. eigenvalues --    0.78494   0.79299   0.80134   0.80768   0.80981
 Alpha virt. eigenvalues --    0.82203   0.82754   0.82895   0.83869   0.84332
 Alpha virt. eigenvalues --    0.86551   0.87406   0.87560   0.88105   0.89082
 Alpha virt. eigenvalues --    0.89965   0.90728   0.90952   0.92188   0.93137
 Alpha virt. eigenvalues --    0.93382   0.94773   0.95225   0.95563   0.96670
 Alpha virt. eigenvalues --    0.97405   0.98819   1.00036   1.01261   1.02256
 Alpha virt. eigenvalues --    1.03136   1.03726   1.04655   1.05207   1.06598
 Alpha virt. eigenvalues --    1.06789   1.08070   1.08329   1.09078   1.10290
 Alpha virt. eigenvalues --    1.11763   1.12144   1.14307   1.14998   1.16029
 Alpha virt. eigenvalues --    1.16849   1.17316   1.18176   1.19140   1.20132
 Alpha virt. eigenvalues --    1.20807   1.21948   1.22621   1.23242   1.24790
 Alpha virt. eigenvalues --    1.25933   1.26254   1.27933   1.29446   1.30346
 Alpha virt. eigenvalues --    1.31285   1.31815   1.33101   1.33560   1.34215
 Alpha virt. eigenvalues --    1.35403   1.35914   1.37163   1.39498   1.39804
 Alpha virt. eigenvalues --    1.40025   1.40909   1.42656   1.43269   1.45176
 Alpha virt. eigenvalues --    1.45985   1.46703   1.47355   1.48071   1.48921
 Alpha virt. eigenvalues --    1.49412   1.51110   1.51639   1.52990   1.53672
 Alpha virt. eigenvalues --    1.54497   1.55493   1.56595   1.57458   1.57462
 Alpha virt. eigenvalues --    1.58388   1.59894   1.60410   1.61621   1.63136
 Alpha virt. eigenvalues --    1.63968   1.64040   1.64876   1.66835   1.67993
 Alpha virt. eigenvalues --    1.68417   1.69988   1.71444   1.72615   1.74106
 Alpha virt. eigenvalues --    1.74976   1.76432   1.76791   1.78196   1.79614
 Alpha virt. eigenvalues --    1.80743   1.82632   1.83667   1.84120   1.84976
 Alpha virt. eigenvalues --    1.86626   1.87306   1.89214   1.90492   1.90852
 Alpha virt. eigenvalues --    1.92066   1.93395   1.93785   1.95674   1.98608
 Alpha virt. eigenvalues --    2.00561   2.01465   2.02016   2.03515   2.05103
 Alpha virt. eigenvalues --    2.06409   2.08410   2.09696   2.11429   2.13384
 Alpha virt. eigenvalues --    2.14472   2.16253   2.18314   2.18636   2.20960
 Alpha virt. eigenvalues --    2.23618   2.26079   2.26476   2.30095   2.30493
 Alpha virt. eigenvalues --    2.31427   2.32771   2.34983   2.35668   2.37434
 Alpha virt. eigenvalues --    2.38217   2.39695   2.40279   2.42083   2.42665
 Alpha virt. eigenvalues --    2.45184   2.46715   2.48610   2.49945   2.52272
 Alpha virt. eigenvalues --    2.52885   2.55128   2.56676   2.58672   2.59900
 Alpha virt. eigenvalues --    2.60663   2.62280   2.62889   2.64422   2.64990
 Alpha virt. eigenvalues --    2.67686   2.68546   2.71410   2.71596   2.72718
 Alpha virt. eigenvalues --    2.74345   2.76618   2.77522   2.78353   2.79364
 Alpha virt. eigenvalues --    2.80673   2.81454   2.82317   2.83388   2.84177
 Alpha virt. eigenvalues --    2.85480   2.85660   2.87003   2.87606   2.88592
 Alpha virt. eigenvalues --    2.89750   2.90363   2.90554   2.91897   2.93713
 Alpha virt. eigenvalues --    2.94638   2.95134   2.96004   2.96210   2.97412
 Alpha virt. eigenvalues --    2.98860   2.99598   2.99764   3.01631   3.02273
 Alpha virt. eigenvalues --    3.03231   3.03971   3.05258   3.06746   3.07476
 Alpha virt. eigenvalues --    3.08727   3.09638   3.10395   3.11737   3.12075
 Alpha virt. eigenvalues --    3.13231   3.13353   3.14339   3.16029   3.17398
 Alpha virt. eigenvalues --    3.17578   3.18317   3.19150   3.20662   3.21353
 Alpha virt. eigenvalues --    3.21800   3.23234   3.24050   3.25135   3.25615
 Alpha virt. eigenvalues --    3.25963   3.27361   3.27528   3.29186   3.29434
 Alpha virt. eigenvalues --    3.30303   3.30684   3.31920   3.32485   3.33361
 Alpha virt. eigenvalues --    3.34181   3.34677   3.36194   3.36540   3.37726
 Alpha virt. eigenvalues --    3.39529   3.40107   3.41502   3.41578   3.43283
 Alpha virt. eigenvalues --    3.44478   3.45056   3.46739   3.46988   3.47624
 Alpha virt. eigenvalues --    3.49076   3.49185   3.50008   3.50753   3.51414
 Alpha virt. eigenvalues --    3.52397   3.54209   3.56006   3.57536   3.58370
 Alpha virt. eigenvalues --    3.59066   3.61846   3.62449   3.64230   3.66172
 Alpha virt. eigenvalues --    3.67489   3.69503   3.70454   3.71584   3.72715
 Alpha virt. eigenvalues --    3.73043   3.74821   3.75983   3.76816   3.77542
 Alpha virt. eigenvalues --    3.78735   3.81306   3.82592   3.84230   3.85441
 Alpha virt. eigenvalues --    3.85756   3.86401   3.88248   3.88734   3.90564
 Alpha virt. eigenvalues --    3.91912   3.93508   3.94985   3.95888   3.97744
 Alpha virt. eigenvalues --    3.98342   3.99055   4.00361   4.03165   4.04572
 Alpha virt. eigenvalues --    4.05507   4.06189   4.06930   4.08423   4.09396
 Alpha virt. eigenvalues --    4.10274   4.12389   4.14579   4.15633   4.16422
 Alpha virt. eigenvalues --    4.16790   4.18269   4.18849   4.20275   4.21124
 Alpha virt. eigenvalues --    4.21815   4.23307   4.23675   4.26148   4.26577
 Alpha virt. eigenvalues --    4.28598   4.29123   4.30677   4.32207   4.33109
 Alpha virt. eigenvalues --    4.33276   4.34325   4.34623   4.36373   4.36980
 Alpha virt. eigenvalues --    4.37202   4.38144   4.38216   4.40392   4.41457
 Alpha virt. eigenvalues --    4.41682   4.43150   4.44847   4.46338   4.47661
 Alpha virt. eigenvalues --    4.48426   4.49017   4.49171   4.50182   4.51467
 Alpha virt. eigenvalues --    4.53510   4.53717   4.54102   4.54779   4.55514
 Alpha virt. eigenvalues --    4.55905   4.57085   4.57827   4.59218   4.59850
 Alpha virt. eigenvalues --    4.60911   4.61917   4.62718   4.63450   4.63957
 Alpha virt. eigenvalues --    4.64732   4.65774   4.66903   4.67621   4.68409
 Alpha virt. eigenvalues --    4.69882   4.70635   4.71778   4.72415   4.72766
 Alpha virt. eigenvalues --    4.73931   4.74446   4.74483   4.76222   4.77773
 Alpha virt. eigenvalues --    4.78417   4.79665   4.80846   4.81937   4.82626
 Alpha virt. eigenvalues --    4.83996   4.84939   4.85675   4.87067   4.87886
 Alpha virt. eigenvalues --    4.87967   4.89705   4.91178   4.92323   4.93962
 Alpha virt. eigenvalues --    4.95313   4.96908   4.98345   4.98992   5.01018
 Alpha virt. eigenvalues --    5.02488   5.03658   5.04058   5.06020   5.07693
 Alpha virt. eigenvalues --    5.08001   5.10186   5.11391   5.12414   5.14979
 Alpha virt. eigenvalues --    5.16352   5.16549   5.17520   5.19609   5.20848
 Alpha virt. eigenvalues --    5.21329   5.22596   5.24192   5.26170   5.29607
 Alpha virt. eigenvalues --    5.31294   5.33636   5.34160   5.36277   5.37526
 Alpha virt. eigenvalues --    5.39160   5.41647   5.44908   5.46759   5.49884
 Alpha virt. eigenvalues --    5.50642   5.53317   5.55802   5.56574   5.58054
 Alpha virt. eigenvalues --    5.59376   5.61983   5.64291   5.71161   5.72635
 Alpha virt. eigenvalues --    5.75923   5.78682   5.82390   5.88105   5.88652
 Alpha virt. eigenvalues --    5.92224   5.99629   6.07784   6.13121   6.19016
 Alpha virt. eigenvalues --    6.24365   6.38079   6.38402   6.55678   6.74808
 Alpha virt. eigenvalues --    6.86107   7.26054   8.79862   9.85231  10.19922
 Alpha virt. eigenvalues --   10.37770  10.60974  10.74847  10.97319  11.19981
 Alpha virt. eigenvalues --   11.26792  11.28717  11.29978  11.49239  11.52300
 Alpha virt. eigenvalues --   11.60052  11.73502  11.81845  11.92012  12.15577
 Alpha virt. eigenvalues --   12.30854  12.44026  12.67297  13.34397  13.68543
 Alpha virt. eigenvalues --   20.71288
          Condensed to atoms (all electrons):
               1          2          3          4          5          6
     1  N    6.677191   0.359884  -0.064821  -0.002180  -0.000032  -0.000000
     2  C    0.359884   5.339609   0.563820  -0.034586   0.003165  -0.000141
     3  C   -0.064821   0.563820   5.061037   0.490708  -0.052090   0.004765
     4  C   -0.002180  -0.034586   0.490708   4.714557   0.424448   0.023287
     5  C   -0.000032   0.003165  -0.052090   0.424448   4.810566   0.565783
     6  N   -0.000000  -0.000141   0.004765   0.023287   0.565783   6.386199
     7  N   -0.000000  -0.000017  -0.000318  -0.040820  -0.078556   0.378675
     8  C   -0.000005   0.000332   0.006165  -0.015343  -0.007463  -0.074588
     9  C    0.000882  -0.019128  -0.038993   0.396444  -0.011876  -0.052097
    10  C    0.000742  -0.002495  -0.032157  -0.030917   0.005001  -0.000185
    11  C   -0.008601  -0.014860  -0.025561  -0.007625   0.000523  -0.000022
    12  C   -0.000867   0.003828   0.003040   0.000600  -0.000023   0.000000
    13  C    0.002333   0.001050   0.000579  -0.000044  -0.000000   0.000000
    14  C    0.002192  -0.000385  -0.000017   0.000000   0.000000   0.000000
    15  C   -0.000049  -0.000009  -0.000000  -0.000000  -0.000000  -0.000000
    16  C    0.000169  -0.001415  -0.000038   0.000004   0.000000   0.000000
    17  C    0.001232  -0.024220  -0.003008   0.000466   0.000000   0.000000
    18  C   -0.040114   0.228944  -0.006039  -0.001984   0.000026   0.000000
    19  C    0.000756  -0.000275  -0.000041  -0.000000   0.000000  -0.000000
    20  C    0.001401   0.004326   0.000085  -0.000006  -0.000000  -0.000000
    21  O   -0.025642  -0.008210   0.000397  -0.000005  -0.000000  -0.000000
    22  H    0.321414  -0.051824  -0.002993   0.004728  -0.000011   0.000003
    23  H    0.347501  -0.045105   0.002141   0.000072   0.000005  -0.000000
    24  H   -0.000004  -0.000231  -0.005845  -0.043736   0.357519  -0.023123
    25  H    0.000000  -0.000011  -0.000074   0.003769  -0.000443   0.004915
    26  H   -0.000013  -0.000366  -0.000882   0.005291  -0.000039   0.000002
    27  H   -0.017410  -0.041569  -0.037122   0.020989  -0.000386   0.000014
    28  H    0.000211  -0.000632  -0.000255   0.000044   0.000001  -0.000000
    29  H    0.000000  -0.000001  -0.000000   0.000000  -0.000000   0.000000
    30  H   -0.000002   0.000013  -0.000001   0.000001  -0.000000  -0.000000
    31  H   -0.000055   0.001310   0.000138  -0.000041  -0.000000   0.000000
    32  H    0.002938  -0.050803  -0.000910   0.000155   0.000002  -0.000000
    33  H    0.000000  -0.000000  -0.000000  -0.000000   0.000000   0.000000
    34  H   -0.006690   0.030396   0.001259   0.000115  -0.000000   0.000000
               7          8          9         10         11         12
     1  N   -0.000000  -0.000005   0.000882   0.000742  -0.008601  -0.000867
     2  C   -0.000017   0.000332  -0.019128  -0.002495  -0.014860   0.003828
     3  C   -0.000318   0.006165  -0.038993  -0.032157  -0.025561   0.003040
     4  C   -0.040820  -0.015343   0.396444  -0.030917  -0.007625   0.000600
     5  C   -0.078556  -0.007463  -0.011876   0.005001   0.000523  -0.000023
     6  N    0.378675  -0.074588  -0.052097  -0.000185  -0.000022   0.000000
     7  N    6.375658   0.597923   0.001728   0.002280  -0.000222  -0.000000
     8  C    0.597923   4.731617   0.436970  -0.040164   0.001090  -0.000129
     9  C    0.001728   0.436970   4.720074   0.520496   0.001242   0.004046
    10  C    0.002280  -0.040164   0.520496   5.048967   0.476587   0.003425
    11  C   -0.000222   0.001090   0.001242   0.476587   4.766814   0.546149
    12  C   -0.000000  -0.000129   0.004046   0.003425   0.546149   5.232719
    13  C   -0.000000   0.000000   0.000090   0.001866  -0.024953   0.347238
    14  C    0.000000  -0.000000  -0.000000   0.000091   0.000151  -0.015298
    15  C   -0.000000   0.000000   0.000000  -0.000000   0.001424  -0.007391
    16  C    0.000000  -0.000000  -0.000021   0.000749  -0.002887  -0.013306
    17  C   -0.000000  -0.000009  -0.000368   0.004254  -0.008826  -0.026530
    18  C   -0.000000   0.000019   0.001790   0.002259  -0.000328  -0.017442
    19  C   -0.000000   0.000000  -0.000000  -0.000001   0.000335   0.001536
    20  C   -0.000000   0.000000   0.000002  -0.000009   0.000896  -0.018279
    21  O    0.000000  -0.000000   0.000000  -0.000000  -0.000023   0.000083
    22  H    0.000000  -0.000023  -0.000267   0.000301   0.008401  -0.000089
    23  H   -0.000000   0.000000  -0.000036  -0.000001   0.000522   0.000064
    24  H    0.004785  -0.000372   0.002797  -0.000041  -0.000017   0.000000
    25  H   -0.023423   0.358021  -0.053676  -0.006259  -0.000099   0.000006
    26  H    0.000281  -0.008488  -0.042267   0.349942  -0.053273  -0.005826
    27  H    0.000030   0.000192  -0.042513  -0.058032   0.380527  -0.118698
    28  H   -0.000000  -0.000006  -0.000566  -0.023222  -0.036854   0.319959
    29  H    0.000000  -0.000000  -0.000000   0.000000  -0.000013  -0.000172
    30  H    0.000000  -0.000000   0.000004  -0.000118  -0.001527  -0.004559
    31  H    0.000000   0.000002   0.000199   0.001077  -0.001013   0.003356
    32  H   -0.000000  -0.000001  -0.000110   0.000115   0.000252   0.002062
    33  H    0.000000  -0.000000  -0.000000  -0.000000  -0.000000  -0.000189
    34  H    0.000000  -0.000000  -0.000002  -0.000006   0.000107   0.000243
              13         14         15         16         17         18
     1  N    0.002333   0.002192  -0.000049   0.000169   0.001232  -0.040114
     2  C    0.001050  -0.000385  -0.000009  -0.001415  -0.024220   0.228944
     3  C    0.000579  -0.000017  -0.000000  -0.000038  -0.003008  -0.006039
     4  C   -0.000044   0.000000  -0.000000   0.000004   0.000466  -0.001984
     5  C   -0.000000   0.000000  -0.000000   0.000000   0.000000   0.000026
     6  N    0.000000   0.000000  -0.000000   0.000000   0.000000   0.000000
     7  N   -0.000000   0.000000  -0.000000   0.000000  -0.000000  -0.000000
     8  C    0.000000  -0.000000   0.000000  -0.000000  -0.000009   0.000019
     9  C    0.000090  -0.000000   0.000000  -0.000021  -0.000368   0.001790
    10  C    0.001866   0.000091  -0.000000   0.000749   0.004254   0.002259
    11  C   -0.024953   0.000151   0.001424  -0.002887  -0.008826  -0.000328
    12  C    0.347238  -0.015298  -0.007391  -0.013306  -0.026530  -0.017442
    13  C    5.340404   0.505537  -0.030287  -0.056326  -0.019297   0.017872
    14  C    0.505537   4.651750   0.466637  -0.031911  -0.053445  -0.003586
    15  C   -0.030287   0.466637   4.905020   0.570685  -0.017019   0.000337
    16  C   -0.056326  -0.031911   0.570685   5.199777   0.345128  -0.031399
    17  C   -0.019297  -0.053445  -0.017019   0.345128   5.127342   0.510968
    18  C    0.017872  -0.003586   0.000337  -0.031399   0.510968   5.222002
    19  C   -0.099231   0.337561  -0.053454   0.002267   0.014389  -0.003777
    20  C    0.249416  -0.049610   0.000420   0.002747   0.011376  -0.003184
    21  O   -0.046458   0.004636   0.000026   0.000035  -0.000769  -0.003026
    22  H   -0.001120   0.000264  -0.000003  -0.000005   0.000393   0.004127
    23  H    0.001039   0.000161   0.000004   0.000009  -0.000064  -0.000435
    24  H   -0.000000   0.000000  -0.000000   0.000000   0.000000   0.000001
    25  H   -0.000000   0.000000  -0.000000   0.000000   0.000002   0.000001
    26  H   -0.000154   0.000002  -0.000006   0.000038   0.000320  -0.000278
    27  H   -0.016485  -0.000193  -0.000092   0.000105  -0.001289  -0.015050
    28  H   -0.040103  -0.003344  -0.005328   0.000284  -0.005280  -0.001144
    29  H    0.004845  -0.036651   0.370077  -0.048673   0.002631  -0.000069
    30  H    0.004183   0.008250  -0.041239   0.338815  -0.039616   0.001782
    31  H    0.003690   0.002845  -0.000627  -0.075078   0.329557  -0.038284
    32  H    0.000953   0.000274  -0.000170   0.002154  -0.030583   0.328940
    33  H    0.012218  -0.038976   0.000914  -0.000220   0.000003  -0.000030
    34  H   -0.000050  -0.000702   0.000031  -0.000042   0.000017   0.005541
              19         20         21         22         23         24
     1  N    0.000756   0.001401  -0.025642   0.321414   0.347501  -0.000004
     2  C   -0.000275   0.004326  -0.008210  -0.051824  -0.045105  -0.000231
     3  C   -0.000041   0.000085   0.000397  -0.002993   0.002141  -0.005845
     4  C   -0.000000  -0.000006  -0.000005   0.004728   0.000072  -0.043736
     5  C    0.000000  -0.000000  -0.000000  -0.000011   0.000005   0.357519
     6  N   -0.000000  -0.000000  -0.000000   0.000003  -0.000000  -0.023123
     7  N   -0.000000  -0.000000   0.000000   0.000000  -0.000000   0.004785
     8  C    0.000000   0.000000  -0.000000  -0.000023   0.000000  -0.000372
     9  C   -0.000000   0.000002   0.000000  -0.000267  -0.000036   0.002797
    10  C   -0.000001  -0.000009  -0.000000   0.000301  -0.000001  -0.000041
    11  C    0.000335   0.000896  -0.000023   0.008401   0.000522  -0.000017
    12  C    0.001536  -0.018279   0.000083  -0.000089   0.000064   0.000000
    13  C   -0.099231   0.249416  -0.046458  -0.001120   0.001039  -0.000000
    14  C    0.337561  -0.049610   0.004636   0.000264   0.000161   0.000000
    15  C   -0.053454   0.000420   0.000026  -0.000003   0.000004  -0.000000
    16  C    0.002267   0.002747   0.000035  -0.000005   0.000009   0.000000
    17  C    0.014389   0.011376  -0.000769   0.000393  -0.000064   0.000000
    18  C   -0.003777  -0.003184  -0.003026   0.004127  -0.000435   0.000001
    19  C    5.183194   0.583052  -0.037204   0.000003  -0.000263  -0.000000
    20  C    0.583052   4.504083   0.463997   0.000588   0.001533  -0.000000
    21  O   -0.037204   0.463997   7.685743   0.000902   0.013927  -0.000000
    22  H    0.000003   0.000588   0.000902   0.482079  -0.033159   0.000017
    23  H   -0.000263   0.001533   0.013927  -0.033159   0.459034  -0.000001
    24  H   -0.000000  -0.000000  -0.000000   0.000017  -0.000001   0.572981
    25  H   -0.000000  -0.000000  -0.000000   0.000001  -0.000000   0.000027
    26  H    0.000000  -0.000000  -0.000000   0.000058   0.000000   0.000003
    27  H    0.000069   0.000069  -0.000060   0.012257  -0.000680   0.000047
    28  H    0.000695   0.000194  -0.000018   0.000374  -0.000002   0.000000
    29  H    0.000054   0.000117   0.000001  -0.000000   0.000000  -0.000000
    30  H   -0.000229  -0.000172  -0.000000   0.000003  -0.000000   0.000000
    31  H   -0.000364  -0.000236  -0.000000   0.000006  -0.000003  -0.000000
    32  H   -0.000551  -0.000474   0.001736  -0.000244  -0.000080   0.000000
    33  H    0.369621  -0.033003  -0.002137  -0.000000  -0.000010  -0.000000
    34  H    0.004848  -0.069151   0.314450   0.001571  -0.008942   0.000000
              25         26         27         28         29         30
     1  N    0.000000  -0.000013  -0.017410   0.000211   0.000000  -0.000002
     2  C   -0.000011  -0.000366  -0.041569  -0.000632  -0.000001   0.000013
     3  C   -0.000074  -0.000882  -0.037122  -0.000255  -0.000000  -0.000001
     4  C    0.003769   0.005291   0.020989   0.000044   0.000000   0.000001
     5  C   -0.000443  -0.000039  -0.000386   0.000001  -0.000000  -0.000000
     6  N    0.004915   0.000002   0.000014  -0.000000   0.000000  -0.000000
     7  N   -0.023423   0.000281   0.000030  -0.000000   0.000000   0.000000
     8  C    0.358021  -0.008488   0.000192  -0.000006  -0.000000  -0.000000
     9  C   -0.053676  -0.042267  -0.042513  -0.000566  -0.000000   0.000004
    10  C   -0.006259   0.349942  -0.058032  -0.023222   0.000000  -0.000118
    11  C   -0.000099  -0.053273   0.380527  -0.036854  -0.000013  -0.001527
    12  C    0.000006  -0.005826  -0.118698   0.319959  -0.000172  -0.004559
    13  C   -0.000000  -0.000154  -0.016485  -0.040103   0.004845   0.004183
    14  C    0.000000   0.000002  -0.000193  -0.003344  -0.036651   0.008250
    15  C   -0.000000  -0.000006  -0.000092  -0.005328   0.370077  -0.041239
    16  C    0.000000   0.000038   0.000105   0.000284  -0.048673   0.338815
    17  C    0.000002   0.000320  -0.001289  -0.005280   0.002631  -0.039616
    18  C    0.000001  -0.000278  -0.015050  -0.001144  -0.000069   0.001782
    19  C   -0.000000   0.000000   0.000069   0.000695   0.000054  -0.000229
    20  C   -0.000000  -0.000000   0.000069   0.000194   0.000117  -0.000172
    21  O   -0.000000  -0.000000  -0.000060  -0.000018   0.000001  -0.000000
    22  H    0.000001   0.000058   0.012257   0.000374  -0.000000   0.000003
    23  H   -0.000000   0.000000  -0.000680  -0.000002   0.000000  -0.000000
    24  H    0.000027   0.000003   0.000047   0.000000  -0.000000   0.000000
    25  H    0.584932   0.006286   0.000004   0.000000   0.000000   0.000000
    26  H    0.006286   0.627112   0.012187   0.005739   0.000000   0.000254
    27  H    0.000004   0.012187   0.787901   0.019221   0.000000   0.000103
    28  H    0.000000   0.005739   0.019221   0.664243  -0.000085   0.006094
    29  H    0.000000   0.000000   0.000000  -0.000085   0.589229  -0.002702
    30  H    0.000000   0.000254   0.000103   0.006094  -0.002702   0.572691
    31  H   -0.000002   0.000012   0.000196  -0.000980  -0.000285   0.004580
    32  H    0.000000   0.000001   0.000312  -0.000022   0.000004  -0.000054
    33  H    0.000000   0.000000   0.000001   0.000013   0.000412   0.000007
    34  H    0.000000   0.000000   0.000753   0.000005  -0.000001   0.000001
              31         32         33         34
     1  N   -0.000055   0.002938   0.000000  -0.006690
     2  C    0.001310  -0.050803  -0.000000   0.030396
     3  C    0.000138  -0.000910  -0.000000   0.001259
     4  C   -0.000041   0.000155  -0.000000   0.000115
     5  C   -0.000000   0.000002   0.000000  -0.000000
     6  N    0.000000  -0.000000   0.000000   0.000000
     7  N    0.000000  -0.000000   0.000000   0.000000
     8  C    0.000002  -0.000001  -0.000000  -0.000000
     9  C    0.000199  -0.000110  -0.000000  -0.000002
    10  C    0.001077   0.000115  -0.000000  -0.000006
    11  C   -0.001013   0.000252  -0.000000   0.000107
    12  C    0.003356   0.002062  -0.000189   0.000243
    13  C    0.003690   0.000953   0.012218  -0.000050
    14  C    0.002845   0.000274  -0.038976  -0.000702
    15  C   -0.000627  -0.000170   0.000914   0.000031
    16  C   -0.075078   0.002154  -0.000220  -0.000042
    17  C    0.329557  -0.030583   0.000003   0.000017
    18  C   -0.038284   0.328940  -0.000030   0.005541
    19  C   -0.000364  -0.000551   0.369621   0.004848
    20  C   -0.000236  -0.000474  -0.033003  -0.069151
    21  O   -0.000000   0.001736  -0.002137   0.314450
    22  H    0.000006  -0.000244  -0.000000   0.001571
    23  H   -0.000003  -0.000080  -0.000010  -0.008942
    24  H   -0.000000   0.000000  -0.000000   0.000000
    25  H   -0.000002   0.000000   0.000000   0.000000
    26  H    0.000012   0.000001   0.000000   0.000000
    27  H    0.000196   0.000312   0.000001   0.000753
    28  H   -0.000980  -0.000022   0.000013   0.000005
    29  H   -0.000285   0.000004   0.000412  -0.000001
    30  H    0.004580  -0.000054   0.000007   0.000001
    31  H    0.619053   0.000439   0.000001   0.000016
    32  H    0.000439   0.592497  -0.000007  -0.001288
    33  H    0.000001  -0.000007   0.570670  -0.000149
    34  H    0.000016  -0.001288  -0.000149   0.378819
 Mulliken charges:
               1
     1  N   -0.552361
     2  C   -0.240396
     3  C    0.137030
     4  C    0.091611
     5  C   -0.016117
     6  N   -0.213487
     7  N   -0.218005
     8  C    0.014260
     9  C    0.175157
    10  C   -0.224544
    11  C    0.001684
    12  C   -0.239556
    13  C   -0.158804
    14  C    0.253766
    15  C   -0.159901
    16  C   -0.201644
    17  C   -0.117756
    18  C   -0.158438
    19  C   -0.302989
    20  C    0.349821
    21  O   -0.362380
    22  H    0.252248
    23  H    0.262770
    24  H    0.135193
    25  H    0.126025
    26  H    0.104064
    27  H    0.114602
    28  H    0.100766
    29  H    0.121280
    30  H    0.153439
    31  H    0.150490
    32  H    0.152463
    33  H    0.120860
    34  H    0.348850
 Sum of Mulliken charges =  -0.00000
 Mulliken charges with hydrogens summed into heavy atoms:
               1
     1  N   -0.037343
     2  C   -0.240396
     3  C    0.137030
     4  C    0.091611
     5  C    0.119075
     6  N   -0.213487
     7  N   -0.218005
     8  C    0.140285
     9  C    0.175157
    10  C   -0.120480
    11  C    0.116286
    12  C   -0.138790
    13  C   -0.158804
    14  C    0.253766
    15  C   -0.038621
    16  C   -0.048205
    17  C    0.032734
    18  C   -0.005975
    19  C   -0.182129
    20  C    0.349821
    21  O   -0.013530
 Electronic spatial extent (au):  <R**2>=           5892.1675
 Charge=             -0.0000 electrons
 Dipole moment (field-independent basis, Debye):
    X=             -5.8543    Y=             -1.0572    Z=              0.7017  Tot=              5.9902
 Quadrupole moment (field-independent basis, Debye-Ang):
   XX=           -149.2342   YY=           -111.3352   ZZ=           -123.5911
   XY=              3.0098   XZ=              3.1402   YZ=              1.2399
 Traceless Quadrupole moment (field-independent basis, Debye-Ang):
   XX=            -21.1807   YY=             16.7183   ZZ=              4.4624
   XY=              3.0098   XZ=              3.1402   YZ=              1.2399
 Octapole moment (field-independent basis, Debye-Ang**2):
  XXX=           -261.4786  YYY=            -10.4562  ZZZ=             -3.1996  XYY=              3.8713
  XXY=             -0.6000  XXZ=             14.5002  XZZ=              3.4175  YZZ=             13.1269
  YYZ=              2.9115  XYZ=             -2.0131
 Hexadecapole moment (field-independent basis, Debye-Ang**3):
 XXXX=          -7272.3921 YYYY=          -1427.5625 ZZZZ=           -487.9037 XXXY=            116.1955
 XXXZ=             59.1223 YYYX=            -15.1756 YYYZ=             19.3058 ZZZX=             -4.1610
 ZZZY=             -7.7805 XXYY=          -1205.3717 XXZZ=          -1128.4249 YYZZ=           -332.0433
 XXYZ=             15.6214 YYXZ=             18.5562 ZZXY=            -27.0794
 N-N= 1.562149651099D+03 E-N=-5.201173877167D+03  KE= 8.873518041045D+02
 PrsmSu:  requested number of processors reduced to:  12 ShMem   1 Linda.
 Calling FoFJK, ICntrl=      2127 FMM=F ISym2X=0 I1Cent= 0 IOpClX= 0 NMat=1 NMatS=1 NMatT=0.
 ***** Axes restored to original set *****
 -------------------------------------------------------------------
 Center     Atomic                   Forces (Hartrees/Bohr)
 Number     Number              X              Y              Z
 -------------------------------------------------------------------
      1        7          -0.021384707   -0.001986713   -0.015291470
      2        6          -0.039472911   -0.027375917   -0.036255104
      3        6          -0.011049231   -0.001842994    0.041986941
      4        6           0.014117498    0.000006742   -0.012558108
      5        6           0.009261531   -0.009841116    0.010191410
      6        7          -0.008830690    0.006993000    0.015473061
      7        7           0.004484471    0.000859612    0.003992870
      8        6          -0.001204990    0.015895025    0.009661173
      9        6           0.002415289   -0.015443821   -0.024790491
     10        6          -0.043438311   -0.001952811    0.017786395
     11        6           0.038758573    0.008881063   -0.012195562
     12        6          -0.035768934    0.006163896    0.064379354
     13        6           0.045280035   -0.073801266   -0.106012076
     14        6           0.004400680   -0.057749086    0.047915341
     15        6          -0.037940970    0.027784194   -0.025466010
     16        6           0.019858552    0.021225130   -0.050106827
     17        6          -0.034246706   -0.057791906   -0.037025419
     18        6           0.000329548    0.040778776    0.040507496
     19        6           0.009657237    0.073583444   -0.009971601
     20        6          -0.073917510   -0.039797429    0.066073268
     21        8           0.050391828    0.062999899   -0.011095075
     22        1           0.020400588    0.001741897   -0.004210403
     23        1           0.021766035   -0.000138928   -0.001553068
     24        1          -0.007093479   -0.008714778   -0.000915181
     25        1           0.001538346    0.008091722   -0.006798362
     26        1           0.000203998   -0.006935777   -0.010966139
     27        1           0.009899525    0.052619081   -0.030333531
     28        1          -0.045063132   -0.008444687    0.016443952
     29        1           0.003675869   -0.000667738   -0.005484169
     30        1           0.041747027   -0.016197879    0.030552453
     31        1           0.037585975    0.026411866    0.019545597
     32        1           0.032976509   -0.030597563    0.000911879
     33        1           0.002267126    0.005275930    0.001210798
     34        1          -0.011604669   -0.000030866    0.014396608
 -------------------------------------------------------------------
 Cartesian Forces:  Max     0.106012076 RMS     0.030783229

 GradGradGradGradGradGradGradGradGradGradGradGradGradGradGradGradGradGrad
 Berny optimization.
 FormGI is forming the generalized inverse of G from B-inverse, IUseBI=4.
 Internal  Forces:  Max     0.079762252 RMS     0.023603315
 Search for a local minimum.
 Step number   1 out of a maximum of  180
 All quantities printed in internal units (Hartrees-Bohrs-Radians)
 Mixed Optimization -- RFO/linear search
 Second derivative matrix not updated -- first step.
 ITU=  0
     Eigenvalues ---    0.00391   0.00619   0.00659   0.00732   0.01004
     Eigenvalues ---    0.01143   0.01152   0.01273   0.01331   0.01457
     Eigenvalues ---    0.01518   0.01595   0.01701   0.01795   0.01812
     Eigenvalues ---    0.01979   0.02072   0.02080   0.02115   0.02232
     Eigenvalues ---    0.02300   0.02338   0.02504   0.02672   0.02744
     Eigenvalues ---    0.02924   0.03399   0.03613   0.03854   0.04499
     Eigenvalues ---    0.05112   0.10734   0.13711   0.14335   0.14565
     Eigenvalues ---    0.14701   0.15071   0.15134   0.15390   0.15517
     Eigenvalues ---    0.15637   0.15690   0.15938   0.15948   0.15996
     Eigenvalues ---    0.16000   0.16000   0.16000   0.18212   0.19181
     Eigenvalues ---    0.19930   0.21241   0.22334   0.22472   0.22629
     Eigenvalues ---    0.22739   0.22898   0.23151   0.23505   0.23598
     Eigenvalues ---    0.24603   0.24828   0.24984   0.27341   0.31705
     Eigenvalues ---    0.32306   0.32411   0.32971   0.32993   0.33397
     Eigenvalues ---    0.33450   0.33864   0.34555   0.34640   0.35433
     Eigenvalues ---    0.35460   0.35657   0.36748   0.36794   0.36996
     Eigenvalues ---    0.40230   0.40853   0.42093   0.42221   0.43743
     Eigenvalues ---    0.46786   0.49218   0.49780   0.51615   0.51853
     Eigenvalues ---    0.55254   0.57405   0.60645   0.62994   0.66956
     Eigenvalues ---    0.81512
 RFO step:  Lambda=-2.29548591D-01 EMin= 3.90525532D-03
 Linear search not attempted -- first point.
 Maximum step size (   0.300) exceeded in Quadratic search.
    -- Step size scaled by   0.550
 Iteration  1 RMS(Cart)=  0.19594190 RMS(Int)=  0.00629855
 Iteration  2 RMS(Cart)=  0.01363583 RMS(Int)=  0.00102570
 Iteration  3 RMS(Cart)=  0.00009727 RMS(Int)=  0.00102529
 Iteration  4 RMS(Cart)=  0.00000032 RMS(Int)=  0.00102529
 Variable       Old X    -DE/DX   Delta X   Delta X   Delta X     New X
                                 (Linear)    (Quad)   (Total)
    R1        2.78277  -0.00757   0.00000  -0.00713  -0.00713   2.77564
    R2        1.95504  -0.01041   0.00000  -0.00880  -0.00880   1.94625
    R3        1.93463  -0.01718   0.00000  -0.01415  -0.01415   1.92048
    R4        2.57873  -0.04702   0.00000  -0.03603  -0.03660   2.54213
    R5        3.37543   0.00225   0.00000  -0.00160  -0.00204   3.37340
    R6        2.52658  -0.01104   0.00000  -0.00839  -0.00849   2.51809
    R7        2.82321  -0.02163   0.00000  -0.02124  -0.02127   2.80194
    R8        2.80568  -0.01250   0.00000  -0.00934  -0.00861   2.79708
    R9        2.46636  -0.02131   0.00000  -0.01369  -0.01373   2.45263
   R10        2.08268  -0.01020   0.00000  -0.00994  -0.00994   2.07274
   R11        2.67444  -0.00829   0.00000  -0.00777  -0.00779   2.66665
   R12        2.44522  -0.00548   0.00000  -0.00340  -0.00337   2.44184
   R13        2.78575  -0.01438   0.00000  -0.01266  -0.01260   2.77315
   R14        2.08360  -0.00932   0.00000  -0.00909  -0.00909   2.07451
   R15        2.58025   0.01609   0.00000   0.01363   0.01458   2.59483
   R16        2.77493   0.00121   0.00000   0.00137   0.00172   2.77666
   R17        2.04935   0.00385   0.00000   0.00362   0.00362   2.05297
   R18        2.49922   0.04619   0.00000   0.03157   0.03229   2.53152
   R19        1.89955   0.05033   0.00000   0.03966   0.03966   1.93921
   R20        3.37858  -0.06629   0.00000  -0.09605  -0.09594   3.28265
   R21        2.02553   0.01420   0.00000   0.01302   0.01302   2.03855
   R22        2.55352   0.01193   0.00000   0.01355   0.01489   2.56841
   R23        2.91111   0.05956   0.00000   0.06222   0.06219   2.97329
   R24        2.75866  -0.01337   0.00000  -0.00973  -0.00946   2.74920
   R25        2.66435   0.05367   0.00000   0.04486   0.04491   2.70926
   R26        2.54392   0.06456   0.00000   0.04433   0.04369   2.58761
   R27        2.06404  -0.00554   0.00000  -0.00529  -0.00529   2.05874
   R28        3.20323  -0.02650   0.00000  -0.03803  -0.03898   3.16424
   R29        2.11387  -0.01443   0.00000  -0.01450  -0.01450   2.09937
   R30        2.80362  -0.02152   0.00000  -0.02363  -0.02442   2.77919
   R31        2.10098  -0.00472   0.00000  -0.00469  -0.00469   2.09629
   R32        2.09065  -0.00547   0.00000  -0.00537  -0.00537   2.08527
   R33        2.64236  -0.03742   0.00000  -0.03255  -0.03323   2.60912
   R34        2.02857   0.00237   0.00000   0.00218   0.00218   2.03075
   R35        2.37110   0.07279   0.00000   0.03829   0.03829   2.40940
   R36        1.86788  -0.01787   0.00000  -0.01350  -0.01350   1.85438
    A1        1.98394  -0.00909   0.00000  -0.01118  -0.01117   1.97277
    A2        2.17159  -0.00697   0.00000  -0.00843  -0.00842   2.16316
    A3        1.68942   0.01692   0.00000   0.02631   0.02633   1.71575
    A4        1.86260  -0.03185   0.00000  -0.03783  -0.03744   1.82516
    A5        2.20436   0.06733   0.00000   0.08083   0.08081   2.28517
    A6        1.97669  -0.02372   0.00000  -0.02938  -0.02981   1.94688
    A7        2.64879  -0.02117   0.00000  -0.02934  -0.03223   2.61656
    A8        2.24027   0.00027   0.00000  -0.00227  -0.00210   2.23817
    A9        2.07878  -0.00849   0.00000  -0.00679  -0.00741   2.07137
   A10        1.96327   0.00862   0.00000   0.01001   0.01019   1.97346
   A11        2.19182   0.00068   0.00000   0.00091   0.00087   2.19268
   A12        2.06390  -0.00054   0.00000  -0.00072  -0.00071   2.06320
   A13        2.02709  -0.00009   0.00000  -0.00001  -0.00001   2.02709
   A14        2.09883  -0.00070   0.00000  -0.00214  -0.00218   2.09664
   A15        2.08030  -0.00306   0.00000  -0.00381  -0.00373   2.07657
   A16        2.18160   0.00442   0.00000   0.00816   0.00831   2.18991
   A17        2.07443  -0.00690   0.00000  -0.01046  -0.01052   2.06391
   A18        2.02113   0.00256   0.00000   0.00270   0.00261   2.02374
   A19        2.01626  -0.01012   0.00000  -0.01302  -0.01343   2.00283
   A20        2.25246  -0.01377   0.00000  -0.00889  -0.00783   2.24463
   A21        1.99222   0.02494   0.00000   0.02490   0.02422   2.01644
   A22        2.05226   0.02406   0.00000   0.03727   0.03841   2.09067
   A23        2.11798  -0.01877   0.00000  -0.02825  -0.02902   2.08897
   A24        2.10895  -0.00610   0.00000  -0.01110  -0.01173   2.09722
   A25        2.50584  -0.07976   0.00000  -0.09802  -0.09675   2.40910
   A26        1.67919   0.03796   0.00000   0.04965   0.05059   1.72978
   A27        1.88239   0.02370   0.00000   0.03298   0.03358   1.91597
[...]
   D40        0.12201   0.00009  -0.00820   0.00127  -0.00715   0.11486
   D41       -2.83359   0.00003  -0.01399   0.00289  -0.01118  -2.84477
   D42       -2.30489   0.00022  -0.00168   0.00759   0.00587  -2.29902
   D43        0.68133  -0.00007   0.00603  -0.00315   0.00277   0.68411
   D44        0.65232   0.00030   0.00369   0.00616   0.00971   0.66203
   D45       -2.64464   0.00001   0.01140  -0.00458   0.00661  -2.63803
   D46        0.07400   0.00020  -0.01176  -0.00073  -0.01256   0.06145
   D47        3.07937  -0.00005  -0.00442  -0.00287  -0.00741   3.07196
   D48       -2.95217   0.00034  -0.01749   0.00701  -0.01044  -2.96261
   D49        0.05320   0.00009  -0.01015   0.00488  -0.00529   0.04790
   D50       -3.10436   0.00014   0.00695   0.00143   0.00841  -3.09595
   D51        0.02759   0.00014   0.02060   0.00273   0.02333   0.05093
   D52       -0.06151  -0.00009   0.01171  -0.00562   0.00615  -0.05535
   D53        3.07044  -0.00009   0.02536  -0.00431   0.02107   3.09152
   D54        0.42132   0.00003   0.02289  -0.00629   0.01641   0.43773
   D55       -2.75817  -0.00033   0.01277  -0.00352   0.00919  -2.74898
   D56       -2.54141   0.00041   0.01290  -0.00316   0.00957  -2.53184
   D57        0.56229   0.00005   0.00278  -0.00040   0.00234   0.56463
   D58       -0.06125  -0.00010   0.01160  -0.00560   0.00606  -0.05519
   D59        3.11687   0.00015  -0.00530   0.00034  -0.00494   3.11193
   D60        2.96038  -0.00041   0.01843  -0.00798   0.01065   2.97103
   D61       -0.14468  -0.00017   0.00153  -0.00204  -0.00036  -0.14504
   D62        0.12247  -0.00018  -0.02909   0.00664  -0.02248   0.09999
   D63       -3.01322  -0.00043  -0.02059   0.00326  -0.01722  -3.03044
   D64       -2.98083   0.00017  -0.01879   0.00380  -0.01510  -2.99593
   D65        0.16667  -0.00008  -0.01028   0.00042  -0.00985   0.15682
   D66        0.66158  -0.00053   0.01761  -0.00195   0.01578   0.67736
   D67       -2.63525  -0.00063   0.03763  -0.00604   0.03181  -2.60344
   D68       -2.48583  -0.00028   0.00922   0.00138   0.01061  -2.47522
   D69        0.50053  -0.00037   0.02925  -0.00271   0.02664   0.52717
   D70       -0.11532  -0.00079   0.00153  -0.00184   0.00001  -0.11531
   D71        3.08547  -0.00073   0.02217  -0.00774   0.01483   3.10029
   D72       -3.10019  -0.00068  -0.01830   0.00227  -0.01590  -3.11609
   D73        0.10060  -0.00061   0.00234  -0.00363  -0.00109   0.09951
   D74        0.05447   0.00012  -0.01054   0.00503  -0.00549   0.04898
   D75       -3.07673   0.00012  -0.02521   0.00363  -0.02159  -3.09832
   D76       -3.12512  -0.00014   0.00697  -0.00111   0.00595  -3.11917
   D77        0.02687  -0.00014  -0.00770  -0.00251  -0.01015   0.01672
   D78        0.09734  -0.00003  -0.05976  -0.00151  -0.06129   0.03605
   D79       -3.05807  -0.00003  -0.04026   0.00036  -0.03989  -3.09796
         Item               Value     Threshold  Converged?
 Maximum Force            0.001806     0.000450     NO 
 RMS     Force            0.000449     0.000300     NO 
 Maximum Displacement     0.077953     0.001800     NO 
 RMS     Displacement     0.019393     0.001200     NO 
 Predicted change in Energy=-1.489883D-04
 GradGradGradGradGradGradGradGradGradGradGradGradGradGradGradGradGradGrad

                          Input orientation:                          
 ---------------------------------------------------------------------
 Center     Atomic      Atomic             Coordinates (Angstroms)
 Number     Number       Type             X           Y           Z
 ---------------------------------------------------------------------
      1          7           0        2.620289   -0.238141    1.779504
      2          6           0        3.148377   -1.412354    1.240472
      3          6           0        3.409437   -1.636254   -0.037439
      4          6           0        3.529958   -2.071676   -1.294758
      5          6           0        4.688618   -1.705553   -2.114341
      6          7           0        5.062101   -2.282425   -3.204342
      7          7           0        4.370470   -3.413242   -3.656253
      8          6           0        3.282231   -3.757819   -3.048000
      9          6           0        2.676009   -3.101845   -1.915099
     10          6           0        1.476497   -3.544299   -1.408776
     11          6           0        0.740098   -2.767429   -0.466265
     12          6           0        0.301017   -3.126390    0.777295
     13          6           0       -0.211710   -2.154028    1.655512
     14          6           0       -0.089810   -1.736334    2.958255
     15          6           0        0.693214   -2.062440    4.099044
     16          6           0        1.929809   -2.633003    4.200074
     17          6           0        2.962724   -3.030828    3.263385
     18          6           0        3.501425   -2.548764    2.113946
     19          6           0       -1.056053   -0.548193    2.712485
     20          6           0       -1.114402   -0.917393    1.422034
     21          8           0       -1.701800   -0.455997    0.322312
     22          1           0        2.099344    0.318829    1.114661
     23          1           0        2.087862   -0.385552    2.628655
     24          1           0        5.289624   -0.859037   -1.788767
     25          1           0        2.767863   -4.625920   -3.461957
     26          1           0        1.120540   -4.528309   -1.711637
     27          1           0        0.764888   -1.695289   -0.663493
     28          1           0        0.501029   -4.125918    1.154274
     29          1           0        0.236472   -1.770032    5.043778
     30          1           0        2.220267   -2.856671    5.226676
     31          1           0        3.515395   -3.888809    3.647563
     32          1           0        4.318916   -3.137900    1.712074
     33          1           0       -1.465470    0.236420    3.326368
     34          1           0       -1.511860   -1.058347   -0.408531
 ---------------------------------------------------------------------
                    Distance matrix (angstroms):
                    1          2          3          4          5
     1  N    0.000000
     2  C    1.395783   0.000000
     3  C    2.424615   1.323381   0.000000
     4  C    3.693296   2.647205   1.336027   0.000000
     5  C    4.646860   3.703116   2.440211   1.465693   0.000000
     6  N    5.914412   4.916882   3.630167   2.457314   1.288555
     7  N    6.533900   5.429086   4.144525   2.843048   2.322695
     8  C    6.010914   4.889796   3.685199   2.445057   2.657336
     9  C    4.674826   3.610421   2.492285   1.474890   2.457626
    10  C    4.733294   3.789312   3.042608   2.529490   3.767828
    11  C    3.869870   3.247920   2.930669   2.992288   4.408463
    12  C    3.837373   3.355580   3.542114   3.978930   5.443471
    13  C    3.421435   3.465909   4.030742   4.765601   6.198882
    14  C    3.313408   3.679891   4.607486   5.594934   6.968899
    15  C    3.524479   3.823856   4.966889   6.094284   7.395726
    16  C    3.474376   3.425513   4.597752   5.750542   6.952914
    17  C    3.180922   2.597326   3.611070   4.692376   5.801292
    18  C    2.495442   1.476153   2.338716   3.442047   4.472006
    19  C    3.805532   4.537712   5.355984   6.277777   7.592034
    20  C    3.812752   4.295258   4.807488   5.503036   6.841212
    21  O    4.566324   5.028106   5.258058   5.709345   6.952418
    22  H    1.011738   2.028125   2.620311   3.683269   4.607485
    23  H    1.013049   2.026344   3.227828   4.507308   5.567975
    24  H    4.499268   3.750651   2.684459   2.193391   1.088024
    25  H    6.837199   5.708295   4.590974   3.435361   3.746186
    26  H    5.730868   4.747235   4.050428   3.466140   4.567417
    27  H    3.396178   3.063683   2.718284   2.861079   4.183386
    28  H    4.471799   3.792006   4.009669   4.403643   5.837629
    29  H    4.322587   4.803360   5.992026   7.149481   8.429972
    30  H    4.347381   4.340192   5.533032   6.697806   7.829965
    31  H    4.197409   3.472985   4.320240   5.265807   6.272367
    32  H    3.361322   2.137775   2.478485   3.286385   4.102407
    33  H    4.394476   5.325129   6.211829   7.185847   8.440697
    34  H    4.747093   4.956041   4.968989   5.218444   6.463327
                    6          7          8          9         10
     6  N    0.000000
     7  N    1.400472   0.000000
     8  C    2.317146   1.293433   0.000000
     9  C    2.833201   2.449445   1.442661   0.000000
    10  C    4.203919   3.666525   2.448126   1.375121   0.000000
    11  C    5.139261   4.875725   3.756150   2.441046   1.426232
    12  C    6.263675   6.024872   4.890728   3.590289   2.517004
    13  C    7.172708   7.127190   6.074766   4.688981   3.764672
    14  C    8.050963   8.152167   7.178590   5.767491   4.979259
    15  C    8.513225   8.688584   7.788295   6.417301   5.757214
    16  C    8.047331   8.263623   7.458473   6.178347   5.700452
    17  C    6.840978   7.071731   6.361146   5.186901   4.929667
    18  C    5.548949   5.898963   5.306180   4.149749   4.183419
    19  C    8.686093   8.844008   7.893389   6.470237   5.689926
    20  C    7.836827   7.880487   6.883284   5.502318   4.650471
    21  O    7.843691   7.838797   6.863060   5.583165   4.757715
    22  H    5.847926   6.469002   5.945252   4.605757   4.656118
    23  H    6.816751   7.340114   6.709926   5.326337   5.162587
    24  H    2.020311   3.294892   3.744092   3.446321   4.679205
    25  H    3.289660   2.019081   1.090658   2.173478   2.655763
    26  H    4.775779   3.948031   2.655641   2.120302   1.089360
    27  H    5.026597   4.990811   4.034466   2.682779   2.116760
    28  H    6.572623   6.214632   5.052691   3.898758   2.803399
    29  H    9.569782   9.771418   8.871573   7.493400   6.805964
    30  H    8.915595   9.156395   8.391072   7.160500   6.712321
    31  H    7.205649   7.369060   6.700902   5.680413   5.462816
    32  H    5.045325   5.375630   4.910938   3.982063   4.240780
    33  H    9.570994   9.804857   8.895345   7.467854   6.735770
    34  H    7.247889   7.120045   6.102233   4.897334   4.013817
                   11         12         13         14         15
    11  C    0.000000
    12  C    1.366779   0.000000
    13  C    2.405023   1.406997   0.000000
    14  C    3.671409   2.615643   1.373488   0.000000
    15  C    4.619659   3.509961   2.607321   1.421573   0.000000
    16  C    4.817489   3.822540   3.360107   2.534756   1.365619
    17  C    4.349682   3.643414   3.664842   3.329682   2.605144
    18  C    3.785529   3.516092   3.762094   3.777548   3.473207
    19  C    4.272660   3.497670   2.099718   1.551034   2.697300
    20  C    3.229161   2.701623   1.548752   2.020007   3.427097
    21  O    3.453613   3.368869   2.623185   3.344543   4.751889
    22  H    3.724496   3.900940   3.427611   3.523483   4.068683
    23  H    4.131384   3.759327   3.059828   2.583699   2.630406
    24  H    5.107754   6.050766   6.618515   7.227875   7.565810
    25  H    4.066938   5.128857   6.416898   7.598363   8.248898
    26  H    2.190065   2.971830   4.330102   5.573864   6.326699
    27  H    1.090412   2.083050   2.557728   3.721458   4.777206
    28  H    2.128096   1.086819   2.155826   3.051811   3.600909
    29  H    5.622189   4.477360   3.439283   2.111161   1.089330
    30  H    5.882894   4.853171   4.377378   3.425981   2.057729
    31  H    5.087568   4.376295   4.568265   4.255091   3.391779
    32  H    4.205989   4.125223   4.636569   4.791056   4.472131
    33  H    5.317114   4.574575   3.174574   2.433044   3.246799
    34  H    2.827652   2.994913   2.674169   3.717142   5.117498
                   16         17         18         19         20
    16  C    0.000000
    17  C    1.450022   0.000000
    18  C    2.613236   1.357864   0.000000
    19  C    3.933793   4.755790   5.013097   0.000000
    20  C    4.464084   4.947741   4.944287   1.343494   0.000000
    21  O    5.741513   6.085840   5.887544   2.477583   1.329402
    22  H    4.273386   4.072179   3.344771   3.641607   3.457006
    23  H    2.746884   2.857577   2.634876   3.149234   3.463132
    24  H    7.092357   5.971212   4.613459   7.786238   7.164091
    25  H    7.961203   6.914659   5.995280   8.329101   7.257997
    26  H    6.260625   5.512434   4.921615   6.336540   5.277648
    27  H    5.088284   4.694094   3.991394   4.003609   2.913121
    28  H    3.680639   3.421624   3.522891   4.201505   3.602215
    29  H    2.079410   3.491684   4.455363   2.932309   3.958394
    30  H    1.090094   2.106201   3.380127   4.731226   5.418129
    31  H    2.096760   1.090491   2.036639   5.738661   5.934418
    32  H    3.486101   2.063320   1.084839   6.049603   5.876710
    33  H    4.530438   5.503433   5.822135   1.077075   2.254112
    34  H    5.963545   6.115190   5.806657   3.195115   1.878513
                   21         22         23         24         25
    21  O    0.000000
    22  H    3.959403   0.000000
    23  H    4.436859   1.669869   0.000000
    24  H    7.314308   4.471593   5.476230   0.000000
    25  H    7.189355   6.770738   7.452427   4.832003   0.000000
    26  H    5.355957   5.695679   6.077522   5.554347   2.405581
    27  H    2.931246   2.999879   3.782051   4.736960   4.520166
    28  H    4.360383   4.723554   4.322288   6.501126   5.167022
    29  H    5.270277   4.824064   3.343239   8.546808   9.322637
    30  H    6.722993   5.196835   3.587990   7.913781   8.883830
    31  H    7.075353   5.111263   3.917759   6.471560   7.186613
    32  H    6.735953   4.151190   3.659665   4.288517   5.602728
    33  H    3.091867   4.195991   3.674209   8.543765   9.361880
    34  H    0.965937   4.154218   4.757641   6.942979   6.353504
                   26         27         28         29         30
    26  H    0.000000
    27  H    3.041561   0.000000
    28  H    2.959587   3.046614   0.000000
    29  H    7.350190   5.732168   4.555045   0.000000
    30  H    7.221077   6.177461   4.599046   2.269291   0.000000
    31  H    5.904686   5.564353   3.919070   4.146079   2.288288
    32  H    4.887192   4.511714   3.982911   5.444049   4.103150
    33  H    7.400782   4.962357   5.255008   3.141966   5.173301
    34  H    4.546234   2.377874   3.987992   5.769821   6.994162
                   31         32         33         34
    31  H    0.000000
    32  H    2.226124   0.000000
    33  H    6.475314   6.888476   0.000000
    34  H    7.052426   6.543658   3.953232   0.000000
 Stoichiometry    C17H13N3O
 Framework group  C1[X(C17H13N3O)]
 Deg. of freedom    96
 Full point group                 C1      NOp   1
 Largest Abelian subgroup         C1      NOp   1
 Largest concise Abelian subgroup C1      NOp   1
                         Standard orientation:                         
 ---------------------------------------------------------------------
 Center     Atomic      Atomic             Coordinates (Angstroms)
 Number     Number       Type             X           Y           Z
 ---------------------------------------------------------------------
      1          7           0       -0.991289   -1.163083    1.864426
      2          6           0       -0.034559   -1.387644    0.873240
      3          6           0        1.178551   -0.860930    0.825557
      4          6           0        2.335732   -0.256475    0.541770
      5          6           0        3.580451   -0.656167    1.204475
      6          7           0        4.775045   -0.367702    0.817038
      7          7           0        4.959280    0.333839   -0.380969
      8          6           0        3.919461    0.805032   -0.989017
      9          6           0        2.542882    0.685111   -0.574387
     10          6           0        1.539949    1.295330   -1.290429
     11          6           0        0.218257    1.404963   -0.765788
     12          6           0       -0.957009    0.979575   -1.318853
     13          6           0       -2.137426    0.969391   -0.553247
     14          6           0       -3.189479    0.142679   -0.243089
     15          6           0       -3.593001   -1.193432   -0.512994
     16          6           0       -2.860224   -2.299951   -0.834815
     17          6           0       -1.447020   -2.609899   -0.931518
     18          6           0       -0.313870   -2.306958   -0.247418
     19          6           0       -3.771023    1.184137    0.748313
     20          6           0       -2.701907    1.957929    0.496890
     21          8           0       -2.245759    3.127752    0.933643
     22          1           0       -0.863258   -0.294386    2.367007
     23          1           0       -1.944990   -1.257707    1.536143
     24          1           0        3.500113   -1.240217    2.118929
     25          1           0        4.123922    1.370148   -1.899168
     26          1           0        1.768028    1.655949   -2.292745
     27          1           0        0.184464    1.614663    0.303737
     28          1           0       -0.952821    0.491419   -2.289864
     29          1           0       -4.664340   -1.359064   -0.406047
     30          1           0       -3.472585   -3.164508   -1.091447
     31          1           0       -1.274915   -3.368886   -1.695382
     32          1           0        0.585830   -2.782509   -0.623272
     33          1           0       -4.645313    1.228727    1.375785
     34          1           0       -1.437895    3.346824    0.451567
 ---------------------------------------------------------------------
 Rotational constants (GHZ):           0.5698908           0.2146252           0.1838280
 Standard basis: 6-31G(2df,p) (6D, 7F)
 There are   716 symmetry adapted cartesian basis functions of A   symmetry.
 There are   653 symmetry adapted basis functions of A   symmetry.
   653 basis functions,  1015 primitive gaussians,   716 cartesian basis functions
    72 alpha electrons       72 beta electrons
       nuclear repulsion energy      1527.3847678366 Hartrees.
 NAtoms=   34 NActive=   34 NUniq=   34 SFac= 1.00D+00 NAtFMM=   60 NAOKFM=F Big=F
 Integral buffers will be    131072 words long.
 Raffenetti 2 integral format.
 Two-electron integral symmetry is turned on.
 One-electron integrals computed using PRISM.
 PrsmSu:  requested number of processors reduced to:  12 ShMem   1 Linda.
 NBasis=   653 RedAO= T EigKep=  9.87D-05  NBF=   653
 NBsUse=   653 1.00D-06 EigRej= -1.00D+00 NBFU=   653
 Initial guess from the checkpoint file:  "NC1dCdc2cnncc2dCCdCC2dCqCdCCdC1rCdC2O.chk"
 B after Tr=     0.000000    0.000000    0.000000
         Rot=    0.999994   -0.000216    0.000706   -0.003331 Ang=  -0.39 deg.
 ExpMin= 1.61D-01 ExpMax= 5.48D+03 ExpMxC= 8.25D+02 IAcc=2 IRadAn=         4 AccDes= 0.00D+00
 Harris functional with IExCor=  402 and IRadAn=       4 diagonalized for initial guess.
 HarFok:  IExCor=  402 AccDes= 0.00D+00 IRadAn=         4 IDoV= 1 UseB2=F ITyADJ=14
 ICtDFT=  3500011 ScaDFX=  1.000000  1.000000  1.000000  1.000000
 FoFCou: FMM=F IPFlag=           0 FMFlag=      100000 FMFlg1=           0
         NFxFlg=           0 DoJE=T BraDBF=F KetDBF=T FulRan=T
         wScrn=  0.000000 ICntrl=       500 IOpCl=  0 I1Cent=   200000004 NGrid=           0
         NMat0=    1 NMatS0=      1 NMatT0=    0 NMatD0=    1 NMtDS0=    0 NMtDT0=    0
 Petite list used in FoFCou.
 Requested convergence on RMS density matrix=1.00D-08 within 128 cycles.
 Requested convergence on MAX density matrix=1.00D-06.
 Requested convergence on             energy=1.00D-06.
 No special actions if energy rises.
 Integral accuracy reduced to 1.0D-05 until final iterations.
 Initial convergence to 1.0D-05 achieved.  Increase integral accuracy.
slurmstepd: error: *** JOB 27447193 ON lewis4-r630-hpc4-node672 CANCELLED AT 2023-05-17T13:46:03 DUE TO TIME LIMIT ***
