### Starting Gaussian ###
 Entering Gaussian System, Link 0=g16
 Initial command:
 /cluster/software/gaussian/gaussian-16-A.03/avx2/g16/l1.exe "/local/scratch/yxie/Gau-8270.inp" -scrdir="/local/scratch/yxie/"
 Entering Link 1 = /cluster/software/gaussian/gaussian-16-A.03/avx2/g16/l1.exe PID=      8272.
  
 Copyright (c) 1988,1990,1992,1993,1995,1998,2003,2009,2016,
            Gaussian, Inc.  All Rights Reserved.
  
 This is part of the Gaussian(R) 16 program.  It is based on
 the Gaussian(R) 09 system (copyright 2009, Gaussian, Inc.),
 the Gaussian(R) 03 system (copyright 2003, Gaussian, Inc.),
 the Gaussian(R) 98 system (copyright 1998, Gaussian, Inc.),
 the Gaussian(R) 94 system (copyright 1995, Gaussian, Inc.),
 the Gaussian 92(TM) system (copyright 1992, Gaussian, Inc.),
 the Gaussian 90(TM) system (copyright 1990, Gaussian, Inc.),
 the Gaussian 88(TM) system (copyright 1988, Gaussian, Inc.),
 the Gaussian 86(TM) system (copyright 1986, Carnegie Mellon
 University), and the Gaussian 82(TM) system (copyright 1983,
 Carnegie Mellon University). Gaussian is a federally registered
 trademark of Gaussian, Inc.
  
 This software contains proprietary and confidential information,
 including trade secrets, belonging to Gaussian, Inc.
  
 This software is provided under written license and may be
 used, copied, transmitted, or stored only in accord with that
 written license.
  
 The following legend is applicable only to US Government
 contracts under FAR:
  
                    RESTRICTED RIGHTS LEGEND
  
 Use, reproduction and disclosure by the US Government is
 subject to restrictions as set forth in subparagraphs (a)
 and (c) of the Commercial Computer Software - Restricted
 Rights clause in FAR 52.227-19.
  
 Gaussian, Inc.
 340 Quinnipiac St., Bldg. 40, Wallingford CT 06492
  
  
 ---------------------------------------------------------------
 Warning -- This program may not be used in any manner that
 competes with the business of Gaussian, Inc. or will provide
 assistance to any competitor of Gaussian, Inc.  The licensee
 of this program is prohibited from giving any competitor of
 Gaussian, Inc. access to this program.  By using this program,
 the user acknowledges that Gaussian, Inc. is engaged in the
 business of creating and licensing software in the field of
 computational chemistry and represents and warrants to the
 licensee that it is not a competitor of Gaussian, Inc. and that
 it will not use this program in any manner prohibited above.
 ---------------------------------------------------------------
  

 Cite this work as:
 Gaussian 16, Revision A.03,
 M. J. Frisch, G. W. Trucks, H. B. Schlegel, G. E. Scuseria, 
 M. A. Robb, J. R. Cheeseman, G. Scalmani, V. Barone, 
 G. A. Petersson, H. Nakatsuji, X. Li, M. Caricato, A. V. Marenich, 
 J. Bloino, B. G. Janesko, R. Gomperts, B. Mennucci, H. P. Hratchian, 
 J. V. Ortiz, A. F. Izmaylov, J. L. Sonnenberg, D. Williams-Young, 
 F. Ding, F. Lipparini, F. Egidi, J. Goings, B. Peng, A. Petrone, 
 T. Henderson, D. Ranasinghe, V. G. Zakrzewski, J. Gao, N. Rega, 
 G. Zheng, W. Liang, M. Hada, M. Ehara, K. Toyota, R. Fukuda, 
 J. Hasegawa, M. Ishida, T. Nakajima, Y. Honda, O. Kitao, H. Nakai, 
 T. Vreven, K. Throssell, J. A. Montgomery, Jr., J. E. Peralta, 
 F. Ogliaro, M. J. Bearpark, J. J. Heyd, E. N. Brothers, K. N. Kudin, 
 V. N. Staroverov, T. A. Keith, R. Kobayashi, J. Normand, 
 K. Raghavachari, A. P. Rendell, J. C. Burant, S. S. Iyengar, 
 J. Tomasi, M. Cossi, J. M. Millam, M. Klene, C. Adamo, R. Cammi, 
 J. W. Ochterski, R. L. Martin, K. Morokuma, O. Farkas, 
 J. B. Foresman, and D. J. Fox, Gaussian, Inc., Wallingford CT, 2016.
 
 ******************************************
 Gaussian 16:  ES64L-G16RevA.03 25-Dec-2016
                19-May-2023 
 ******************************************
 %chk=NC1dCC2dCNdCqOrCqdCdCCdC1rNCdCCdC2.chk
 %NProcShared=20
 Will use up to   20 processors via shared memory.
 -----------------------------
 # opt freq b3lyp/6-31g(2df,p)
 -----------------------------
 1/18=20,19=15,26=3,38=1/1,3;
 2/9=110,12=2,17=6,18=5,40=1/2;
 3/5=1,6=6,7=104,11=2,25=1,30=1,71=1,74=-5/1,2,3;
 4//1;
 5/5=2,38=5/2;
 6/7=2,8=2,9=2,10=2,28=1/1;
 7//1,2,3,16;
 1/18=20,19=15,26=3/3(2);
 2/9=110/2;
 99//99;
 2/9=110/2;
 3/5=1,6=6,7=104,11=2,25=1,30=1,71=1,74=-5/1,2,3;
 4/5=5,16=3,69=1/1;
 5/5=2,38=5/2;
 7//1,2,3,16;
 1/18=20,19=15,26=3/3(-5);
 2/9=110/2;
 6/7=2,8=2,9=2,10=2,19=2,28=1/1;
 99/9=1/99;
 -------------------
 Title Card Required
 -------------------
 Symbolic Z-matrix:
 Charge =  0 Multiplicity = 1
 N                     1.78386  -0.08704  -0.06001 
 C                     3.66653   0.03906  -0.13942 
 C                     4.42168   1.27661  -0.35941 
 C                     6.30484   1.79274  -0.17701 
 C                     5.52482   2.59412  -0.89587 
 N                     6.57232   2.54159  -1.56437 
 C                     7.25913   3.49029  -1.89478 
 O                     6.65634   4.64025  -1.98816 
 C                     8.56514   2.98845  -2.28602 
 C                     9.10904   1.5573   -1.72755 
 C                     8.97475   0.38042  -0.71142 
 C                     7.24026  -0.52997  -0.34338 
 C                     5.45765  -0.74564  -0.10068 
 N                     9.194     4.25753  -2.36088 
 C                     10.46919   3.85931  -2.34522 
 C                     10.99323   4.72545  -1.54847 
 C                     9.81192   3.50893  -0.42958 
 C                     8.29533   2.64404  -0.05561 
 H                     0.89415   0.69262  -0.3241 
 H                     0.87441  -0.79791   0.28948 
 H                     3.19159   1.83372  -0.72877 
 H                     4.60615   2.9821   -1.36808 
 H                     5.71851   4.40297  -1.88933 
 H                     10.21229   0.62451  -0.02977 
 H                     8.38012  -1.16711  -0.5494 
 H                     4.4466   -1.56499   0.29663 
 H                     8.9112    5.32593  -2.33907 
 H                     11.25684   2.88749  -1.80896 
 H                     11.15021   5.82133  -2.40539 
 H                     11.32234   3.93358  -0.64824 
 H                     7.84116   1.41729   0.20734 
 
 Add virtual bond connecting atoms H20        and N1         Dist= 2.28D+00.
 Add virtual bond connecting atoms H19        and N1         Dist= 2.29D+00.
 Add virtual bond connecting atoms H25        and C12        Dist= 2.50D+00.
 Add virtual bond connecting atoms H31        and C18        Dist= 2.52D+00.
 Add virtual bond connecting atoms H26        and C13        Dist= 2.57D+00.
 Add virtual bond connecting atoms H28        and C15        Dist= 2.57D+00.
 Add virtual bond connecting atoms H29        and C16        Dist= 2.65D+00.
 Add virtual bond connecting atoms H21        and C3         Dist= 2.65D+00.
 Add virtual bond connecting atoms H24        and C11        Dist= 2.71D+00.
 Add virtual bond connecting atoms C4         and H31        Dist= 3.08D+00.
 Add virtual bond connecting atoms H30        and C17        Dist= 2.99D+00.
 Add virtual bond connecting atoms H25        and C11        Dist= 3.15D+00.
 Add virtual bond connecting atoms C2         and N1         Dist= 3.57D+00.

 GradGradGradGradGradGradGradGradGradGradGradGradGradGradGradGradGradGrad
 Berny optimization.
 Initialization pass.
                           ----------------------------
                           !    Initial Parameters    !
                           ! (Angstroms and Degrees)  !
 --------------------------                            --------------------------
 ! Name  Definition              Value          Derivative Info.                !
 --------------------------------------------------------------------------------
 ! R1    R(1,2)                  1.8886         estimate D2E/DX2                !
 ! R2    R(1,19)                 1.2121         estimate D2E/DX2                !
 ! R3    R(1,20)                 1.2061         estimate D2E/DX2                !
 ! R4    R(2,3)                  1.4663         estimate D2E/DX2                !
 ! R5    R(3,5)                  1.8001         estimate D2E/DX2                !
 ! R6    R(3,21)                 1.4            estimate D2E/DX2                !
 ! R7    R(4,5)                  1.3294         estimate D2E/DX2                !
 ! R8    R(4,6)                  1.5991         estimate D2E/DX2                !
 ! R9    R(4,31)                 1.6276         estimate D2E/DX2                !
 ! R10   R(5,6)                  1.2437         estimate D2E/DX2                !
 ! R11   R(5,22)                 1.1034         estimate D2E/DX2                !
 ! R12   R(6,7)                  1.2169         estimate D2E/DX2                !
 ! R13   R(7,8)                  1.3017         estimate D2E/DX2                !
 ! R14   R(7,9)                  1.4528         estimate D2E/DX2                !
 ! R15   R(8,23)                 0.9724         estimate D2E/DX2                !
 ! R16   R(9,10)                 1.6297         estimate D2E/DX2                !
 ! R17   R(9,14)                 1.4183         estimate D2E/DX2                !
 ! R18   R(10,11)                1.5606         estimate D2E/DX2                !
 ! R19   R(11,24)                1.4338         estimate D2E/DX2                !
 ! R20   R(11,25)                1.6657         estimate D2E/DX2                !
 ! R21   R(12,13)                1.8119         estimate D2E/DX2                !
 ! R22   R(12,25)                1.322          estimate D2E/DX2                !
 ! R23   R(13,26)                1.3607         estimate D2E/DX2                !
 ! R24   R(14,15)                1.336          estimate D2E/DX2                !
 ! R25   R(14,27)                1.1054         estimate D2E/DX2                !
 ! R26   R(15,16)                1.2883         estimate D2E/DX2                !
 ! R27   R(15,28)                1.361          estimate D2E/DX2                !
 ! R28   R(16,29)                1.4            estimate D2E/DX2                !
 ! R29   R(16,30)                1.2433         estimate D2E/DX2                !
 ! R30   R(17,18)                1.7855         estimate D2E/DX2                !
 ! R31   R(17,30)                1.5841         estimate D2E/DX2                !
 ! R32   R(18,31)                1.3343         estimate D2E/DX2                !
 ! A1    A(2,1,19)             132.8141         estimate D2E/DX2                !
 ! A2    A(2,1,20)             143.4422         estimate D2E/DX2                !
 ! A3    A(19,1,20)             83.6134         estimate D2E/DX2                !
 ! A4    A(1,2,3)              125.1726         estimate D2E/DX2                !
 ! A5    A(2,3,21)              85.5803         estimate D2E/DX2                !
 ! A6    A(5,3,21)              99.7045         estimate D2E/DX2                !
 ! A7    A(5,4,31)             145.1432         estimate D2E/DX2                !
 ! A8    A(6,4,31)              98.9178         estimate D2E/DX2                !
 ! A9    A(3,5,4)               75.9499         estimate D2E/DX2                !
 ! A10   A(3,5,6)              130.1939         estimate D2E/DX2                !
 ! A11   A(3,5,22)              82.8004         estimate D2E/DX2                !
 ! A12   A(4,5,22)             158.7291         estimate D2E/DX2                !
 ! A13   A(6,5,22)             119.0809         estimate D2E/DX2                !
 ! A14   A(4,6,7)              134.0308         estimate D2E/DX2                !
 ! A15   A(5,6,7)              126.0391         estimate D2E/DX2                !
 ! A16   A(6,7,8)              116.5403         estimate D2E/DX2                !
 ! A17   A(6,7,9)              108.1307         estimate D2E/DX2                !
 ! A18   A(8,7,9)              134.5981         estimate D2E/DX2                !
 ! A19   A(7,8,23)             102.9292         estimate D2E/DX2                !
 ! A20   A(7,9,10)             120.7364         estimate D2E/DX2                !
 ! A21   A(7,9,14)              95.9533         estimate D2E/DX2                !
 ! A22   A(10,9,14)            130.9862         estimate D2E/DX2                !
 ! A23   A(9,10,11)            148.9404         estimate D2E/DX2                !
 ! A24   A(10,11,24)            96.1364         estimate D2E/DX2                !
 ! A25   A(10,11,25)           142.6206         estimate D2E/DX2                !
 ! A26   A(24,11,25)           114.8368         estimate D2E/DX2                !
 ! A27   A(13,12,25)           144.2702         estimate D2E/DX2                !
 ! A28   A(12,13,26)           147.3322         estimate D2E/DX2                !
 ! A29   A(9,14,15)             98.9677         estimate D2E/DX2                !
 ! A30   A(9,14,27)            138.6203         estimate D2E/DX2                !
 ! A31   A(15,14,27)           122.1434         estimate D2E/DX2                !
 ! A32   A(14,15,16)           101.2512         estimate D2E/DX2                !
 ! A33   A(14,15,28)           140.3374         estimate D2E/DX2                !
 ! A34   A(16,15,28)            90.0558         estimate D2E/DX2                !
 ! A35   A(15,16,29)           101.1479         estimate D2E/DX2                !
 ! A36   A(15,16,30)            97.3121         estimate D2E/DX2                !
 ! A37   A(29,16,30)           155.7955         estimate D2E/DX2                !
 ! A38   A(17,18,31)           140.874          estimate D2E/DX2                !
 ! A39   A(11,25,12)            82.8309         estimate D2E/DX2                !
 ! A40   A(16,30,17)            91.0478         estimate D2E/DX2                !
 ! A41   A(4,31,18)             93.5932         estimate D2E/DX2                !
 ! A42   L(2,3,5,21,-1)        185.2849         estimate D2E/DX2                !
 ! A43   L(18,17,30,14,-1)     189.6688         estimate D2E/DX2                !
 ! A44   L(2,3,5,21,-2)        190.9102         estimate D2E/DX2                !
 ! A45   L(18,17,30,14,-2)     190.6722         estimate D2E/DX2                !
 ! D1    D(19,1,2,3)            10.7884         estimate D2E/DX2                !
 ! D2    D(20,1,2,3)          -163.3821         estimate D2E/DX2                !
 ! D3    D(2,1,19,20)         -176.51           estimate D2E/DX2                !
 ! D4    D(1,2,3,21)           -13.0757         estimate D2E/DX2                !
 ! D5    D(1,2,5,4)            157.3085         estimate D2E/DX2                !
 ! D6    D(1,2,5,6)           -141.5002         estimate D2E/DX2                !
 ! D7    D(1,2,5,22)           -19.7666         estimate D2E/DX2                !
 ! D8    D(21,3,5,4)           169.1145         estimate D2E/DX2                !
 ! D9    D(21,3,5,6)          -132.2475         estimate D2E/DX2                !
 ! D10   D(21,3,5,22)           -9.9291         estimate D2E/DX2                !
 ! D11   D(31,4,5,3)           166.2128         estimate D2E/DX2                !
 ! D12   D(31,4,5,22)          168.8292         estimate D2E/DX2                !
 ! D13   D(31,4,6,7)           -56.0633         estimate D2E/DX2                !
 ! D14   D(5,4,31,18)           26.0424         estimate D2E/DX2                !
 ! D15   D(6,4,31,18)           47.3365         estimate D2E/DX2                !
 ! D16   D(3,5,6,7)            179.4083         estimate D2E/DX2                !
 ! D17   D(22,5,6,7)            73.0197         estimate D2E/DX2                !
 ! D18   D(4,6,7,8)            -97.856          estimate D2E/DX2                !
 ! D19   D(4,6,7,9)             90.5001         estimate D2E/DX2                !
 ! D20   D(5,6,7,8)            -25.7366         estimate D2E/DX2                !
 ! D21   D(5,6,7,9)            162.6195         estimate D2E/DX2                !
 ! D22   D(6,7,8,23)            -8.6134         estimate D2E/DX2                !
 ! D23   D(9,7,8,23)           160.2026         estimate D2E/DX2                !
 ! D24   D(6,7,9,10)           -23.6339         estimate D2E/DX2                !
 ! D25   D(6,7,9,14)          -169.6517         estimate D2E/DX2                !
 ! D26   D(8,7,9,10)           166.8866         estimate D2E/DX2                !
 ! D27   D(8,7,9,14)            20.8688         estimate D2E/DX2                !
 ! D28   D(7,9,10,11)          -14.1388         estimate D2E/DX2                !
 ! D29   D(14,9,10,11)         118.4315         estimate D2E/DX2                !
 ! D30   D(7,9,14,15)          163.4368         estimate D2E/DX2                !
 ! D31   D(7,9,14,27)          -10.2475         estimate D2E/DX2                !
 ! D32   D(10,9,14,15)          22.9629         estimate D2E/DX2                !
 ! D33   D(10,9,14,27)        -150.7214         estimate D2E/DX2                !
 ! D34   D(9,10,11,24)        -114.1549         estimate D2E/DX2                !
 ! D35   D(9,10,11,25)          99.0628         estimate D2E/DX2                !
 ! D36   D(10,11,25,12)        -81.5404         estimate D2E/DX2                !
 ! D37   D(24,11,25,12)        135.3436         estimate D2E/DX2                !
 ! D38   D(25,12,13,26)         24.247          estimate D2E/DX2                !
 ! D39   D(13,12,25,11)        173.8992         estimate D2E/DX2                !
 ! D40   D(9,14,15,16)        -137.906          estimate D2E/DX2                !
 ! D41   D(9,14,15,28)         -33.9314         estimate D2E/DX2                !
 ! D42   D(27,14,15,16)         37.1672         estimate D2E/DX2                !
 ! D43   D(27,14,15,28)        141.1417         estimate D2E/DX2                !
 ! D44   D(14,15,16,29)        -79.7522         estimate D2E/DX2                !
 ! D45   D(14,15,16,30)        115.9805         estimate D2E/DX2                !
 ! D46   D(28,15,16,29)        138.5183         estimate D2E/DX2                !
 ! D47   D(28,15,16,30)        -25.749          estimate D2E/DX2                !
 ! D48   D(15,16,30,17)        -60.7189         estimate D2E/DX2                !
 ! D49   D(29,16,30,17)        159.7376         estimate D2E/DX2                !
 ! D50   D(31,18,30,16)        140.0828         estimate D2E/DX2                !
 ! D51   D(17,18,31,4)        -160.0408         estimate D2E/DX2                !
 --------------------------------------------------------------------------------
 Trust Radius=3.00D-01 FncErr=1.00D-07 GrdErr=1.00D-06 EigMax=2.50D+02 EigMin=1.00D-04
 Number of steps in this run=    138 maximum allowed number of steps=    186.
 GradGradGradGradGradGradGradGradGradGradGradGradGradGradGradGradGradGrad

                          Input orientation:                          
 ---------------------------------------------------------------------
 Center     Atomic      Atomic             Coordinates (Angstroms)
 Number     Number       Type             X           Y           Z
 ---------------------------------------------------------------------
      1          7           0        1.783860   -0.087040   -0.060010
      2          6           0        3.666530    0.039060   -0.139420
      3          6           0        4.421680    1.276610   -0.359410
      4          6           0        6.304840    1.792740   -0.177010
      5          6           0        5.524820    2.594120   -0.895870
      6          7           0        6.572320    2.541590   -1.564370
      7          6           0        7.259130    3.490290   -1.894780
      8          8           0        6.656340    4.640250   -1.988160
      9          6           0        8.565140    2.988450   -2.286020
     10          6           0        9.109040    1.557300   -1.727550
     11          6           0        8.974750    0.380420   -0.711420
     12          6           0        7.240260   -0.529970   -0.343380
     13          6           0        5.457650   -0.745640   -0.100680
     14          7           0        9.194000    4.257530   -2.360880
     15          6           0       10.469190    3.859310   -2.345220
     16          6           0       10.993230    4.725450   -1.548470
     17          6           0        9.811920    3.508930   -0.429580
     18          6           0        8.295330    2.644040   -0.055610
     19          1           0        0.894150    0.692620   -0.324100
     20          1           0        0.874410   -0.797910    0.289480
     21          1           0        3.191590    1.833720   -0.728770
     22          1           0        4.606150    2.982100   -1.368080
     23          1           0        5.718510    4.402970   -1.889330
     24          1           0       10.212290    0.624510   -0.029770
     25          1           0        8.380120   -1.167110   -0.549400
     26          1           0        4.446600   -1.564990    0.296630
     27          1           0        8.911200    5.325930   -2.339070
     28          1           0       11.256840    2.887490   -1.808960
     29          1           0       11.150210    5.821330   -2.405390
     30          1           0       11.322340    3.933580   -0.648240
     31          1           0        7.841160    1.417290    0.207340
 ---------------------------------------------------------------------
                    Distance matrix (angstroms):
                    1          2          3          4          5
     1  N    0.000000
     2  C    1.888559   0.000000
     3  C    2.984506   1.466348   0.000000
     4  C    4.897604   3.168199   1.961110   0.000000
     5  C    4.677827   3.248660   1.800150   1.329436   0.000000
     6  N    5.665875   4.091058   2.770804   1.599090   1.243748
     7  C    6.792809   5.281955   3.912654   2.596744   2.192891
     8  O    7.057343   5.790315   4.354378   3.392953   2.580714
     9  C    7.771713   6.107632   4.879599   3.314604   3.366238
    10  C    7.690436   5.869252   4.891006   3.212965   3.822737
    11  C    7.235451   5.349851   4.653763   3.067354   4.103231
    12  C    5.481677   3.624492   3.347892   2.509516   3.606649
    13  C    3.732578   1.955854   2.286847   2.677112   3.433779
    14  N    8.892664   7.299541   5.972169   4.380836   4.286732
    15  C    9.809731   8.107777   6.869218   5.129684   5.305480
    16  C   10.497050   8.810687   7.516224   5.697604   5.905249
    17  C    8.804393   7.063286   5.834626   3.912635   4.408348
    18  C    7.061024   5.312131   4.119141   2.168294   2.895558
    19  H    1.212104   2.854354   3.575718   5.523356   5.038425
    20  H    1.206059   2.946253   4.160266   6.034787   5.876839
    21  H    2.473512   1.947744   1.399971   3.162032   2.459694
    22  H    4.369896   3.324752   1.990010   2.391396   1.103388
    23  H    6.244043   5.129963   3.714371   3.176338   2.072780
    24  H    8.458466   6.572804   5.836528   4.081006   5.157700
    25  H    6.701992   4.882710   4.655868   3.634030   4.734937
    26  H    3.066221   1.836199   2.916453   3.866748   4.459015
    27  H    9.235439   7.765051   6.361748   4.893981   4.584014
    28  H   10.081865   8.277302   7.170463   5.327668   5.811700
    29  H   11.319813   9.724954   8.373388   6.683773   6.658720
    30  H   10.367931   8.604511   7.400137   5.475451   5.955394
    31  H    6.247029   4.409909   3.468983   1.627565   2.822664
                    6          7          8          9         10
     6  N    0.000000
     7  C    1.216927   0.000000
     8  O    2.142669   1.301723   0.000000
     9  C    2.166055   1.452782   2.541787   0.000000
    10  C    2.725877   2.680780   3.948194   1.629695   0.000000
    11  C    3.342132   3.743659   5.015101   3.073917   1.560641
    12  C    3.372157   4.309256   5.456871   4.231836   3.124894
    13  C    3.767062   4.940367   5.831574   5.326878   4.613338
    14  N    3.232968   2.132986   2.593282   1.418320   2.774809
    15  C    4.187088   3.262446   3.908348   2.094590   2.744226
    16  C    4.930917   3.948298   4.359954   3.075186   3.690449
    17  C    3.566301   2.943450   3.696856   2.296025   2.446963
    18  C    2.292513   2.274290   3.225816   2.272915   2.153720
    19  H    6.099063   7.127900   7.180231   8.244031   8.378649
    20  H    6.859679   7.995267   8.257841   8.950813   8.799122
    21  H    3.553680   4.544082   4.633267   5.712571   6.007511
    22  H    2.024451   2.752085   2.708734   4.064020   4.736591
    23  H    2.073482   1.790677   0.972417   3.203363   4.429414
    24  H    4.390851   4.517976   5.710187   3.659505   2.229286
    25  H    4.248854   4.975745   6.226305   4.507634   3.056431
    26  H    4.984577   6.186151   6.971960   6.660801   5.965262
    27  H    3.717939   2.509244   2.382790   2.363553   3.823045
    28  H    4.703637   4.043812   4.926346   2.735512   2.527663
    29  H    5.693952   4.564534   4.665179   3.836932   4.775751
    30  H    5.033847   4.273177   4.905744   3.343314   3.422034
    31  H    2.452134   3.009152   4.075720   3.034722   2.317525
                   11         12         13         14         15
    11  C    0.000000
    12  C    1.993168   0.000000
    13  C    3.743128   1.811937   0.000000
    14  N    4.219096   5.550456   6.640823   0.000000
    15  C    4.123752   5.805095   7.166523   1.336014   0.000000
    16  C    4.863558   6.569358   7.916538   2.028839   1.288265
    17  C    3.250825   4.788902   6.096656   2.161515   2.055346
    18  C    2.452687   3.357130   4.420904   2.953850   3.383026
    19  H    8.095899   6.462833   4.789994   9.259836  10.285633
    20  H    8.246561   6.402839   4.600114  10.089473  10.985952
    21  H    5.962996   4.703965   3.490361   6.675894   7.725244
    22  H    5.126852   4.508124   4.028325   4.864231   6.008289
    23  H    5.307681   5.388839   5.456693   3.510348   4.803370
    24  H    1.433782   3.203769   4.948630   4.435067   3.986381
    25  H    1.665738   1.321996   2.986606   5.776727   5.731848
    26  H    5.030400   3.047198   1.360666   7.968808   8.524904
    27  H    5.206856   6.408306   7.334941   1.105409   2.139707
    28  H    3.563415   5.473561   7.053259   2.537111   1.361030
    29  H    6.099644   7.738127   8.991219   2.504837   2.077723
    30  H    4.259122   6.056368   7.522600   2.750984   1.900821
    31  H    1.790041   2.110970   3.233305   4.061144   4.402904
                   16         17         18         19         20
    16  C    0.000000
    17  C    2.031583   0.000000
    18  C    3.720156   1.785479   0.000000
    19  H   10.943227   9.352505   7.658824   0.000000
    20  H   11.673735   9.947110   8.187561   1.612002   0.000000
    21  H    8.360598   6.835540   5.211327   2.596940   3.651251
    22  H    6.623187   5.315861   3.930256   4.484480   5.564339
    23  H    5.295550   4.436911   3.618890   6.284194   7.433819
    24  H    4.442300   2.939392   2.784583   9.323036   9.450989
    25  H    6.522940   4.891805   3.843941   7.716807   7.561462
    26  H    9.264577   7.420155   5.714257   4.254646   3.653629
    27  H    2.306615   2.785487   3.575754   9.476326  10.440339
    28  H    1.874951   2.092049   3.450224  10.696149  11.215190
    29  H    1.399967   3.322956   4.875139  11.654278  12.516738
    30  H    1.243296   1.584143   3.343189  10.925019  11.507630
    31  H    4.895134   2.943556   1.334290   7.004893   7.310914
                   21         22         23         24         25
    21  H    0.000000
    22  H    1.930926   0.000000
    23  H    3.785931   1.878275   0.000000
    24  H    7.158283   6.227207   6.158635   0.000000
    25  H    5.996499   5.668248   6.317070   2.614721   0.000000
    26  H    3.765332   4.844868   6.481722   6.176053   4.043100
    27  H    6.892208   4.996981   3.353713   5.397134   6.756074
    28  H    8.205212   6.665959   5.742494   3.062300   5.128527
    29  H    9.058240   7.208464   5.637502   5.790527   7.743151
    30  H    8.397916   6.821341   5.758780   3.544666   5.889267
    31  H    4.761115   3.923757   4.220895   2.511370   2.746317
                   26         27         28         29         30
    26  H    0.000000
    27  H    8.623476   0.000000
    28  H    8.404609   3.424768   0.000000
    29  H   10.334264   2.294120   2.995750   0.000000
    30  H    8.854538   3.257475   1.563926   2.584725   0.000000
    31  H    4.519403   4.786090   4.230109   6.096863   4.379766
                   31
    31  H    0.000000
 Stoichiometry    C14H13N3O
 Framework group  C1[X(C14H13N3O)]
 Deg. of freedom    87
 Full point group                 C1      NOp   1
 Largest Abelian subgroup         C1      NOp   1
 Largest concise Abelian subgroup C1      NOp   1
                         Standard orientation:                         
 ---------------------------------------------------------------------
 Center     Atomic      Atomic             Coordinates (Angstroms)
 Number     Number       Type             X           Y           Z
 ---------------------------------------------------------------------
      1          7           0        5.863253   -0.804017   -0.017956
      2          6           0        4.198610    0.087471    0.011491
      3          6           0        2.901767   -0.552677    0.253536
      4          6           0        1.098040    0.099451    0.662496
      5          6           0        1.205627   -1.155485    0.237102
      6          7           0        0.209081   -0.731831   -0.374717
      7          6           0       -0.909963   -1.208559   -0.337559
      8          8           0       -0.993216   -2.475505   -0.050507
      9          6           0       -1.842703   -0.211872   -0.834738
     10          6           0       -1.472382    1.374361   -0.783422
     11          6           0       -0.561040    2.517452   -0.237162
     12          6           0        1.429090    2.409790   -0.259681
     13          6           0        3.088308    1.688110   -0.163294
     14          7           0       -3.018343   -0.905596   -0.449706
     15          6           0       -3.891027    0.102796   -0.530338
     16          6           0       -4.594957   -0.088475    0.531512
     17          6           0       -2.760669    0.550491    1.126861
     18          6           0       -0.975375    0.525490    1.132541
     19          1           0        6.169632   -1.976724   -0.027371
     20          1           0        7.055652   -0.631600    0.037135
     21          1           0        3.583168   -1.759898    0.058013
     22          1           0        1.687175   -2.088208   -0.102904
     23          1           0       -0.064871   -2.764321   -0.069330
     24          1           0       -1.581003    3.174971    0.526433
     25          1           0        0.742415    3.475392   -0.634705
     26          1           0        4.430199    1.905356   -0.103771
     27          1           0       -3.306308   -1.903817   -0.072133
     28          1           0       -3.958781    1.447965   -0.334556
     29          1           0       -5.451689   -1.111362    0.107696
     30          1           0       -4.289435    0.965538    1.115891
     31          1           0        0.071697    1.330793    0.944248
 ---------------------------------------------------------------------
 Rotational constants (GHZ):           1.0113779           0.2526070           0.2142612
 Standard basis: 6-31G(2df,p) (6D, 7F)
 There are   623 symmetry adapted cartesian basis functions of A   symmetry.
 There are   569 symmetry adapted basis functions of A   symmetry.
   569 basis functions,   883 primitive gaussians,   623 cartesian basis functions
    63 alpha electrons       63 beta electrons
       nuclear repulsion energy      1221.6485195724 Hartrees.
 NAtoms=   31 NActive=   31 NUniq=   31 SFac= 1.00D+00 NAtFMM=   60 NAOKFM=F Big=F
 Integral buffers will be    131072 words long.
 Raffenetti 2 integral format.
 Two-electron integral symmetry is turned on.
 One-electron integrals computed using PRISM.
 PrsmSu:  requested number of processors reduced to:  12 ShMem   1 Linda.
 NBasis=   569 RedAO= T EigKep=  1.48D-04  NBF=   569
 NBsUse=   569 1.00D-06 EigRej= -1.00D+00 NBFU=   569
 ExpMin= 1.61D-01 ExpMax= 5.48D+03 ExpMxC= 8.25D+02 IAcc=3 IRadAn=         5 AccDes= 0.00D+00
 Harris functional with IExCor=  402 and IRadAn=       5 diagonalized for initial guess.
 HarFok:  IExCor=  402 AccDes= 0.00D+00 IRadAn=         5 IDoV= 1 UseB2=F ITyADJ=14
 ICtDFT=  3500011 ScaDFX=  1.000000  1.000000  1.000000  1.000000
 FoFCou: FMM=F IPFlag=           0 FMFlag=      100000 FMFlg1=           0
         NFxFlg=           0 DoJE=T BraDBF=F KetDBF=T FulRan=T
         wScrn=  0.000000 ICntrl=       500 IOpCl=  0 I1Cent=   200000004 NGrid=           0
         NMat0=    1 NMatS0=      1 NMatT0=    0 NMatD0=    1 NMtDS0=    0 NMtDT0=    0
 Petite list used in FoFCou.
 Requested convergence on RMS density matrix=1.00D-08 within 128 cycles.
 Requested convergence on MAX density matrix=1.00D-06.
 Requested convergence on             energy=1.00D-06.
 No special actions if energy rises.
 Integral accuracy reduced to 1.0D-05 until final iterations.
 EnCoef did     9 forward-backward iterations
 EnCoef did   100 forward-backward iterations
 EnCoef did   100 forward-backward iterations
 EnCoef did     7 forward-backward iterations
 EnCoef did     6 forward-backward iterations
 EnCoef did     4 forward-backward iterations
 Initial convergence to 2.4D-05 achieved.  Increase integral accuracy.
 SCF Done:  E(RB3LYP) =  -778.530915002     A.U. after   39 cycles
            NFock= 39  Conv=0.46D-08     -V/T= 2.0082

 **********************************************************************

            Population analysis using the SCF density.

 **********************************************************************

 Orbital symmetries:
       Occupied  (A) (A) (A) (A) (A) (A) (A) (A) (A) (A) (A) (A)
                 (A) (A) (A) (A) (A) (A) (A) (A) (A) (A) (A) (A)
                 (A) (A) (A) (A) (A) (A) (A) (A) (A) (A) (A) (A)
                 (A) (A) (A) (A) (A) (A) (A) (A) (A) (A) (A) (A)
                 (A) (A) (A) (A) (A) (A) (A) (A) (A) (A) (A) (A)
                 (A) (A) (A)
       Virtual   (A) (A) (A) (A) (A) (A) (A) (A) (A) (A) (A) (A)
                 (A) (A) (A) (A) (A) (A) (A) (A) (A) (A) (A) (A)
                 (A) (A) (A) (A) (A) (A) (A) (A) (A) (A) (A) (A)
                 (A) (A) (A) (A) (A) (A) (A) (A) (A) (A) (A) (A)
                 (A) (A) (A) (A) (A) (A) (A) (A) (A) (A) (A) (A)
                 (A) (A) (A) (A) (A) (A) (A) (A) (A) (A) (A) (A)
                 (A) (A) (A) (A) (A) (A) (A) (A) (A) (A) (A) (A)
                 (A) (A) (A) (A) (A) (A) (A) (A) (A) (A) (A) (A)
                 (A) (A) (A) (A) (A) (A) (A) (A) (A) (A) (A) (A)
                 (A) (A) (A) (A) (A) (A) (A) (A) (A) (A) (A) (A)
                 (A) (A) (A) (A) (A) (A) (A) (A) (A) (A) (A) (A)
                 (A) (A) (A) (A) (A) (A) (A) (A) (A) (A) (A) (A)
                 (A) (A) (A) (A) (A) (A) (A) (A) (A) (A) (A) (A)
                 (A) (A) (A) (A) (A) (A) (A) (A) (A) (A) (A) (A)
                 (A) (A) (A) (A) (A) (A) (A) (A) (A) (A) (A) (A)
                 (A) (A) (A) (A) (A) (A) (A) (A) (A) (A) (A) (A)
                 (A) (A) (A) (A) (A) (A) (A) (A) (A) (A) (A) (A)
                 (A) (A) (A) (A) (A) (A) (A) (A) (A) (A) (A) (A)
                 (A) (A) (A) (A) (A) (A) (A) (A) (A) (A) (A) (A)
                 (A) (A) (A) (A) (A) (A) (A) (A) (A) (A) (A) (A)
                 (A) (A) (A) (A) (A) (A) (A) (A) (A) (A) (A) (A)
                 (A) (A) (A) (A) (A) (A) (A) (A) (A) (A) (A) (A)
                 (A) (A) (A) (A) (A) (A) (A) (A) (A) (A) (A) (A)
                 (A) (A) (A) (A) (A) (A) (A) (A) (A) (A) (A) (A)
                 (A) (A) (A) (A) (A) (A) (A) (A) (A) (A) (A) (A)
                 (A) (A) (A) (A) (A) (A) (A) (A) (A) (A) (A) (A)
                 (A) (A) (A) (A) (A) (A) (A) (A) (A) (A) (A) (A)
                 (A) (A) (A) (A) (A) (A) (A) (A) (A) (A) (A) (A)
                 (A) (A) (A) (A) (A) (A) (A) (A) (A) (A) (A) (A)
                 (A) (A) (A) (A) (A) (A) (A) (A) (A) (A) (A) (A)
                 (A) (A) (A) (A) (A) (A) (A) (A) (A) (A) (A) (A)
                 (A) (A) (A) (A) (A) (A) (A) (A) (A) (A) (A) (A)
                 (A) (A) (A) (A) (A) (A) (A) (A) (A) (A) (A) (A)
                 (A) (A) (A) (A) (A) (A) (A) (A) (A) (A) (A) (A)
                 (A) (A) (A) (A) (A) (A) (A) (A) (A) (A) (A) (A)
                 (A) (A) (A) (A) (A) (A) (A) (A) (A) (A) (A) (A)
                 (A) (A) (A) (A) (A) (A) (A) (A) (A) (A) (A) (A)
                 (A) (A) (A) (A) (A) (A) (A) (A) (A) (A) (A) (A)
                 (A) (A) (A) (A) (A) (A) (A) (A) (A) (A) (A) (A)
                 (A) (A) (A) (A) (A) (A) (A) (A) (A) (A) (A) (A)
                 (A) (A) (A) (A) (A) (A) (A) (A) (A) (A) (A) (A)
                 (A) (A) (A) (A) (A) (A) (A) (A) (A) (A) (A) (A)
                 (A) (A)
 The electronic state is 1-A.
 Alpha  occ. eigenvalues --  -19.25111 -14.42197 -14.37494 -14.32071 -10.33114
 Alpha  occ. eigenvalues --  -10.30292 -10.28964 -10.28888 -10.28319 -10.28123
 Alpha  occ. eigenvalues --  -10.27213 -10.26736 -10.26090 -10.25126 -10.25000
 Alpha  occ. eigenvalues --  -10.24901 -10.24653 -10.24170  -1.18704  -1.08559
 Alpha  occ. eigenvalues --   -1.04135  -0.89244  -0.83154  -0.78267  -0.74915
 Alpha  occ. eigenvalues --   -0.72250  -0.70664  -0.69060  -0.66296  -0.63850
 Alpha  occ. eigenvalues --   -0.63283  -0.61422  -0.60837  -0.56934  -0.55971
 Alpha  occ. eigenvalues --   -0.53839  -0.52381  -0.51069  -0.50189  -0.46910
 Alpha  occ. eigenvalues --   -0.46171  -0.45246  -0.42320  -0.41468  -0.40478
 Alpha  occ. eigenvalues --   -0.38903  -0.38445  -0.36092  -0.34721  -0.33812
 Alpha  occ. eigenvalues --   -0.32712  -0.31824  -0.29694  -0.28041  -0.26981
 Alpha  occ. eigenvalues --   -0.25495  -0.21930  -0.20972  -0.20366  -0.19000
 Alpha  occ. eigenvalues --   -0.18453  -0.17841  -0.16400
 Alpha virt. eigenvalues --   -0.13366  -0.11479  -0.10011  -0.08301  -0.07270
 Alpha virt. eigenvalues --   -0.06404  -0.05865  -0.04504  -0.04388  -0.02416
 Alpha virt. eigenvalues --   -0.01898  -0.00571   0.00704   0.00836   0.01738
 Alpha virt. eigenvalues --    0.02435   0.03724   0.05379   0.07806   0.08367
 Alpha virt. eigenvalues --    0.10559   0.11636   0.11944   0.13483   0.14852
 Alpha virt. eigenvalues --    0.15698   0.17238   0.18683   0.19570   0.21824
 Alpha virt. eigenvalues --    0.23713   0.24204   0.25429   0.25993   0.28969
 Alpha virt. eigenvalues --    0.31550   0.34483   0.36271   0.37602   0.38172
 Alpha virt. eigenvalues --    0.39293   0.40492   0.40836   0.43069   0.44529
 Alpha virt. eigenvalues --    0.44698   0.45606   0.46166   0.46928   0.47469
 Alpha virt. eigenvalues --    0.48883   0.50626   0.50880   0.51865   0.52852
 Alpha virt. eigenvalues --    0.53129   0.53767   0.55223   0.56366   0.57113
 Alpha virt. eigenvalues --    0.57663   0.57799   0.58324   0.60038   0.60509
 Alpha virt. eigenvalues --    0.60696   0.61527   0.61971   0.62823   0.63209
 Alpha virt. eigenvalues --    0.63958   0.64404   0.64702   0.65253   0.65918
 Alpha virt. eigenvalues --    0.66474   0.67628   0.67845   0.67927   0.68727
 Alpha virt. eigenvalues --    0.68995   0.69753   0.70409   0.70770   0.71289
 Alpha virt. eigenvalues --    0.71830   0.72275   0.74244   0.74660   0.75406
 Alpha virt. eigenvalues --    0.75991   0.76165   0.76486   0.77455   0.78559
 Alpha virt. eigenvalues --    0.79621   0.79697   0.80130   0.81959   0.82359
 Alpha virt. eigenvalues --    0.82694   0.83518   0.83938   0.84638   0.85866
 Alpha virt. eigenvalues --    0.86293   0.87620   0.87964   0.88122   0.88766
 Alpha virt. eigenvalues --    0.89613   0.90574   0.92076   0.92654   0.93159
 Alpha virt. eigenvalues --    0.93436   0.94720   0.95023   0.96806   0.97302
 Alpha virt. eigenvalues --    0.97896   0.98740   0.99870   1.01599   1.02457
 Alpha virt. eigenvalues --    1.02987   1.04954   1.06250   1.06779   1.07382
 Alpha virt. eigenvalues --    1.09011   1.10013   1.10845   1.11723   1.12582
 Alpha virt. eigenvalues --    1.14054   1.15275   1.15870   1.17114   1.18693
 Alpha virt. eigenvalues --    1.20851   1.21562   1.22430   1.23581   1.24302
 Alpha virt. eigenvalues --    1.26612   1.28164   1.28637   1.29892   1.30661
 Alpha virt. eigenvalues --    1.31758   1.32991   1.34368   1.34779   1.36638
 Alpha virt. eigenvalues --    1.36913   1.38156   1.39386   1.40407   1.41290
 Alpha virt. eigenvalues --    1.42988   1.43966   1.44803   1.45308   1.46106
 Alpha virt. eigenvalues --    1.47002   1.48432   1.49468   1.50186   1.51038
 Alpha virt. eigenvalues --    1.51379   1.52341   1.53980   1.54490   1.55795
 Alpha virt. eigenvalues --    1.56711   1.57276   1.58078   1.59682   1.62490
 Alpha virt. eigenvalues --    1.63475   1.65240   1.66564   1.67072   1.68086
 Alpha virt. eigenvalues --    1.68642   1.71370   1.72172   1.74280   1.75032
 Alpha virt. eigenvalues --    1.75592   1.77399   1.78002   1.78947   1.79745
 Alpha virt. eigenvalues --    1.81817   1.84045   1.85365   1.86069   1.88292
 Alpha virt. eigenvalues --    1.90202   1.91762   1.93231   1.96729   1.98544
 Alpha virt. eigenvalues --    2.00503   2.00751   2.03764   2.05079   2.06906
 Alpha virt. eigenvalues --    2.08417   2.11395   2.11989   2.13585   2.15876
 Alpha virt. eigenvalues --    2.16664   2.17602   2.18907   2.20462   2.21641
 Alpha virt. eigenvalues --    2.22868   2.23936   2.26280   2.26642   2.27932
 Alpha virt. eigenvalues --    2.28415   2.29848   2.30628   2.32691   2.34274
 Alpha virt. eigenvalues --    2.36148   2.37155   2.39020   2.40404   2.42551
 Alpha virt. eigenvalues --    2.43285   2.44037   2.45568   2.46656   2.48764
 Alpha virt. eigenvalues --    2.50543   2.51020   2.52839   2.54696   2.55908
 Alpha virt. eigenvalues --    2.57362   2.58055   2.58455   2.60987   2.62209
 Alpha virt. eigenvalues --    2.63227   2.63961   2.65855   2.67454   2.68703
 Alpha virt. eigenvalues --    2.69972   2.71776   2.72943   2.73572   2.75162
 Alpha virt. eigenvalues --    2.75608   2.77183   2.77336   2.78507   2.80436
 Alpha virt. eigenvalues --    2.80699   2.82404   2.82826   2.84386   2.86045
 Alpha virt. eigenvalues --    2.87173   2.88196   2.89080   2.90988   2.91758
 Alpha virt. eigenvalues --    2.92204   2.93994   2.94828   2.95190   2.95587
 Alpha virt. eigenvalues --    2.95830   2.97296   2.98871   2.99858   3.02362
 Alpha virt. eigenvalues --    3.03338   3.04632   3.05116   3.06302   3.06809
 Alpha virt. eigenvalues --    3.08635   3.09231   3.10451   3.11773   3.11863
 Alpha virt. eigenvalues --    3.13674   3.14412   3.16098   3.16577   3.17208
 Alpha virt. eigenvalues --    3.17968   3.18313   3.20445   3.21744   3.22785
 Alpha virt. eigenvalues --    3.23048   3.23618   3.25880   3.27120   3.29646
 Alpha virt. eigenvalues --    3.30652   3.32558   3.33521   3.34165   3.34710
 Alpha virt. eigenvalues --    3.36187   3.38366   3.39314   3.39809   3.43006
 Alpha virt. eigenvalues --    3.43776   3.45989   3.48462   3.48967   3.49994
 Alpha virt. eigenvalues --    3.51015   3.51826   3.53726   3.55316   3.56560
 Alpha virt. eigenvalues --    3.56980   3.58000   3.59531   3.61765   3.63828
 Alpha virt. eigenvalues --    3.67132   3.68548   3.69132   3.70712   3.71165
 Alpha virt. eigenvalues --    3.71644   3.73138   3.74080   3.74540   3.76786
 Alpha virt. eigenvalues --    3.78379   3.79574   3.81482   3.82948   3.84308
 Alpha virt. eigenvalues --    3.86164   3.86614   3.87966   3.91012   3.91688
 Alpha virt. eigenvalues --    3.92992   3.93986   3.95564   3.96077   3.97834
 Alpha virt. eigenvalues --    3.98720   4.02360   4.02980   4.03751   4.05175
 Alpha virt. eigenvalues --    4.09344   4.10638   4.12044   4.13351   4.14677
 Alpha virt. eigenvalues --    4.15442   4.18243   4.18818   4.20076   4.21655
 Alpha virt. eigenvalues --    4.22716   4.23689   4.24791   4.25282   4.26892
 Alpha virt. eigenvalues --    4.28525   4.29930   4.30913   4.32047   4.33239
 Alpha virt. eigenvalues --    4.35111   4.35411   4.36939   4.37094   4.38562
 Alpha virt. eigenvalues --    4.40774   4.41454   4.42543   4.43043   4.44100
 Alpha virt. eigenvalues --    4.45075   4.45892   4.46590   4.47999   4.48989
 Alpha virt. eigenvalues --    4.50169   4.51793   4.53293   4.53709   4.54451
 Alpha virt. eigenvalues --    4.55885   4.56179   4.56726   4.58090   4.58535
 Alpha virt. eigenvalues --    4.59790   4.61394   4.62763   4.64076   4.65037
 Alpha virt. eigenvalues --    4.65558   4.66049   4.68745   4.69862   4.70821
 Alpha virt. eigenvalues --    4.71962   4.73488   4.74057   4.74863   4.76394
 Alpha virt. eigenvalues --    4.76826   4.78043   4.79515   4.81858   4.83120
 Alpha virt. eigenvalues --    4.83538   4.85862   4.86825   4.87868   4.89231
 Alpha virt. eigenvalues --    4.90664   4.92524   4.94006   4.96066   4.98636
 Alpha virt. eigenvalues --    5.00048   5.01331   5.03482   5.03875   5.05116
 Alpha virt. eigenvalues --    5.07289   5.07921   5.11230   5.13146   5.14134
 Alpha virt. eigenvalues --    5.15716   5.16132   5.19490   5.21108   5.24576
 Alpha virt. eigenvalues --    5.25808   5.27132   5.27972   5.32387   5.33584
 Alpha virt. eigenvalues --    5.35952   5.38073   5.39191   5.42483   5.45146
 Alpha virt. eigenvalues --    5.47472   5.49067   5.51990   5.53239   5.58134
 Alpha virt. eigenvalues --    5.59550   5.62943   5.66388   5.69383   5.72713
 Alpha virt. eigenvalues --    5.77226   5.78301   5.86546   5.98848   6.16761
 Alpha virt. eigenvalues --    6.22405   6.29811   6.52289   6.59169   6.94676
 Alpha virt. eigenvalues --    7.16815   9.85013  10.12641  10.36136  10.62407
 Alpha virt. eigenvalues --   10.81056  10.81953  10.94651  11.17838  11.28119
 Alpha virt. eigenvalues --   11.33552  11.40913  11.42997  11.56382  11.71518
 Alpha virt. eigenvalues --   11.82288  11.94257  12.33707  13.52506  20.31168
 Alpha virt. eigenvalues --   24.97815
          Condensed to atoms (all electrons):
               1          2          3          4          5          6
     1  N    6.934957   0.213135  -0.020684   0.000114   0.000019  -0.000002
     2  C    0.213135   5.483472   0.490592   0.000101  -0.009168  -0.001525
     3  C   -0.020684   0.490592   5.136740   0.068084   0.107518  -0.006501
     4  C    0.000114   0.000101   0.068084   5.755648   0.472309   0.013051
     5  C    0.000019  -0.009168   0.107518   0.472309   5.255023   0.267500
     6  N   -0.000002  -0.001525  -0.006501   0.013051   0.267500   6.285938
     7  C   -0.000000  -0.000067   0.001001  -0.023739  -0.182078   0.508381
     8  O   -0.000000   0.000000   0.000295   0.004322  -0.010254  -0.063609
     9  C    0.000000  -0.000005  -0.000105  -0.005771   0.011482  -0.041697
    10  C    0.000000  -0.000005   0.000174   0.002921  -0.000687  -0.000933
    11  C    0.000000  -0.000030  -0.000125  -0.022730  -0.000301  -0.001997
    12  C   -0.000009  -0.000729  -0.013104   0.005940  -0.003394  -0.001526
    13  C   -0.002399   0.030222   0.040137  -0.046536  -0.002366   0.003634
    14  N   -0.000000  -0.000000   0.000000   0.000181  -0.000913  -0.001188
    15  C    0.000000  -0.000000  -0.000000  -0.000037  -0.000024  -0.000456
    16  C   -0.000000  -0.000000   0.000000  -0.000006   0.000004   0.000064
    17  C   -0.000000   0.000000  -0.000006   0.001818   0.000584  -0.000092
    18  C    0.000000  -0.000040   0.000823  -0.095525   0.003446  -0.070492
    19  H    0.244916  -0.008820  -0.000752  -0.000004   0.000025   0.000000
    20  H    0.264770  -0.005195   0.000688  -0.000001  -0.000000   0.000000
    21  H   -0.007243  -0.117298   0.286442  -0.017662  -0.041921   0.004070
    22  H   -0.000098  -0.000534  -0.013119  -0.005870   0.311521  -0.034835
    23  H    0.000000   0.000039  -0.001228   0.002555   0.026193  -0.014257
    24  H   -0.000000   0.000000  -0.000002   0.000493  -0.000073   0.000082
    25  H    0.000000  -0.000016   0.000367   0.002575   0.000011   0.000154
    26  H   -0.001507  -0.031120  -0.007832   0.002049   0.000164  -0.000053
    27  H    0.000000   0.000000   0.000000  -0.000009   0.000072  -0.000194
    28  H    0.000000  -0.000000  -0.000000  -0.000004  -0.000001   0.000002
    29  H    0.000000  -0.000000   0.000000   0.000000  -0.000000  -0.000002
    30  H    0.000000  -0.000000  -0.000000  -0.000009  -0.000002  -0.000020
    31  H   -0.000000   0.000132  -0.001229   0.005379  -0.001373  -0.012648
               7          8          9         10         11         12
     1  N   -0.000000  -0.000000   0.000000   0.000000   0.000000  -0.000009
     2  C   -0.000067   0.000000  -0.000005  -0.000005  -0.000030  -0.000729
     3  C    0.001001   0.000295  -0.000105   0.000174  -0.000125  -0.013104
     4  C   -0.023739   0.004322  -0.005771   0.002921  -0.022730   0.005940
     5  C   -0.182078  -0.010254   0.011482  -0.000687  -0.000301  -0.003394
     6  N    0.508381  -0.063609  -0.041697  -0.000933  -0.001997  -0.001526
     7  C    4.585743   0.425218   0.363001  -0.031699  -0.001884   0.001318
     8  O    0.425218   7.754172  -0.031334   0.000392   0.000002  -0.000005
     9  C    0.363001  -0.031334   5.212777   0.405862  -0.030331  -0.000408
    10  C   -0.031699   0.000392   0.405862   5.221556   0.366322  -0.020430
    11  C   -0.001884   0.000002  -0.030331   0.366322   5.694388   0.044350
    12  C    0.001318  -0.000005  -0.000408  -0.020430   0.044350   5.672156
    13  C    0.000214   0.000000   0.000040   0.000367   0.000418   0.310958
    14  N   -0.030179  -0.002331   0.301579  -0.034001   0.000103  -0.000020
    15  C   -0.003580   0.000843  -0.092477  -0.013859   0.000859   0.000013
    16  C   -0.001429  -0.000301   0.001220   0.001319   0.000171   0.000001
    17  C   -0.010809  -0.000986  -0.013969   0.051955  -0.011688   0.000118
    18  C    0.035652  -0.012020  -0.006150   0.060444  -0.013586  -0.026635
    19  H    0.000000   0.000000  -0.000000  -0.000000  -0.000000   0.000000
    20  H    0.000000  -0.000000   0.000000  -0.000000  -0.000000   0.000000
    21  H    0.000268   0.000022   0.000011   0.000003  -0.000003   0.000035
    22  H   -0.004990  -0.000107  -0.000552   0.000014  -0.000041  -0.000113
    23  H   -0.075158   0.330212   0.004778  -0.000200   0.000003   0.000004
    24  H    0.000178   0.000000   0.001755  -0.020583   0.247827  -0.003786
    25  H   -0.000065   0.000000   0.000079   0.001727  -0.030874   0.191985
    26  H   -0.000001  -0.000000  -0.000000  -0.000006  -0.000001  -0.008010
    27  H   -0.001993   0.006684  -0.019427   0.001069   0.000013   0.000000
    28  H    0.000573   0.000002  -0.012549   0.014635   0.000412   0.000008
    29  H   -0.000146  -0.000009   0.001260   0.000074  -0.000001  -0.000000
    30  H    0.000525   0.000010   0.003808  -0.000788  -0.000575  -0.000001
    31  H    0.003122   0.000024   0.005303  -0.026748   0.060035   0.048940
              13         14         15         16         17         18
     1  N   -0.002399  -0.000000   0.000000  -0.000000  -0.000000   0.000000
     2  C    0.030222  -0.000000  -0.000000  -0.000000   0.000000  -0.000040
     3  C    0.040137   0.000000  -0.000000   0.000000  -0.000006   0.000823
     4  C   -0.046536   0.000181  -0.000037  -0.000006   0.001818  -0.095525
     5  C   -0.002366  -0.000913  -0.000024   0.000004   0.000584   0.003446
     6  N    0.003634  -0.001188  -0.000456   0.000064  -0.000092  -0.070492
     7  C    0.000214  -0.030179  -0.003580  -0.001429  -0.010809   0.035652
     8  O    0.000000  -0.002331   0.000843  -0.000301  -0.000986  -0.012020
     9  C    0.000040   0.301579  -0.092477   0.001220  -0.013969  -0.006150
    10  C    0.000367  -0.034001  -0.013859   0.001319   0.051955   0.060444
    11  C    0.000418   0.000103   0.000859   0.000171  -0.011688  -0.013586
    12  C    0.310958  -0.000020   0.000013   0.000001   0.000118  -0.026635
    13  C    5.628450   0.000000   0.000000  -0.000000  -0.000000   0.000877
    14  N    0.000000   6.648492   0.345171  -0.159454  -0.137099  -0.040421
    15  C    0.000000   0.345171   5.231952   0.457853  -0.046018   0.014202
    16  C   -0.000000  -0.159454   0.457853   5.548282  -0.068433   0.005849
    17  C   -0.000000  -0.137099  -0.046018  -0.068433   6.184052   0.253662
    18  C    0.000877  -0.040421   0.014202   0.005849   0.253662   5.959713
    19  H    0.000082   0.000000  -0.000000   0.000000  -0.000000   0.000000
    20  H   -0.000128  -0.000000  -0.000000   0.000000   0.000000  -0.000000
    21  H    0.009169   0.000000  -0.000000  -0.000000   0.000000  -0.000017
    22  H    0.000682   0.000014   0.000000  -0.000000   0.000035  -0.001001
    23  H   -0.000014  -0.000236   0.000018  -0.000008  -0.000051  -0.000418
    24  H   -0.000059   0.000152  -0.000648  -0.000008  -0.005036  -0.000082
    25  H   -0.008258   0.000002  -0.000003  -0.000000   0.000056   0.003639
    26  H    0.218668  -0.000000   0.000000   0.000000   0.000000  -0.000017
    27  H   -0.000000   0.290224  -0.042602   0.022250   0.012513   0.002111
    28  H    0.000000  -0.007096   0.309672  -0.059257   0.000718   0.001350
    29  H    0.000000  -0.018945  -0.026560   0.253632   0.010154  -0.000158
    30  H    0.000000   0.019253  -0.065723   0.262560   0.015100  -0.002082
    31  H   -0.002255   0.000474  -0.000238  -0.000103  -0.005834   0.164328
              19         20         21         22         23         24
     1  N    0.244916   0.264770  -0.007243  -0.000098   0.000000  -0.000000
     2  C   -0.008820  -0.005195  -0.117298  -0.000534   0.000039   0.000000
     3  C   -0.000752   0.000688   0.286442  -0.013119  -0.001228  -0.000002
     4  C   -0.000004  -0.000001  -0.017662  -0.005870   0.002555   0.000493
     5  C    0.000025  -0.000000  -0.041921   0.311521   0.026193  -0.000073
     6  N    0.000000   0.000000   0.004070  -0.034835  -0.014257   0.000082
     7  C    0.000000   0.000000   0.000268  -0.004990  -0.075158   0.000178
     8  O    0.000000  -0.000000   0.000022  -0.000107   0.330212   0.000000
     9  C   -0.000000   0.000000   0.000011  -0.000552   0.004778   0.001755
    10  C   -0.000000  -0.000000   0.000003   0.000014  -0.000200  -0.020583
    11  C   -0.000000  -0.000000  -0.000003  -0.000041   0.000003   0.247827
    12  C    0.000000   0.000000   0.000035  -0.000113   0.000004  -0.003786
    13  C    0.000082  -0.000128   0.009169   0.000682  -0.000014  -0.000059
    14  N    0.000000  -0.000000   0.000000   0.000014  -0.000236   0.000152
    15  C   -0.000000  -0.000000  -0.000000   0.000000   0.000018  -0.000648
    16  C    0.000000   0.000000  -0.000000  -0.000000  -0.000008  -0.000008
    17  C   -0.000000   0.000000   0.000000   0.000035  -0.000051  -0.005036
    18  C    0.000000  -0.000000  -0.000017  -0.001001  -0.000418  -0.000082
    19  H    0.622334  -0.050990   0.009216  -0.000006  -0.000000   0.000000
    20  H   -0.050990   0.568460   0.000076   0.000001  -0.000000   0.000000
    21  H    0.009216   0.000076   0.831722   0.012719  -0.000639  -0.000000
    22  H   -0.000006   0.000001   0.012719   0.521772   0.010252   0.000000
    23  H   -0.000000  -0.000000  -0.000639   0.010252   0.397722   0.000000
    24  H    0.000000   0.000000  -0.000000   0.000000   0.000000   0.636201
    25  H   -0.000000  -0.000000   0.000001   0.000003  -0.000000   0.001118
    26  H   -0.000000   0.000599  -0.001144  -0.000024   0.000000   0.000000
    27  H   -0.000000  -0.000000  -0.000000  -0.000002  -0.000343   0.000000
    28  H   -0.000000  -0.000000   0.000000   0.000000   0.000001  -0.000374
    29  H   -0.000000  -0.000000  -0.000000  -0.000000  -0.000000  -0.000002
    30  H   -0.000000  -0.000000   0.000000  -0.000000   0.000000   0.000334
    31  H    0.000000   0.000000  -0.000066  -0.000314   0.000029   0.000119
              25         26         27         28         29         30
     1  N    0.000000  -0.001507   0.000000   0.000000   0.000000   0.000000
     2  C   -0.000016  -0.031120   0.000000  -0.000000  -0.000000  -0.000000
     3  C    0.000367  -0.007832   0.000000  -0.000000   0.000000  -0.000000
     4  C    0.002575   0.002049  -0.000009  -0.000004   0.000000  -0.000009
     5  C    0.000011   0.000164   0.000072  -0.000001  -0.000000  -0.000002
     6  N    0.000154  -0.000053  -0.000194   0.000002  -0.000002  -0.000020
     7  C   -0.000065  -0.000001  -0.001993   0.000573  -0.000146   0.000525
     8  O    0.000000  -0.000000   0.006684   0.000002  -0.000009   0.000010
     9  C    0.000079  -0.000000  -0.019427  -0.012549   0.001260   0.003808
    10  C    0.001727  -0.000006   0.001069   0.014635   0.000074  -0.000788
    11  C   -0.030874  -0.000001   0.000013   0.000412  -0.000001  -0.000575
    12  C    0.191985  -0.008010   0.000000   0.000008  -0.000000  -0.000001
    13  C   -0.008258   0.218668  -0.000000   0.000000   0.000000   0.000000
    14  N    0.000002  -0.000000   0.290224  -0.007096  -0.018945   0.019253
    15  C   -0.000003   0.000000  -0.042602   0.309672  -0.026560  -0.065723
    16  C   -0.000000   0.000000   0.022250  -0.059257   0.253632   0.262560
    17  C    0.000056   0.000000   0.012513   0.000718   0.010154   0.015100
    18  C    0.003639  -0.000017   0.002111   0.001350  -0.000158  -0.002082
    19  H   -0.000000  -0.000000  -0.000000  -0.000000  -0.000000  -0.000000
    20  H   -0.000000   0.000599  -0.000000  -0.000000  -0.000000  -0.000000
    21  H    0.000001  -0.001144  -0.000000   0.000000  -0.000000   0.000000
    22  H    0.000003  -0.000024  -0.000002   0.000000  -0.000000  -0.000000
    23  H   -0.000000   0.000000  -0.000343   0.000001  -0.000000   0.000000
    24  H    0.001118   0.000000   0.000000  -0.000374  -0.000002   0.000334
    25  H    0.718956  -0.000489  -0.000000  -0.000003   0.000000   0.000000
    26  H   -0.000489   0.662305   0.000000   0.000000  -0.000000  -0.000000
    27  H   -0.000000   0.000000   0.401286   0.002103   0.011632  -0.002883
    28  H   -0.000003   0.000000   0.002103   0.531999   0.006043  -0.013614
    29  H    0.000000  -0.000000   0.011632   0.006043   0.672294  -0.008364
    30  H    0.000000  -0.000000  -0.002883  -0.013614  -0.008364   0.612624
    31  H   -0.009323   0.000118  -0.000018   0.000041   0.000000   0.000088
              31
     1  N   -0.000000
     2  C    0.000132
     3  C   -0.001229
     4  C    0.005379
     5  C   -0.001373
     6  N   -0.012648
     7  C    0.003122
     8  O    0.000024
     9  C    0.005303
    10  C   -0.026748
    11  C    0.060035
    12  C    0.048940
    13  C   -0.002255
    14  N    0.000474
    15  C   -0.000238
    16  C   -0.000103
    17  C   -0.005834
    18  C    0.164328
    19  H    0.000000
    20  H    0.000000
    21  H   -0.000066
    22  H   -0.000314
    23  H    0.000029
    24  H    0.000119
    25  H   -0.009323
    26  H    0.000118
    27  H   -0.000018
    28  H    0.000041
    29  H    0.000000
    30  H    0.000088
    31  H    0.452480
 Mulliken charges:
               1
     1  N   -0.625970
     2  C   -0.043141
     3  C   -0.068174
     4  C   -0.119638
     5  C   -0.203312
     6  N    0.169151
     7  C    0.442623
     8  O   -0.401244
     9  C   -0.058180
    10  C    0.021104
    11  C   -0.300735
    12  C   -0.197657
    13  C   -0.181901
    14  N   -0.173762
    15  C   -0.068357
    16  C   -0.264205
    17  C   -0.230745
    18  C   -0.237450
    19  H    0.183999
    20  H    0.221721
    21  H    0.032240
    22  H    0.204593
    23  H    0.320746
    24  H    0.142395
    25  H    0.128357
    26  H    0.166299
    27  H    0.317513
    28  H    0.225338
    29  H    0.099098
    30  H    0.179756
    31  H    0.319537
 Sum of Mulliken charges =  -0.00000
 Mulliken charges with hydrogens summed into heavy atoms:
               1
     1  N   -0.220249
     2  C   -0.043141
     3  C   -0.035934
     4  C   -0.119638
     5  C    0.001281
     6  N    0.169151
     7  C    0.442623
     8  O   -0.080497
     9  C   -0.058180
    10  C    0.021104
    11  C   -0.158341
    12  C   -0.069300
    13  C   -0.015602
    14  N    0.143751
    15  C    0.156981
    16  C    0.014650
    17  C   -0.230745
    18  C    0.082087
 Electronic spatial extent (au):  <R**2>=           5038.5996
 Charge=             -0.0000 electrons
 Dipole moment (field-independent basis, Debye):
    X=             -6.2750    Y=             -5.7093    Z=             -0.8532  Tot=              8.5264
 Quadrupole moment (field-independent basis, Debye-Ang):
   XX=           -107.9689   YY=            -99.4636   ZZ=           -118.2673
   XY=             -6.6706   XZ=              2.4430   YZ=              2.8242
 Traceless Quadrupole moment (field-independent basis, Debye-Ang):
   XX=              0.5977   YY=              9.1030   ZZ=             -9.7007
   XY=             -6.6706   XZ=              2.4430   YZ=              2.8242
 Octapole moment (field-independent basis, Debye-Ang**2):
  XXX=            -27.1135  YYY=            -74.6716  ZZZ=             -7.2103  XYY=            -21.6423
  XXY=            -57.7195  XXZ=            -13.5251  XZZ=             -3.1771  YZZ=            -14.3658
  YYZ=              0.3204  XYZ=              0.1121
 Hexadecapole moment (field-independent basis, Debye-Ang**3):
 XXXX=          -4794.2348 YYYY=          -1269.8818 ZZZZ=           -333.6982 XXXY=           -106.3070
 XXXZ=             94.1237 YYYX=            -94.4283 YYYZ=             23.9999 ZZZX=             18.1142
 ZZZY=              8.8882 XXYY=          -1019.9961 XXZZ=          -1120.6567 YYZZ=           -289.2121
 XXYZ=             20.2850 YYXZ=             -3.8566 ZZXY=              5.3085
 N-N= 1.221648519572D+03 E-N=-4.251816118314D+03  KE= 7.721772438885D+02
 PrsmSu:  requested number of processors reduced to:  13 ShMem   1 Linda.
 Calling FoFJK, ICntrl=      2127 FMM=F ISym2X=0 I1Cent= 0 IOpClX= 0 NMat=1 NMatS=1 NMatT=0.
 ***** Axes restored to original set *****
 -------------------------------------------------------------------
 Center     Atomic                   Forces (Hartrees/Bohr)
 Number     Number              X              Y              Z
 -------------------------------------------------------------------
      1        7          -0.085713564    0.014698026   -0.008466503
      2        6           0.065356821    0.060266001   -0.005327347
      3        6          -0.189952863   -0.064510168   -0.001143624
      4        6          -0.004798353   -0.043308147    0.063024530
      5        6          -0.155849254    0.062418470   -0.012615460
      6        7          -0.046731977   -0.149300538   -0.054798461
      7        6           0.086060633   -0.013005520   -0.035810286
      8        8           0.001407360    0.039162403   -0.019650548
      9        6          -0.070434261    0.049715697    0.005785190
     10        6          -0.001992143    0.056058620    0.050233028
     11        6           0.019882693    0.090410256   -0.009569199
     12        6          -0.003039929   -0.029018095   -0.012721509
     13        6          -0.005038830   -0.053176463    0.034173451
     14        7          -0.027532558   -0.049954106   -0.102379403
     15        6           0.072310398   -0.054404971   -0.013983374
     16        6           0.129144437    0.105482319    0.030913014
     17        6          -0.059023978   -0.072103137    0.105800063
     18        6           0.128509526    0.021357496   -0.019576852
     19        1           0.083527176   -0.025601774    0.007933372
     20        1           0.090425924    0.022531070   -0.010447968
     21        1           0.068485792    0.010729839    0.013806778
     22        1           0.004782489    0.022305513    0.030608452
     23        1           0.001860722    0.017701953    0.000008667
     24        1          -0.075344169   -0.018374198   -0.032029611
     25        1          -0.061598614   -0.008834402    0.011998677
     26        1           0.078972748    0.010564907   -0.026608718
     27        1           0.005331080   -0.061923513    0.000844196
     28        1          -0.071915770    0.017062676   -0.063173299
     29        1          -0.011677822   -0.040160651    0.064825377
     30        1           0.020326958    0.058251511    0.002354086
     31        1           0.014259328    0.024958925    0.005993282
 -------------------------------------------------------------------
 Cartesian Forces:  Max     0.189952863 RMS     0.057598891

 GradGradGradGradGradGradGradGradGradGradGradGradGradGradGradGradGradGrad
 Berny optimization.
 FormGI is forming the generalized inverse of G from B-inverse, IUseBI=4.
 Internal  Forces:  Max     0.354259669 RMS     0.078148083
 Search for a local minimum.
 Step number   1 out of a maximum of  138
 All quantities printed in internal units (Hartrees-Bohrs-Radians)
 Mixed Optimization -- RFO/linear search
 Second derivative matrix not updated -- first step.
 ITU=  0
     Eigenvalues ---    0.00230   0.00230   0.00230   0.00230   0.00230
     Eigenvalues ---    0.00230   0.00230   0.00230   0.00240   0.00242
     Eigenvalues ---    0.00273   0.00634   0.00946   0.01104   0.01394
     Eigenvalues ---    0.01564   0.01744   0.02117   0.02285   0.02577
     Eigenvalues ---    0.02987   0.02992   0.03224   0.03457   0.04392
     Eigenvalues ---    0.05179   0.05424   0.05851   0.07087   0.07935
     Eigenvalues ---    0.08252   0.08906   0.09410   0.10313   0.11315
     Eigenvalues ---    0.11415   0.13235   0.13549   0.13626   0.13867
     Eigenvalues ---    0.13943   0.14372   0.14372   0.15025   0.15451
     Eigenvalues ---    0.15662   0.15834   0.15849   0.15864   0.15887
     Eigenvalues ---    0.15962   0.16000   0.16000   0.16000   0.16000
     Eigenvalues ---    0.16000   0.17205   0.17536   0.17540   0.17924
     Eigenvalues ---    0.19402   0.20331   0.20888   0.21839   0.21849
     Eigenvalues ---    0.22172   0.23066   0.23802   0.23999   0.24228
     Eigenvalues ---    0.24654   0.24731   0.25000   0.25000   0.26766
     Eigenvalues ---    0.33091   0.33310   0.36177   0.37345   0.41934
     Eigenvalues ---    0.49745   0.52886   0.57098   0.66717   0.69209
     Eigenvalues ---    0.73531   0.94338
 RFO step:  Lambda=-7.85302798D-01 EMin= 2.30000000D-03
 Linear search not attempted -- first point.
 Maximum step size (   0.300) exceeded in Quadratic search.
    -- Step size scaled by   0.370
 Iteration  1 RMS(Cart)=  0.18710683 RMS(Int)=  0.01725024
 Iteration  2 RMS(Cart)=  0.18446493 RMS(Int)=  0.00723810
 Iteration  3 RMS(Cart)=  0.01322701 RMS(Int)=  0.00018218
 Iteration  4 RMS(Cart)=  0.00003999 RMS(Int)=  0.00018162
 Iteration  5 RMS(Cart)=  0.00000000 RMS(Int)=  0.00018162
 Variable       Old X    -DE/DX   Delta X   Delta X   Delta X     New X
                                 (Linear)    (Quad)   (Total)
    R1        3.56886  -0.08920   0.00000  -0.03669  -0.03669   3.53217
    R2        2.29055  -0.07951   0.00000  -0.02871  -0.02871   2.26183
    R3        2.27912  -0.08450   0.00000  -0.03039  -0.03039   2.24873
    R4        2.77100  -0.14209   0.00000  -0.04578  -0.04578   2.72522
    R5        3.40179  -0.03414   0.00000  -0.01364  -0.01364   3.38815
    R6        2.64556  -0.05955   0.00000  -0.02369  -0.02369   2.62187
    R7        2.51227   0.08306   0.00000   0.02307   0.02328   2.53555
    R8        3.02184   0.03466   0.00000   0.01007   0.00985   3.03170
    R9        3.07565   0.08873   0.00000   0.03632   0.03645   3.11211
   R10        2.35034   0.09111   0.00000   0.02217   0.02217   2.37251
   R11        2.08510  -0.00924   0.00000  -0.00305  -0.00305   2.08205
   R12        2.29966   0.12554   0.00000   0.02738   0.02732   2.32698
   R13        2.45990   0.05013   0.00000   0.01275   0.01275   2.47266
   R14        2.74536  -0.01789   0.00000  -0.00492  -0.00508   2.74028
   R15        1.83760  -0.00611   0.00000  -0.00172  -0.00172   1.83588
   R16        3.07968  -0.05260   0.00000  -0.01936  -0.01936   3.06031
   R17        2.68024  -0.00295   0.00000   0.00041   0.00038   2.68062
   R18        2.94918  -0.01230   0.00000  -0.00432  -0.00432   2.94487
   R19        2.70946  -0.08339   0.00000  -0.03358  -0.03358   2.67587
   R20        3.14779   0.07210   0.00000   0.03082   0.03082   3.17861
   R21        3.42406  -0.06665   0.00000  -0.02675  -0.02675   3.39731
   R22        2.49821  -0.09645   0.00000  -0.03710  -0.03710   2.46111
   R23        2.57129  -0.07281   0.00000  -0.02851  -0.02851   2.54278
   R24        2.52470   0.11630   0.00000   0.03220   0.03204   2.55675
   R25        2.08892  -0.06120   0.00000  -0.02026  -0.02026   2.06866
   R26        2.43447   0.20701   0.00000   0.05229   0.05230   2.48676
   R27        2.57197  -0.07869   0.00000  -0.03081  -0.03081   2.54116
   R28        2.64555  -0.07243   0.00000  -0.02881  -0.02881   2.61674
   R29        2.34949   0.03404   0.00000   0.01234   0.01230   2.36179
   R30        3.37407  -0.07533   0.00000  -0.03178  -0.03166   3.34240
   R31        2.99360   0.02035   0.00000   0.00670   0.00684   3.00044
   R32        2.52144   0.00442   0.00000   0.00021   0.00023   2.52167
    A1        2.31804  -0.02593   0.00000  -0.01014  -0.01014   2.30790
    A2        2.50354  -0.03343   0.00000  -0.01308  -0.01308   2.49046
    A3        1.45933   0.05910   0.00000   0.02310   0.02310   1.48243
    A4        2.18467  -0.02107   0.00000  -0.00752  -0.00758   2.17709
    A5        1.49366   0.11002   0.00000   0.04609   0.04611   1.53977
    A6        1.74017   0.01001   0.00000   0.00699   0.00710   1.74727
    A7        2.53323   0.05092   0.00000   0.01938   0.01947   2.55270
    A8        1.72644   0.04257   0.00000   0.01909   0.01908   1.74552
    A9        1.32558  -0.02588   0.00000  -0.01280  -0.01283   1.31275
   A10        2.27231  -0.10801   0.00000  -0.03764  -0.03741   2.23491
   A11        1.44514   0.04312   0.00000   0.01645   0.01652   1.46165
   A12        2.77034   0.01663   0.00000   0.00338   0.00338   2.77373
   A13        2.07835   0.01209   0.00000   0.00290   0.00311   2.08146
   A14        2.33928  -0.03758   0.00000  -0.01308  -0.01327   2.32601
   A15        2.19980  -0.02423   0.00000  -0.00816  -0.00817   2.19162
   A16        2.03401   0.03703   0.00000   0.01161   0.01160   2.04561
   A17        1.88724   0.04683   0.00000   0.02027   0.02027   1.90750
   A18        2.34918  -0.07772   0.00000  -0.02927  -0.02935   2.31983
   A19        1.79645   0.03044   0.00000   0.01190   0.01190   1.80835
   A20        2.10725   0.04514   0.00000   0.01759   0.01766   2.12491
   A21        1.67470   0.05474   0.00000   0.01917   0.01914   1.69384
   A22        2.28614  -0.12407   0.00000  -0.04578  -0.04578   2.24036
   A23        2.59950   0.32077   0.00000   0.11450   0.11450   2.71400
   A24        1.67790  -0.03042   0.00000  -0.01299  -0.01303   1.66486
   A25        2.48920   0.06520   0.00000   0.02454   0.02451   2.51371
   A26        2.00428  -0.06694   0.00000  -0.02736  -0.02736   1.97692
   A27        2.51799  -0.27506   0.00000  -0.10753  -0.10753   2.41046
   A28        2.57143  -0.10109   0.00000  -0.03952  -0.03952   2.53191
   A29        1.72731   0.03927   0.00000   0.01747   0.01718   1.74449
   A30        2.41938  -0.03491   0.00000  -0.01459  -0.01448   2.40490
   A31        2.13181  -0.00713   0.00000  -0.00387  -0.00377   2.12804
   A32        1.76717   0.09230   0.00000   0.03743   0.03754   1.80471
   A33        2.44935  -0.02550   0.00000  -0.00953  -0.00976   2.43959
   A34        1.57177  -0.03229   0.00000  -0.01052  -0.01045   1.56132
   A35        1.76536  -0.01992   0.00000  -0.00895  -0.00873   1.75663
   A36        1.69842   0.06898   0.00000   0.02951   0.02923   1.72765
   A37        2.71914  -0.04650   0.00000  -0.02002  -0.01986   2.69928
   A38        2.45872   0.06736   0.00000   0.02451   0.02430   2.48301
   A39        1.44567   0.35426   0.00000   0.12645   0.12645   1.57213
   A40        1.58908   0.05603   0.00000   0.02109   0.02079   1.60987
   A41        1.63351   0.13901   0.00000   0.04830   0.04871   1.68222
   A42        3.23383   0.12003   0.00000   0.05308   0.05321   3.28704
   A43        3.31035  -0.12988   0.00000  -0.05854  -0.05849   3.25186
   A44        3.33201   0.05580   0.00000   0.02569   0.02537   3.35739
   A45        3.32786  -0.03069   0.00000  -0.01418  -0.01440   3.31346
    D1        0.18829  -0.00071   0.00000  -0.00040  -0.00039   0.18790
    D2       -2.85156   0.00185   0.00000   0.00093   0.00093  -2.85063
    D3       -3.08068   0.00388   0.00000   0.00171   0.00172  -3.07896
    D4       -0.22821  -0.00371   0.00000  -0.00168  -0.00210  -0.23031
    D5        2.74555  -0.00091   0.00000  -0.00145  -0.00165   2.74390
    D6       -2.46964  -0.01104   0.00000  -0.00315  -0.00230  -2.47195
    D7       -0.34499   0.02349   0.00000   0.00998   0.00972  -0.33527
    D8        2.95160  -0.00285   0.00000  -0.00179  -0.00186   2.94974
    D9       -2.30815  -0.00427   0.00000  -0.00057  -0.00077  -2.30893
   D10       -0.17330   0.01029   0.00000   0.00402   0.00396  -0.16933
   D11        2.90096  -0.01519   0.00000  -0.00566  -0.00583   2.89514
   D12        2.94662   0.02299   0.00000   0.01074   0.01078   2.95741
   D13       -0.97849   0.01551   0.00000   0.00439   0.00382  -0.97467
   D14        0.45453  -0.00527   0.00000   0.00056   0.00031   0.45483
   D15        0.82618   0.05846   0.00000   0.02188   0.02144   0.84762
   D16        3.13127   0.02947   0.00000   0.01210   0.01245  -3.13947
   D17        1.27443   0.03951   0.00000   0.01478   0.01474   1.28917
   D18       -1.70791   0.00791   0.00000   0.00369   0.00380  -1.70411
   D19        1.57952  -0.01895   0.00000  -0.00816  -0.00861   1.57092
   D20       -0.44919  -0.00273   0.00000  -0.00131  -0.00103  -0.45022
   D21        2.83825  -0.02960   0.00000  -0.01316  -0.01344   2.82480
   D22       -0.15033  -0.02515   0.00000  -0.01057  -0.01053  -0.16086
   D23        2.79606   0.02920   0.00000   0.01240   0.01236   2.80843
   D24       -0.41249   0.02738   0.00000   0.01329   0.01332  -0.39916
   D25       -2.96098   0.10843   0.00000   0.04345   0.04356  -2.91742
   D26        2.91272  -0.02425   0.00000  -0.00813  -0.00802   2.90470
   D27        0.36423   0.05679   0.00000   0.02204   0.02221   0.38644
   D28       -0.24677   0.10488   0.00000   0.04911   0.04927  -0.19749
   D29        2.06702   0.09755   0.00000   0.04587   0.04571   2.11273
   D30        2.85251  -0.01147   0.00000  -0.00296  -0.00324   2.84927
   D31       -0.17885   0.01952   0.00000   0.00810   0.00798  -0.17088
   D32        0.40078  -0.02335   0.00000  -0.00748  -0.00757   0.39321
   D33       -2.63059   0.00764   0.00000   0.00358   0.00365  -2.62694
   D34       -1.99238   0.05762   0.00000   0.02758   0.02749  -1.96489
   D35        1.72897   0.17589   0.00000   0.08198   0.08207   1.81104
   D36       -1.42315  -0.09253   0.00000  -0.04344  -0.04335  -1.46650
   D37        2.36219   0.02221   0.00000   0.01045   0.01036   2.37255
   D38        0.42319  -0.02006   0.00000  -0.00941  -0.00941   0.41378
   D39        3.03511   0.03280   0.00000   0.01539   0.01539   3.05050
   D40       -2.40691   0.01762   0.00000   0.00401   0.00432  -2.40260
   D41       -0.59222   0.07088   0.00000   0.03026   0.03033  -0.56189
   D42        0.64869  -0.00954   0.00000  -0.00582  -0.00574   0.64295
   D43        2.46339   0.04372   0.00000   0.02043   0.02027   2.48366
   D44       -1.39194   0.00039   0.00000   0.00216   0.00219  -1.38975
   D45        2.02424   0.01445   0.00000   0.00888   0.00867   2.03291
   D46        2.41760   0.01418   0.00000   0.00606   0.00605   2.42365
   D47       -0.44940   0.02824   0.00000   0.01278   0.01253  -0.43688
   D48       -1.05974   0.01415   0.00000   0.00308   0.00267  -1.05707
   D49        2.78795  -0.02817   0.00000  -0.01305  -0.01298   2.77497
   D50        2.44491  -0.00616   0.00000  -0.00378  -0.00422   2.44069
   D51       -2.79324  -0.01083   0.00000  -0.00510  -0.00528  -2.79851
         Item               Value     Threshold  Converged?
 Maximum Force            0.354260     0.000450     NO 
 RMS     Force            0.078148     0.000300     NO 
 Maximum Displacement     2.569848     0.001800     NO 
 RMS     Displacement     0.366003     0.001200     NO 
 Predicted change in Energy=-2.799281D-01
 GradGradGradGradGradGradGradGradGradGradGradGradGradGradGradGradGradGrad

                          Input orientation:                          
 ---------------------------------------------------------------------
 Center     Atomic      Atomic             Coordinates (Angstroms)
 Number     Number       Type             X           Y           Z
 ---------------------------------------------------------------------
      1          7           0        1.721600    0.144343    0.015535
      2          6           0        3.580170    0.328554   -0.058477
      3          6           0        4.273336    1.563178   -0.332233
      4          6           0        6.149993    2.041780   -0.142001
      5          6           0        5.399181    2.821908   -0.934460
      6          7           0        6.459103    2.663251   -1.588383
      7          6           0        7.201772    3.564644   -1.978559
      8          8           0        6.664686    4.742863   -2.166814
      9          6           0        8.500470    3.007985   -2.304564
     10          6           0        9.012913    1.610311   -1.666972
     11          6           0        8.969801    0.397289   -0.689633
     12          6           0        7.334462   -0.923880   -0.355825
     13          6           0        5.759570   -1.768766   -0.161146
     14          7           0        9.198072    4.239243   -2.402343
     15          6           0       10.472764    3.792741   -2.322795
     16          6           0       11.051380    4.662849   -1.522914
     17          6           0        9.816424    3.530090   -0.327179
     18          6           0        8.246861    2.790070    0.015204
     19          1           0        0.827530    0.878375   -0.291763
     20          1           0        0.856535   -0.578789    0.396052
     21          1           0        3.063099    2.100536   -0.746423
     22          1           0        4.503080    3.207444   -1.446583
     23          1           0        5.711536    4.576140   -2.080021
     24          1           0       10.149104    0.748906    0.010867
     25          1           0        8.582391   -1.234516   -0.561558
     26          1           0        5.163000   -2.924895    0.182450
     27          1           0        8.958951    5.307315   -2.421983
     28          1           0       11.181408    2.807842   -1.743070
     29          1           0       11.281767    5.706245   -2.403651
     30          1           0       11.340585    3.897362   -0.578241
     31          1           0        7.674057    1.624551    0.321984
 ---------------------------------------------------------------------
                    Distance matrix (angstroms):
                    1          2          3          4          5
     1  N    0.000000
     2  C    1.869143   0.000000
     3  C    2.940305   1.442123   0.000000
     4  C    4.820348   3.089678   1.946045   0.000000
     5  C    4.647198   3.208265   1.792932   1.341757   0.000000
     6  N    5.600124   4.009948   2.750573   1.604305   1.255477
     7  C    6.760708   5.222548   3.910498   2.607355   2.211591
     8  O    7.095291   5.783205   4.381169   3.414766   2.609649
     9  C    7.715983   6.036027   4.883260   3.336911   3.395557
    10  C    7.625165   5.809032   4.924159   3.272309   3.881185
    11  C    7.286815   5.426897   4.852197   3.309920   4.322968
    12  C    5.725665   3.968843   3.944174   3.200598   4.255709
    13  C    4.471734   3.026396   3.652398   3.830542   4.669281
    14  N    8.860699   7.235193   5.974923   4.385063   4.312203
[...]
     26          1           0        3.651700    2.192051   -0.529198
     27          1           0       -3.001842   -1.097031   -0.676030
     28          1           0       -3.147553    1.818339   -0.691930
     29          1           0       -4.899160   -0.164948    0.930004
     30          1           0       -4.423810    1.495694    1.470985
     31          1           0       -0.645203    0.273633    1.647359
 ---------------------------------------------------------------------
 Rotational constants (GHZ):           0.8456722           0.3072246           0.2663307
 Standard basis: 6-31G(2df,p) (6D, 7F)
 There are   623 symmetry adapted cartesian basis functions of A   symmetry.
 There are   569 symmetry adapted basis functions of A   symmetry.
   569 basis functions,   883 primitive gaussians,   623 cartesian basis functions
    63 alpha electrons       63 beta electrons
       nuclear repulsion energy      1258.0998562903 Hartrees.
 NAtoms=   31 NActive=   31 NUniq=   31 SFac= 1.00D+00 NAtFMM=   60 NAOKFM=F Big=F
 Integral buffers will be    131072 words long.
 Raffenetti 2 integral format.
 Two-electron integral symmetry is turned on.
 One-electron integrals computed using PRISM.
 PrsmSu:  requested number of processors reduced to:  12 ShMem   1 Linda.
 NBasis=   569 RedAO= T EigKep=  1.49D-04  NBF=   569
 NBsUse=   569 1.00D-06 EigRej= -1.00D+00 NBFU=   569
 Lowest energy guess from the checkpoint file:  "NC1dCC2dCNdCqOrCqdCdCCdC1rNCdCCdC2.chk"
 B after Tr=     0.000000   -0.000000    0.000000
         Rot=    0.999984   -0.004643    0.002169   -0.002395 Ang=  -0.65 deg.
 B after Tr=    -0.000000   -0.000000    0.000000
         Rot=    0.999990   -0.003667    0.000880    0.002491 Ang=  -0.52 deg.
 Requested convergence on RMS density matrix=1.00D-08 within 128 cycles.
 Requested convergence on MAX density matrix=1.00D-06.
 Requested convergence on             energy=1.00D-06.
 No special actions if energy rises.
 Integral accuracy reduced to 1.0D-05 until final iterations.
 Initial convergence to 1.0D-05 achieved.  Increase integral accuracy.
 SCF Done:  E(RB3LYP) =  -780.238024273     A.U. after   18 cycles
            NFock= 18  Conv=0.68D-08     -V/T= 2.0072
 PrsmSu:  requested number of processors reduced to:  13 ShMem   1 Linda.
 Calling FoFJK, ICntrl=      2127 FMM=F ISym2X=0 I1Cent= 0 IOpClX= 0 NMat=1 NMatS=1 NMatT=0.
 ***** Axes restored to original set *****
 -------------------------------------------------------------------
 Center     Atomic                   Forces (Hartrees/Bohr)
 Number     Number              X              Y              Z
 -------------------------------------------------------------------
      1        7           0.002449966   -0.012163993   -0.002722190
      2        6           0.041965264    0.014434972   -0.003114099
      3        6          -0.002953895   -0.012055907   -0.017908112
      4        6          -0.015078608   -0.003639102    0.030193746
      5        6          -0.006886405   -0.029769792   -0.042525275
      6        7          -0.005181361    0.000703780   -0.007917376
      7        6          -0.001740759    0.000934960   -0.015135129
      8        8          -0.001294510   -0.005060473    0.000411711
      9        6          -0.009011780   -0.004856743    0.025578114
     10        6           0.013550610    0.022646879   -0.015454856
     11        6           0.015965623   -0.004813141    0.006443352
     12        6          -0.002996970   -0.010643292   -0.007906981
     13        6          -0.043904422    0.008698314    0.006410831
     14        7           0.014999324    0.004759568   -0.021444729
     15        6           0.009960402    0.007589223    0.014128854
     16        6          -0.025358535    0.002299057    0.011332770
     17        6          -0.020004070    0.007729929   -0.016711433
     18        6          -0.015698463   -0.017220431    0.033779453
     19        1           0.002054201   -0.002043240    0.001223443
     20        1          -0.001401961    0.003394787   -0.000357128
     21        1           0.002250350    0.003763460    0.024117483
     22        1           0.000245239    0.019797263    0.009128446
     23        1           0.000805849    0.001471524    0.003782409
     24        1           0.004671769    0.003284056   -0.003363805
     25        1          -0.013515604    0.000297195    0.012335154
     26        1          -0.001298414   -0.002307110   -0.003001337
     27        1           0.001133029   -0.004032516    0.001198880
     28        1          -0.000787158   -0.004017907   -0.002902337
     29        1           0.003946423    0.002698996    0.001213458
     30        1           0.040824939   -0.006507378   -0.019045131
     31        1           0.012289925    0.014627062   -0.001768186
 -------------------------------------------------------------------
 Cartesian Forces:  Max     0.043904422 RMS     0.014438295

 GradGradGradGradGradGradGradGradGradGradGradGradGradGradGradGradGradGrad
 Berny optimization.
 Using GEDIIS/GDIIS optimizer.
 FormGI is forming the generalized inverse of G from B-inverse, IUseBI=4.
 Internal  Forces:  Max     0.190089920 RMS     0.038222515
 Search for a local minimum.
 Step number  22 out of a maximum of  138
 All quantities printed in internal units (Hartrees-Bohrs-Radians)
 Mixed Optimization -- RFO/linear search
 Update second derivatives using D2CorX and points   20   22
 DE= -1.12D-02 DEPred=-2.46D+01 R= 4.53D-04
 Trust test= 4.53D-04 RLast= 6.22D+00 DXMaxT set to 5.14D-01
 ITU= -1  0  0  1  0  1  0  1  1 -1  0 -1 -1  1  1  1  0  1  0  0
 ITU=  0  0
 Use linear search instead of GDIIS.
     Eigenvalues ---   -0.76853   0.00023   0.00079   0.00145   0.00230
     Eigenvalues ---    0.00232   0.00236   0.00263   0.00287   0.00332
     Eigenvalues ---    0.00341   0.00667   0.00846   0.01385   0.01592
     Eigenvalues ---    0.01948   0.02281   0.02532   0.02785   0.02809
     Eigenvalues ---    0.03006   0.03223   0.03568   0.03718   0.04065
     Eigenvalues ---    0.05129   0.06057   0.06814   0.07652   0.08205
     Eigenvalues ---    0.08380   0.09475   0.09567   0.10589   0.11612
     Eigenvalues ---    0.11766   0.12745   0.12756   0.13296   0.13524
     Eigenvalues ---    0.13898   0.14276   0.14422   0.14461   0.14599
     Eigenvalues ---    0.14729   0.15000   0.15189   0.15483   0.15825
     Eigenvalues ---    0.15860   0.15994   0.16045   0.16483   0.16723
     Eigenvalues ---    0.17409   0.17717   0.18317   0.19527   0.21056
     Eigenvalues ---    0.21209   0.21733   0.22204   0.22789   0.23698
     Eigenvalues ---    0.23894   0.24298   0.25563   0.27438   0.29837
     Eigenvalues ---    0.32656   0.33306   0.35945   0.40581   0.41846
     Eigenvalues ---    0.48766   0.52879   0.58829   0.64685   0.66411
     Eigenvalues ---    0.69427   0.79480   0.83038   1.09695   1.47623
     Eigenvalues ---    9.39276  63.58423
 RFO step:  Lambda=-8.40678406D-01 EMin=-7.68534396D-01
 Skip linear search -- no minimum in search direction.
 Maximum step size (   0.514) exceeded in Quadratic search.
    -- Step size scaled by   0.531
 Iteration  1 RMS(Cart)=  0.00088401 RMS(Int)=  0.04780143
 SLEqS3 Cycle:   931 Max:0.891810E-01 RMS:0.175784E-01 Conv:0.523778E-04
 SLEqS3 Cycle:   931 Max:0.891755E-01 RMS:0.175769E-01 Conv:0.523778E-04
 Iteration  2 RMS(Cart)=  0.14056395 RMS(Int)=  0.04396529
 SLEqS3 Cycle:   931 Max:0.270132E-01 RMS:0.505633E-02 Conv:0.609017E-02
 SLEqS3 Cycle:    90 Max:0.915940E-01 RMS: 1139.05     Conv:0.609017E-02
 Iteration  3 RMS(Cart)=  0.00057914 RMS(Int)=  0.04389196
 SLEqS3 Cycle:   931 Max:0.936328E-01 RMS:0.175948E-01 Conv:0.940139E-06
 SLEqS3 Cycle:   931 Max:0.936403E-01 RMS:0.175949E-01 Conv:0.940139E-06
 Iteration  4 RMS(Cart)=  0.01215307 RMS(Int)=  0.04361518
 SLEqS3 Cycle:    29 Max:0.849483E-01 RMS:0.182290E-01 Conv:0.109790E-03
 Iteration  5 RMS(Cart)=  0.02712454 RMS(Int)=  0.04428459
 SLEqS3 Cycle:   931 Max:0.425418E-01 RMS:0.647205E-02 Conv:0.226172E-03
 SLEqS3 Cycle:   104 Max:0.882587E-01 RMS:0.180459E-01 Conv:0.226172E-03
 Iteration  6 RMS(Cart)=  0.00029095 RMS(Int)=  0.04432637
 SLEqS3 Cycle:   931 Max:0.958020E-01 RMS:0.180733E-01 Conv:0.217055E-06
 SLEqS3 Cycle:   931 Max:0.927327E-01 RMS:0.175849E-01 Conv:0.217055E-06
 Iteration  7 RMS(Cart)=  0.02546161 RMS(Int)=  0.04365851
 SLEqS3 Cycle:    39 Max:0.978971E-01 RMS: 112.158     Conv:0.597750E-03
 Iteration  8 RMS(Cart)=  0.02712000 RMS(Int)=  0.04329697
 SLEqS3 Cycle:   931 Max:0.668493E-02 RMS:0.965951E-03 Conv:0.215125E-03
 SLEqS3 Cycle:    90 Max:0.976603E-01 RMS: 40.6711     Conv:0.215125E-03
 Iteration  9 RMS(Cart)=  0.00914580 RMS(Int)=  0.04318921
 SLEqS3 Cycle:   931 Max:0.102865     RMS:0.184274E-01 Conv:0.146643E-04
 SLEqS3 Cycle:   931 Max:0.102864     RMS:0.184273E-01 Conv:0.146643E-04
 Iteration 10 RMS(Cart)=  0.02011818 RMS(Int)=  0.04303153
 SLEqS3 Cycle:   931 Max:0.747017E-01 RMS:0.118455E-01 Conv:0.654810E-04
 SLEqS3 Cycle:   104 Max:0.103311     RMS:0.186585E-01 Conv:0.654810E-04
 Iteration 11 RMS(Cart)=  0.00004736 RMS(Int)=  0.04303103
 SLEqS3 Cycle:   931 Max:0.105023     RMS:0.186423E-01 Conv:0.272767E-06
 SLEqS3 Cycle:   931 Max:0.105023     RMS:0.186423E-01 Conv:0.272767E-06
 Iteration 12 RMS(Cart)=  0.01201369 RMS(Int)=  0.04292484
 SLEqS3 Cycle:    30 Max:0.106844     RMS: 6.77597     Conv:0.357735E-04
 Iteration 13 RMS(Cart)=  0.00974636 RMS(Int)=  0.04284391
 SLEqS3 Cycle:    29 Max:0.108550     RMS:0.190031E-01 Conv:0.194328E-04
 Iteration 14 RMS(Cart)=  0.00839055 RMS(Int)=  0.04278108
 SLEqS3 Cycle:   931 Max:0.110022     RMS:0.191686E-01 Conv:0.114331E-04
 SLEqS3 Cycle:   931 Max:0.109984     RMS:0.191630E-01 Conv:0.114331E-04
 Iteration 15 RMS(Cart)=  0.00722972 RMS(Int)=  0.04273294
 SLEqS3 Cycle:   931 Max:0.111206     RMS:0.193020E-01 Conv:0.629228E-05
 SLEqS3 Cycle:   931 Max:0.111206     RMS:0.193019E-01 Conv:0.629228E-05
 Iteration 16 RMS(Cart)=  0.00631340 RMS(Int)=  0.04269576
 SLEqS3 Cycle:   931 Max:0.112344     RMS:0.194378E-01 Conv:0.397378E-06
 SLEqS3 Cycle:   931 Max:0.112351     RMS:0.194388E-01 Conv:0.397378E-06
 Iteration 17 RMS(Cart)=  0.00559389 RMS(Int)=  0.04266673
 SLEqS3 Cycle:   931 Max:0.113359     RMS:0.195611E-01 Conv:0.182606E-05
 SLEqS3 Cycle:   931 Max:0.113360     RMS:0.195612E-01 Conv:0.182606E-05
 Iteration 18 RMS(Cart)=  0.00484036 RMS(Int)=  0.04264465
 SLEqS3 Cycle:   931 Max:0.114249     RMS:0.196708E-01 Conv:0.279891E-05
 SLEqS3 Cycle:   931 Max:0.114252     RMS:0.196713E-01 Conv:0.279891E-05
 Iteration 19 RMS(Cart)=  0.00423306 RMS(Int)=  0.04262767
 SLEqS3 Cycle:   931 Max:0.872726E-01 RMS:0.174136E-01 Conv:0.137389E-05
 SLEqS3 Cycle:   931 Max:0.873014E-01 RMS:0.174143E-01 Conv:0.137389E-05
 Iteration 20 RMS(Cart)=  0.16280569 RMS(Int)=  0.04487457
 SLEqS3 Cycle:   931 Max:0.393782E-01 RMS:0.603347E-02 Conv:0.327045E-02
 SLEqS3 Cycle:    90 Max:0.805243E-01 RMS: 614.208     Conv:0.327045E-02
 Iteration 21 RMS(Cart)=  0.00018375 RMS(Int)=  0.04486760
 SLEqS3 Cycle:   931 Max:0.846197E-01 RMS:0.163819E-01 Conv:0.604873E-06
 SLEqS3 Cycle:   931 Max:0.846207E-01 RMS:0.163821E-01 Conv:0.604873E-06
 Iteration 22 RMS(Cart)=  0.02252233 RMS(Int)=  0.04434782
 SLEqS3 Cycle:    44 Max:0.877092E-01 RMS:0.167585E-01 Conv:0.900391E-04
 Iteration 23 RMS(Cart)=  0.01476627 RMS(Int)=  0.04406600
 SLEqS3 Cycle:   931 Max:0.776598E-01 RMS:0.125988E-01 Conv:0.316357E-04
 SLEqS3 Cycle:   104 Max:0.884772E-01 RMS:0.170251E-01 Conv:0.316357E-04
 Iteration 24 RMS(Cart)=  0.00005966 RMS(Int)=  0.04406721
 SLEqS3 Cycle:   931 Max:0.732147E-01 RMS:0.156927E-01 Conv:0.113531E-06
 SLEqS3 Cycle:   931 Max:0.729291E-01 RMS:0.156931E-01 Conv:0.113531E-06
 Iteration 25 RMS(Cart)=  0.09918658 RMS(Int)=  0.04643570
 SLEqS3 Cycle:    30 Max:0.732607E-01 RMS: 183.445     Conv:0.981847E-03
 Iteration 26 RMS(Cart)=  0.03027056 RMS(Int)=  0.04559655
 SLEqS3 Cycle:    29 Max:0.784264E-01 RMS:0.157388E-01 Conv:0.112398E-03
 Iteration 27 RMS(Cart)=  0.02715955 RMS(Int)=  0.04494782
 SLEqS3 Cycle:    30 Max:0.834826E-01 RMS: 26.8179     Conv:0.142943E-03
 Iteration 28 RMS(Cart)=  0.02386693 RMS(Int)=  0.04443574
 SLEqS3 Cycle:    29 Max:0.878716E-01 RMS:0.166316E-01 Conv:0.782307E-04
 Iteration 29 RMS(Cart)=  0.02096618 RMS(Int)=  0.04403301
 SLEqS3 Cycle:    32 Max:0.695447E-01 RMS:0.170290E-01 Conv:0.598960E-04
 Iteration 30 RMS(Cart)=  0.09005119 RMS(Int)=  0.04616871
 SLEqS3 Cycle:   931 Max:0.510914E-01 RMS:0.916069E-02 Conv:0.628066E-03
 SLEqS3 Cycle:    95 Max:0.662335E-01 RMS: 117.371     Conv:0.628066E-03
 Iteration 31 RMS(Cart)=  0.01304666 RMS(Int)=  0.04580723
 SLEqS3 Cycle:   931 Max:0.626214E-02 RMS:0.908518E-03 Conv:0.709051E-04
 SLEqS3 Cycle:   105 Max:0.672378E-01 RMS: 13.2936     Conv:0.709051E-04
 Iteration 32 RMS(Cart)=  0.01460834 RMS(Int)=  0.04539083
 SLEqS3 Cycle:   931 Max:0.777923E-01 RMS:0.154185E-01 Conv:0.110201E-04
 SLEqS3 Cycle:   931 Max:0.799541E-01 RMS:0.157809E-01 Conv:0.110201E-04
 Iteration 33 RMS(Cart)=  0.04109684 RMS(Int)=  0.04473851
 SLEqS3 Cycle:   931 Max:0.918094E-01 RMS:0.149867E-01 Conv:0.245303E-03
 SLEqS3 Cycle:    90 Max:0.805755E-01 RMS: 46.0407     Conv:0.245303E-03
 Iteration 34 RMS(Cart)=  0.01472387 RMS(Int)=  0.04439193
 SLEqS3 Cycle:   931 Max:0.880616E-01 RMS:0.166545E-01 Conv:0.216306E-04
 SLEqS3 Cycle:   931 Max:0.880633E-01 RMS:0.166548E-01 Conv:0.216306E-04
 Iteration 35 RMS(Cart)=  0.02363158 RMS(Int)=  0.04399926
 SLEqS3 Cycle:    34 Max:0.675863E-01 RMS:0.170875E-01 Conv:0.860659E-04
 Iteration 36 RMS(Cart)=  0.14428494 RMS(Int)=  0.04761996
 SLEqS3 Cycle:   931 Max:0.111252E-01 RMS:0.167105E-02 Conv:0.298238E-02
 SLEqS3 Cycle:    94 Max:0.701560E-01 RMS: 554.405     Conv:0.298238E-02
 Iteration 37 RMS(Cart)=  0.00027429 RMS(Int)=  0.04760577
 SLEqS3 Cycle:   931 Max:0.723399E-01 RMS:0.146232E-01 Conv:0.215856E-05
 SLEqS3 Cycle:   931 Max:0.723405E-01 RMS:0.146235E-01 Conv:0.215856E-05
 Iteration 38 RMS(Cart)=  0.03818554 RMS(Int)=  0.04651702
 SLEqS3 Cycle:    29 Max:0.703635E-01 RMS:0.151125E-01 Conv:0.290274E-03
 Iteration 39 RMS(Cart)=  0.02309066 RMS(Int)=  0.04590756
 SLEqS3 Cycle:    29 Max:0.696887E-01 RMS:0.154710E-01 Conv:0.799760E-04
 Iteration 40 RMS(Cart)=  0.01201962 RMS(Int)=  0.04622474
 SLEqS3 Cycle:   931 Max:0.736578E-01 RMS:0.152970E-01 Conv:0.945673E-05
 SLEqS3 Cycle:   931 Max:0.736587E-01 RMS:0.152971E-01 Conv:0.945673E-05
 Iteration 41 RMS(Cart)=  0.03003488 RMS(Int)=  0.04546018
 SLEqS3 Cycle:    29 Max:0.737087E-01 RMS:0.157878E-01 Conv:0.113123E-03
 Iteration 42 RMS(Cart)=  0.00616038 RMS(Int)=  0.04561237
 SLEqS3 Cycle:   931 Max:0.781201E-01 RMS:0.157058E-01 Conv:0.349932E-05
 SLEqS3 Cycle:   931 Max:0.781204E-01 RMS:0.157059E-01 Conv:0.349932E-05
 Iteration 43 RMS(Cart)=  0.02682548 RMS(Int)=  0.04497561
 SLEqS3 Cycle:    30 Max:0.819422E-01 RMS: 17.3607     Conv:0.925735E-04
 Iteration 44 RMS(Cart)=  0.01758762 RMS(Int)=  0.04459447
 SLEqS3 Cycle:   931 Max:0.864341E-01 RMS:0.165506E-01 Conv:0.221982E-04
 SLEqS3 Cycle:   931 Max:0.864339E-01 RMS:0.165505E-01 Conv:0.221982E-04
 Iteration 45 RMS(Cart)=  0.02133632 RMS(Int)=  0.04417483
 SLEqS3 Cycle:    44 Max:0.892053E-01 RMS:0.170171E-01 Conv:0.532716E-04
 Iteration 46 RMS(Cart)=  0.01369891 RMS(Int)=  0.04393082
 SLEqS3 Cycle:   931 Max:0.765936E-01 RMS:0.125235E-01 Conv:0.112877E-04
 SLEqS3 Cycle:   931 Max:0.930521E-01 RMS:0.172982E-01 Conv:0.112877E-04
 Iteration 47 RMS(Cart)=  0.01713232 RMS(Int)=  0.04365522
 SLEqS3 Cycle:    30 Max:0.956813E-01 RMS: 8.08563     Conv:0.428889E-04
 Iteration 48 RMS(Cart)=  0.01089439 RMS(Int)=  0.04349730
 SLEqS3 Cycle:   931 Max:0.986052E-01 RMS:0.179767E-01 Conv:0.151948E-04
 SLEqS3 Cycle:   931 Max:0.986054E-01 RMS:0.179767E-01 Conv:0.151948E-04
 Iteration 49 RMS(Cart)=  0.01376782 RMS(Int)=  0.04331758
 SLEqS3 Cycle:   931 Max:0.101063     RMS:0.182749E-01 Conv:0.532644E-05
 SLEqS3 Cycle:   931 Max:0.101151     RMS:0.182893E-01 Conv:0.532644E-05
 Iteration 50 RMS(Cart)=  0.01212936 RMS(Int)=  0.04317792
 SLEqS3 Cycle:   931 Max:0.103362     RMS:0.185645E-01 Conv:0.932858E-05
 SLEqS3 Cycle:   931 Max:0.103377     RMS:0.185671E-01 Conv:0.932858E-05
 Iteration 51 RMS(Cart)=  0.01066194 RMS(Int)=  0.04306972
 SLEqS3 Cycle:   931 Max:0.105258     RMS:0.188018E-01 Conv:0.118638E-04
 SLEqS3 Cycle:   931 Max:0.105271     RMS:0.188039E-01 Conv:0.118638E-04
 Iteration 52 RMS(Cart)=  0.00937392 RMS(Int)=  0.04298597
 SLEqS3 Cycle:   931 Max:0.107027     RMS:0.190297E-01 Conv:0.186841E-04
 SLEqS3 Cycle:   776 Max:0.105415     RMS:0.190296E-01 Conv:0.186841E-04
 Iteration 53 RMS(Cart)=  0.00163248 RMS(Int)=  0.04297131
 SLEqS3 Cycle:   931 Max:0.107414     RMS:0.190797E-01 Conv:0.483777E-06
 SLEqS3 Cycle:   931 Max:0.107416     RMS:0.190799E-01 Conv:0.483777E-06
 Iteration 54 RMS(Cart)=  0.00877299 RMS(Int)=  0.04290922
 SLEqS3 Cycle:   931 Max:0.108923     RMS:0.192791E-01 Conv:0.109828E-04
 SLEqS3 Cycle:   931 Max:0.108922     RMS:0.192791E-01 Conv:0.109828E-04
 Iteration 55 RMS(Cart)=  0.00710781 RMS(Int)=  0.04286192
 SLEqS3 Cycle:   931 Max:0.110244     RMS:0.194508E-01 Conv:0.734837E-05
 SLEqS3 Cycle:   931 Max:0.110244     RMS:0.194508E-01 Conv:0.734837E-05
 Iteration 56 RMS(Cart)=  0.00621284 RMS(Int)=  0.04282539
 SLEqS3 Cycle:   931 Max:0.111457     RMS:0.196114E-01 Conv:0.803027E-05
 SLEqS3 Cycle:   931 Max:0.111456     RMS:0.196114E-01 Conv:0.803027E-05
 Iteration 57 RMS(Cart)=  0.00544592 RMS(Int)=  0.04279723
 SLEqS3 Cycle:   931 Max:0.830117E-01 RMS:0.170879E-01 Conv:0.993375E-06
 SLEqS3 Cycle:   931 Max:0.829988E-01 RMS:0.170871E-01 Conv:0.993375E-06
 Iteration 58 RMS(Cart)=  0.16930162 RMS(Int)=  0.04543023
 SLEqS3 Cycle:    15 Max:0.805490E-01 RMS: 632.479     Conv:0.337408E-02
 Iteration 59 RMS(Cart)=  0.02411498 RMS(Int)=  0.04489789
 SLEqS3 Cycle:   258 Max:0.555439E-01 RMS:0.931034E-02 Conv:0.125282E-03
 New curvilinear step failed, DQL= 6.27D+00 SP=-8.95D-02.
 ITry= 1 IFail=1 DXMaxC= 1.06D+00 DCOld= 1.00D+10 DXMaxT= 5.14D-01 DXLimC= 3.00D+00 Rises=F
 Iteration  1 RMS(Cart)=  0.00079603 RMS(Int)=  0.04302121
 SLEqS3 Cycle:   931 Max:0.905122E-01 RMS:0.178019E-01 Conv:0.428331E-04
 SLEqS3 Cycle:   931 Max:0.905069E-01 RMS:0.178006E-01 Conv:0.428331E-04
 Iteration  2 RMS(Cart)=  0.12924861 RMS(Int)=  0.03951315
 SLEqS3 Cycle:   237 Max:0.740589E-02 RMS: 916.595     Conv:0.493184E-02
 New curvilinear step failed, DQL= 6.26D+00 SP=-3.46D-02.
 ITry= 2 IFail=1 DXMaxC= 7.90D-01 DCOld= 1.00D+10 DXMaxT= 5.14D-01 DXLimC= 3.00D+00 Rises=F
 Iteration  1 RMS(Cart)=  0.00070796 RMS(Int)=  0.03824101
 SLEqS3 Cycle:   931 Max:0.926048E-01 RMS:0.180283E-01 Conv:0.340886E-04
 SLEqS3 Cycle:   931 Max:0.925998E-01 RMS:0.180271E-01 Conv:0.340886E-04
 Iteration  2 RMS(Cart)=  0.11718877 RMS(Int)=  0.03507404
 SLEqS3 Cycle:   931 Max: 4331.04     RMS: 799.814     Conv:0.433104E-02
 SLEqS3 Cycle:    90 Max:0.965621E-01 RMS: 799.814     Conv:0.433104E-02
 Iteration  3 RMS(Cart)=  0.00040177 RMS(Int)=  0.03503008
 SLEqS3 Cycle:   931 Max:0.970377E-01 RMS:0.180473E-01 Conv:0.113320E-05
 SLEqS3 Cycle:   931 Max:0.973813E-01 RMS:0.180750E-01 Conv:0.113320E-05
 Iteration  4 RMS(Cart)=  0.00424438 RMS(Int)=  0.03493040
 SLEqS3 Cycle:   931 Max:0.100703     RMS:0.185473E-01 Conv:0.505849E-05
 SLEqS3 Cycle:   931 Max:0.100703     RMS:0.185473E-01 Conv:0.505849E-05
 Iteration  5 RMS(Cart)=  0.02268466 RMS(Int)=  0.03461206
 SLEqS3 Cycle:    29 Max:0.996182E-01 RMS:0.186942E-01 Conv:0.121887E-03
 Iteration  6 RMS(Cart)=  0.00565551 RMS(Int)=  0.03455383
 SLEqS3 Cycle:   931 Max:0.728140E-01 RMS:0.113843E-01 Conv:0.740884E-05
 SLEqS3 Cycle:   931 Max:0.103970     RMS:0.187507E-01 Conv:0.740884E-05
 Iteration  7 RMS(Cart)=  0.01187531 RMS(Int)=  0.03443817
 SLEqS3 Cycle:    15 Max:0.105788     RMS: 6.42249     Conv:0.345759E-04
 Iteration  8 RMS(Cart)=  0.01037710 RMS(Int)=  0.03434202
slurmstepd: error: *** JOB 27449607 ON lewis4-r630-hpc4rc-node384 CANCELLED AT 2023-05-20T03:40:12 DUE TO TIME LIMIT ***
