### Starting Gaussian ###
 Entering Gaussian System, Link 0=g16
 Initial command:
 /cluster/software/gaussian/gaussian-16-A.03/avx2/g16/l1.exe "/local/scratch/yxie/Gau-3947.inp" -scrdir="/local/scratch/yxie/"
 Entering Link 1 = /cluster/software/gaussian/gaussian-16-A.03/avx2/g16/l1.exe PID=      3949.
  
 Copyright (c) 1988,1990,1992,1993,1995,1998,2003,2009,2016,
            Gaussian, Inc.  All Rights Reserved.
  
 This is part of the Gaussian(R) 16 program.  It is based on
 the Gaussian(R) 09 system (copyright 2009, Gaussian, Inc.),
 the Gaussian(R) 03 system (copyright 2003, Gaussian, Inc.),
 the Gaussian(R) 98 system (copyright 1998, Gaussian, Inc.),
 the Gaussian(R) 94 system (copyright 1995, Gaussian, Inc.),
 the Gaussian 92(TM) system (copyright 1992, Gaussian, Inc.),
 the Gaussian 90(TM) system (copyright 1990, Gaussian, Inc.),
 the Gaussian 88(TM) system (copyright 1988, Gaussian, Inc.),
 the Gaussian 86(TM) system (copyright 1986, Carnegie Mellon
 University), and the Gaussian 82(TM) system (copyright 1983,
 Carnegie Mellon University). Gaussian is a federally registered
 trademark of Gaussian, Inc.
  
 This software contains proprietary and confidential information,
 including trade secrets, belonging to Gaussian, Inc.
  
 This software is provided under written license and may be
 used, copied, transmitted, or stored only in accord with that
 written license.
  
 The following legend is applicable only to US Government
 contracts under FAR:
  
                    RESTRICTED RIGHTS LEGEND
  
 Use, reproduction and disclosure by the US Government is
 subject to restrictions as set forth in subparagraphs (a)
 and (c) of the Commercial Computer Software - Restricted
 Rights clause in FAR 52.227-19.
  
 Gaussian, Inc.
 340 Quinnipiac St., Bldg. 40, Wallingford CT 06492
  
  
 ---------------------------------------------------------------
 Warning -- This program may not be used in any manner that
 competes with the business of Gaussian, Inc. or will provide
 assistance to any competitor of Gaussian, Inc.  The licensee
 of this program is prohibited from giving any competitor of
 Gaussian, Inc. access to this program.  By using this program,
 the user acknowledges that Gaussian, Inc. is engaged in the
 business of creating and licensing software in the field of
 computational chemistry and represents and warrants to the
 licensee that it is not a competitor of Gaussian, Inc. and that
 it will not use this program in any manner prohibited above.
 ---------------------------------------------------------------
  

 Cite this work as:
 Gaussian 16, Revision A.03,
 M. J. Frisch, G. W. Trucks, H. B. Schlegel, G. E. Scuseria, 
 M. A. Robb, J. R. Cheeseman, G. Scalmani, V. Barone, 
 G. A. Petersson, H. Nakatsuji, X. Li, M. Caricato, A. V. Marenich, 
 J. Bloino, B. G. Janesko, R. Gomperts, B. Mennucci, H. P. Hratchian, 
 J. V. Ortiz, A. F. Izmaylov, J. L. Sonnenberg, D. Williams-Young, 
 F. Ding, F. Lipparini, F. Egidi, J. Goings, B. Peng, A. Petrone, 
 T. Henderson, D. Ranasinghe, V. G. Zakrzewski, J. Gao, N. Rega, 
 G. Zheng, W. Liang, M. Hada, M. Ehara, K. Toyota, R. Fukuda, 
 J. Hasegawa, M. Ishida, T. Nakajima, Y. Honda, O. Kitao, H. Nakai, 
 T. Vreven, K. Throssell, J. A. Montgomery, Jr., J. E. Peralta, 
 F. Ogliaro, M. J. Bearpark, J. J. Heyd, E. N. Brothers, K. N. Kudin, 
 V. N. Staroverov, T. A. Keith, R. Kobayashi, J. Normand, 
 K. Raghavachari, A. P. Rendell, J. C. Burant, S. S. Iyengar, 
 J. Tomasi, M. Cossi, J. M. Millam, M. Klene, C. Adamo, R. Cammi, 
 J. W. Ochterski, R. L. Martin, K. Morokuma, O. Farkas, 
 J. B. Foresman, and D. J. Fox, Gaussian, Inc., Wallingford CT, 2016.
 
 ******************************************
 Gaussian 16:  ES64L-G16RevA.03 25-Dec-2016
                16-May-2023 
 ******************************************
 %chk=NC1dCCdCqCdOrCdCCdCSCqSrdC1.chk
 %NProcShared=20
 Will use up to   20 processors via shared memory.
 -----------------------------
 # opt freq b3lyp/6-31g(2df,p)
 -----------------------------
 1/18=20,19=15,26=3,38=1/1,3;
 2/9=110,12=2,17=6,18=5,40=1/2;
 3/5=1,6=6,7=104,11=2,25=1,30=1,71=1,74=-5/1,2,3;
 4//1;
 5/5=2,38=5/2;
 6/7=2,8=2,9=2,10=2,28=1/1;
 7//1,2,3,16;
 1/18=20,19=15,26=3/3(2);
 2/9=110/2;
 99//99;
 2/9=110/2;
 3/5=1,6=6,7=104,11=2,25=1,30=1,71=1,74=-5/1,2,3;
 4/5=5,16=3,69=1/1;
 5/5=2,38=5/2;
 7//1,2,3,16;
 1/18=20,19=15,26=3/3(-5);
 2/9=110/2;
 6/7=2,8=2,9=2,10=2,19=2,28=1/1;
 99/9=1/99;
 -------------------
 Title Card Required
 -------------------
 Symbolic Z-matrix:
 Charge =  0 Multiplicity = 1
 N                     2.33633  -0.28657  -0.09118 
 C                     4.45289  -0.68579  -0.35188 
 C                     3.22552  -1.24228  -0.71529 
 C                     4.58378  -1.39311  -0.81378 
 C                     5.17154  -2.35507  -1.44197 
 C                     4.48838  -3.26178  -2.03408 
 O                     3.30515  -3.25179  -2.02755 
 C                     6.75652  -2.62691  -1.61949 
 C                     7.2333   -3.39186  -2.11902 
 C                     8.83218  -1.83858  -1.10469 
 C                     9.03913  -3.35915  -2.09767 
 S                     10.80943  -3.47533  -2.17353 
 C                     8.45527  -2.87949  -1.78443 
 S                     10.69164  -4.23905  -2.67226 
 C                     6.77802  -1.5029   -0.88548 
 H                     0.88907  -0.77294  -0.40879 
 H                     1.01067   0.45163   0.39089 
 H                     2.57805  -1.89982  -1.14467 
 H                     5.59301  -1.08696  -0.61386 
 H                     5.10647  -3.9587   -2.48919 
 H                     7.8354   -1.22238  -0.70229 
 H                     6.94574  -4.14669  -2.61195 
 H                     9.83415  -2.02142  -1.22409 
 H                     9.04738  -4.66511  -2.95049 
 H                     12.28659  -5.3955   -3.42746 
 H                     6.02973  -0.17515  -0.01842 
 
 Add virtual bond connecting atoms H26        and H19        Dist= 2.22D+00.
 Add virtual bond connecting atoms H17        and H16        Dist= 2.77D+00.
 Add virtual bond connecting atoms H16        and N1         Dist= 2.95D+00.
 Add virtual bond connecting atoms H17        and N1         Dist= 3.01D+00.
 Add virtual bond connecting atoms H24        and C11        Dist= 2.95D+00.
 Add virtual bond connecting atoms H25        and S14        Dist= 3.99D+00.

 GradGradGradGradGradGradGradGradGradGradGradGradGradGradGradGradGradGrad
 Berny optimization.
 Initialization pass.
                           ----------------------------
                           !    Initial Parameters    !
                           ! (Angstroms and Degrees)  !
 --------------------------                            --------------------------
 ! Name  Definition              Value          Derivative Info.                !
 --------------------------------------------------------------------------------
 ! R1    R(1,3)                  1.4469         estimate D2E/DX2                !
 ! R2    R(1,16)                 1.5595         estimate D2E/DX2                !
 ! R3    R(1,17)                 1.5921         estimate D2E/DX2                !
 ! R4    R(2,3)                  1.3958         estimate D2E/DX2                !
 ! R5    R(2,4)                  0.8549         estimate D2E/DX2                !
 ! R6    R(2,19)                 1.2367         estimate D2E/DX2                !
 ! R7    R(3,4)                  1.3702         estimate D2E/DX2                !
 ! R8    R(3,18)                 1.0178         estimate D2E/DX2                !
 ! R9    R(4,5)                  1.2905         estimate D2E/DX2                !
 ! R10   R(4,19)                 1.0734         estimate D2E/DX2                !
 ! R11   R(5,6)                  1.2804         estimate D2E/DX2                !
 ! R12   R(5,8)                  1.6179         estimate D2E/DX2                !
 ! R13   R(6,7)                  1.1833         estimate D2E/DX2                !
 ! R14   R(6,20)                 1.0368         estimate D2E/DX2                !
 ! R15   R(8,9)                  1.0305         estimate D2E/DX2                !
 ! R16   R(8,13)                 1.7253         estimate D2E/DX2                !
 ! R17   R(8,15)                 1.3426         estimate D2E/DX2                !
 ! R18   R(9,11)                 1.8063         estimate D2E/DX2                !
 ! R19   R(9,13)                 1.3666         estimate D2E/DX2                !
 ! R20   R(9,22)                 0.9463         estimate D2E/DX2                !
 ! R21   R(10,11)                1.8278         estimate D2E/DX2                !
 ! R22   R(10,13)                1.2991         estimate D2E/DX2                !
 ! R23   R(10,21)                1.239          estimate D2E/DX2                !
 ! R24   R(10,23)                1.0255         estimate D2E/DX2                !
 ! R25   R(11,12)                1.7757         estimate D2E/DX2                !
 ! R26   R(11,13)                0.818          estimate D2E/DX2                !
 ! R27   R(11,14)                1.9584         estimate D2E/DX2                !
 ! R28   R(11,24)                1.5598         estimate D2E/DX2                !
 ! R29   R(12,14)                0.9197         estimate D2E/DX2                !
 ! R30   R(14,25)                2.1099         estimate D2E/DX2                !
 ! R31   R(15,19)                1.2849         estimate D2E/DX2                !
 ! R32   R(15,21)                1.1092         estimate D2E/DX2                !
 ! R33   R(16,17)                1.4676         estimate D2E/DX2                !
 ! R34   R(19,26)                1.1733         estimate D2E/DX2                !
 ! A1    A(3,1,16)             106.0496         estimate D2E/DX2                !
 ! A2    A(3,1,17)             161.5456         estimate D2E/DX2                !
 ! A3    A(3,2,19)             128.7691         estimate D2E/DX2                !
 ! A4    A(1,3,2)               99.4825         estimate D2E/DX2                !
 ! A5    A(1,3,4)              135.4735         estimate D2E/DX2                !
 ! A6    A(1,3,18)             102.5768         estimate D2E/DX2                !
 ! A7    A(2,3,18)             157.9408         estimate D2E/DX2                !
 ! A8    A(4,3,18)             121.9497         estimate D2E/DX2                !
 ! A9    A(2,4,5)              161.7139         estimate D2E/DX2                !
 ! A10   A(3,4,5)              124.6482         estimate D2E/DX2                !
 ! A11   A(3,4,19)             152.5298         estimate D2E/DX2                !
 ! A12   A(5,4,19)              82.822          estimate D2E/DX2                !
 ! A13   A(4,5,6)              120.6608         estimate D2E/DX2                !
 ! A14   A(4,5,8)              128.6698         estimate D2E/DX2                !
 ! A15   A(6,5,8)              110.6694         estimate D2E/DX2                !
 ! A16   A(5,6,7)              121.6679         estimate D2E/DX2                !
 ! A17   A(5,6,20)             111.1576         estimate D2E/DX2                !
 ! A18   A(7,6,20)             127.1746         estimate D2E/DX2                !
 ! A19   A(5,8,9)              129.1349         estimate D2E/DX2                !
 ! A20   A(5,8,15)              79.3411         estimate D2E/DX2                !
 ! A21   A(9,8,15)             151.524          estimate D2E/DX2                !
 ! A22   A(13,8,15)             99.1521         estimate D2E/DX2                !
 ! A23   A(8,9,11)             116.3193         estimate D2E/DX2                !
 ! A24   A(8,9,22)             134.7504         estimate D2E/DX2                !
 ! A25   A(11,9,22)            108.9303         estimate D2E/DX2                !
 ! A26   A(13,9,22)            134.2921         estimate D2E/DX2                !
 ! A27   A(11,10,21)           132.9407         estimate D2E/DX2                !
 ! A28   A(11,10,23)            71.2039         estimate D2E/DX2                !
 ! A29   A(13,10,21)           109.5735         estimate D2E/DX2                !
 ! A30   A(13,10,23)            94.5711         estimate D2E/DX2                !
 ! A31   A(21,10,23)           155.8554         estimate D2E/DX2                !
 ! A32   A(9,11,10)             84.7381         estimate D2E/DX2                !
 ! A33   A(9,11,14)            146.307          estimate D2E/DX2                !
 ! A34   A(9,11,24)             89.0639         estimate D2E/DX2                !
 ! A35   A(10,11,12)           100.9827         estimate D2E/DX2                !
 ! A36   A(10,11,14)           128.9549         estimate D2E/DX2                !
 ! A37   A(12,11,13)           140.0254         estimate D2E/DX2                !
 ! A38   A(12,11,24)            85.2154         estimate D2E/DX2                !
 ! A39   A(13,11,24)           134.7593         estimate D2E/DX2                !
 ! A40   A(14,11,24)            57.2431         estimate D2E/DX2                !
 ! A41   A(8,13,10)             96.7965         estimate D2E/DX2                !
 ! A42   A(8,13,11)            145.6134         estimate D2E/DX2                !
 ! A43   A(9,13,10)            133.4671         estimate D2E/DX2                !
 ! A44   A(12,14,25)           123.5337         estimate D2E/DX2                !
 ! A45   A(8,15,19)            111.8266         estimate D2E/DX2                !
 ! A46   A(8,15,21)            108.4987         estimate D2E/DX2                !
 ! A47   A(19,15,21)           139.6747         estimate D2E/DX2                !
 ! A48   A(2,19,26)             89.0574         estimate D2E/DX2                !
 ! A49   A(4,19,15)            137.3404         estimate D2E/DX2                !
 ! A50   A(4,19,26)            131.7675         estimate D2E/DX2                !
 ! A51   A(15,19,26)            90.8921         estimate D2E/DX2                !
 ! A52   A(10,21,15)           125.9793         estimate D2E/DX2                !
 ! A53   L(5,8,13,15,-1)       178.4932         estimate D2E/DX2                !
 ! A54   L(9,11,12,24,-1)      174.2793         estimate D2E/DX2                !
 ! A55   L(10,11,24,9,-1)      173.802          estimate D2E/DX2                !
 ! A56   L(13,11,14,24,-1)     192.0024         estimate D2E/DX2                !
 ! A57   L(11,14,25,12,-1)     188.4381         estimate D2E/DX2                !
 ! A58   L(2,19,15,26,-1)      179.9495         estimate D2E/DX2                !
 ! A59   L(5,8,13,15,-2)       179.9999         estimate D2E/DX2                !
 ! A60   L(9,11,12,24,-2)      180.0005         estimate D2E/DX2                !
 ! A61   L(10,11,24,9,-2)      180.0004         estimate D2E/DX2                !
 ! A62   L(13,11,14,24,-2)     180.0011         estimate D2E/DX2                !
 ! A63   L(11,14,25,12,-2)     180.0004         estimate D2E/DX2                !
 ! A64   L(2,19,15,26,-2)      179.9998         estimate D2E/DX2                !
 ! D1    D(16,1,3,2)          -179.9997         estimate D2E/DX2                !
 ! D2    D(16,1,3,4)          -179.9995         estimate D2E/DX2                !
 ! D3    D(16,1,3,18)           -0.0006         estimate D2E/DX2                !
 ! D4    D(17,1,3,2)          -179.9998         estimate D2E/DX2                !
 ! D5    D(17,1,3,4)          -179.9995         estimate D2E/DX2                !
 ! D6    D(17,1,3,18)           -0.0006         estimate D2E/DX2                !
 ! D7    D(19,2,3,1)          -179.9998         estimate D2E/DX2                !
 ! D8    D(19,2,3,18)            0.0025         estimate D2E/DX2                !
 ! D9    D(3,2,19,26)          179.9997         estimate D2E/DX2                !
 ! D10   D(1,3,4,5)            179.9999         estimate D2E/DX2                !
 ! D11   D(1,3,4,19)            -0.0013         estimate D2E/DX2                !
 ! D12   D(18,3,4,5)             0.0011         estimate D2E/DX2                !
 ! D13   D(18,3,4,19)          179.9999         estimate D2E/DX2                !
 ! D14   D(2,4,5,6)           -179.9996         estimate D2E/DX2                !
 ! D15   D(2,4,5,8)              0.0004         estimate D2E/DX2                !
 ! D16   D(3,4,5,6)             -0.0003         estimate D2E/DX2                !
 ! D17   D(3,4,5,8)            179.9997         estimate D2E/DX2                !
 ! D18   D(19,4,5,6)          -179.9998         estimate D2E/DX2                !
 ! D19   D(19,4,5,8)             0.0003         estimate D2E/DX2                !
 ! D20   D(3,4,19,15)         -179.9994         estimate D2E/DX2                !
 ! D21   D(3,4,19,26)            0.0012         estimate D2E/DX2                !
 ! D22   D(5,4,19,15)           -0.0003         estimate D2E/DX2                !
 ! D23   D(5,4,19,26)         -179.9998         estimate D2E/DX2                !
 ! D24   D(4,5,6,7)             -0.0003         estimate D2E/DX2                !
 ! D25   D(4,5,6,20)          -180.0            estimate D2E/DX2                !
 ! D26   D(8,5,6,7)            179.9997         estimate D2E/DX2                !
 ! D27   D(8,5,6,20)             0.0            estimate D2E/DX2                !
 ! D28   D(4,5,8,9)            179.9996         estimate D2E/DX2                !
 ! D29   D(4,5,8,15)            -0.0001         estimate D2E/DX2                !
 ! D30   D(6,5,8,9)             -0.0004         estimate D2E/DX2                !
 ! D31   D(6,5,8,15)           179.9999         estimate D2E/DX2                !
 ! D32   D(4,5,13,10)           -0.0003         estimate D2E/DX2                !
 ! D33   D(4,5,13,11)         -179.9992         estimate D2E/DX2                !
 ! D34   D(6,5,13,10)          179.9998         estimate D2E/DX2                !
 ! D35   D(6,5,13,11)            0.0008         estimate D2E/DX2                !
 ! D36   D(5,8,9,11)           179.9998         estimate D2E/DX2                !
 ! D37   D(5,8,9,22)             0.0007         estimate D2E/DX2                !
 ! D38   D(15,8,9,11)           -0.0007         estimate D2E/DX2                !
 ! D39   D(15,8,9,22)         -179.9998         estimate D2E/DX2                !
 ! D40   D(15,8,13,10)          -0.0001         estimate D2E/DX2                !
 ! D41   D(15,8,13,11)        -179.999          estimate D2E/DX2                !
 ! D42   D(5,8,15,19)            0.0            estimate D2E/DX2                !
 ! D43   D(5,8,15,21)          179.9999         estimate D2E/DX2                !
 ! D44   D(9,8,15,19)         -179.9997         estimate D2E/DX2                !
 ! D45   D(9,8,15,21)            0.0002         estimate D2E/DX2                !
 ! D46   D(13,8,15,19)        -180.0            estimate D2E/DX2                !
 ! D47   D(13,8,15,21)          -0.0001         estimate D2E/DX2                !
 ! D48   D(8,9,11,10)            0.0004         estimate D2E/DX2                !
 ! D49   D(8,9,11,14)          179.9995         estimate D2E/DX2                !
 ! D50   D(8,9,11,24)         -179.9999         estimate D2E/DX2                !
 ! D51   D(22,9,11,10)         179.9998         estimate D2E/DX2                !
 ! D52   D(22,9,11,14)          -0.0012         estimate D2E/DX2                !
 ! D53   D(22,9,11,24)          -0.0006         estimate D2E/DX2                !
 ! D54   D(22,9,13,10)         179.9995         estimate D2E/DX2                !
 ! D55   D(21,10,11,9)          -0.0002         estimate D2E/DX2                !
 ! D56   D(21,10,11,12)       -179.9996         estimate D2E/DX2                !
 ! D57   D(21,10,11,14)       -179.9995         estimate D2E/DX2                !
 ! D58   D(23,10,11,9)         179.9997         estimate D2E/DX2                !
 ! D59   D(23,10,11,12)          0.0002         estimate D2E/DX2                !
 ! D60   D(23,10,11,14)          0.0004         estimate D2E/DX2                !
 ! D61   D(21,10,13,8)           0.0003         estimate D2E/DX2                !
 ! D62   D(21,10,13,9)           0.0002         estimate D2E/DX2                !
 ! D63   D(23,10,13,8)        -179.9999         estimate D2E/DX2                !
 ! D64   D(23,10,13,9)        -180.0            estimate D2E/DX2                !
 ! D65   D(11,10,21,15)         -0.0002         estimate D2E/DX2                !
 ! D66   D(13,10,21,15)         -0.0004         estimate D2E/DX2                !
 ! D67   D(23,10,21,15)       -179.9999         estimate D2E/DX2                !
 ! D68   D(12,11,13,8)        -179.9999         estimate D2E/DX2                !
 ! D69   D(24,11,13,8)          -0.0017         estimate D2E/DX2                !
 ! D70   D(25,12,14,11)       -179.9996         estimate D2E/DX2                !
 ! D71   D(8,15,19,4)            0.0003         estimate D2E/DX2                !
 ! D72   D(8,15,19,26)         179.9999         estimate D2E/DX2                !
 ! D73   D(21,15,19,4)        -179.9995         estimate D2E/DX2                !
 ! D74   D(21,15,19,26)          0.0            estimate D2E/DX2                !
 ! D75   D(8,15,21,10)           0.0003         estimate D2E/DX2                !
 ! D76   D(19,15,21,10)       -179.9998         estimate D2E/DX2                !
 --------------------------------------------------------------------------------
 Trust Radius=3.00D-01 FncErr=1.00D-07 GrdErr=1.00D-06 EigMax=2.50D+02 EigMin=1.00D-04
 Number of steps in this run=    156 maximum allowed number of steps=    156.
 GradGradGradGradGradGradGradGradGradGradGradGradGradGradGradGradGradGrad

                          Input orientation:                          
 ---------------------------------------------------------------------
 Center     Atomic      Atomic             Coordinates (Angstroms)
 Number     Number       Type             X           Y           Z
 ---------------------------------------------------------------------
      1          7           0        2.336330   -0.286570   -0.091180
      2          6           0        4.452890   -0.685790   -0.351880
      3          6           0        3.225520   -1.242280   -0.715290
      4          6           0        4.583780   -1.393110   -0.813780
      5          6           0        5.171540   -2.355070   -1.441970
      6          6           0        4.488380   -3.261780   -2.034080
      7          8           0        3.305150   -3.251790   -2.027550
      8          6           0        6.756520   -2.626910   -1.619490
      9          6           0        7.233300   -3.391860   -2.119020
     10          6           0        8.832180   -1.838580   -1.104690
     11          6           0        9.039130   -3.359150   -2.097670
     12         16           0       10.809430   -3.475330   -2.173530
     13          6           0        8.455270   -2.879490   -1.784430
     14         16           0       10.691640   -4.239050   -2.672260
     15          6           0        6.778020   -1.502900   -0.885480
     16          1           0        0.889070   -0.772940   -0.408790
     17          1           0        1.010670    0.451630    0.390890
     18          1           0        2.578050   -1.899820   -1.144670
     19          1           0        5.593010   -1.086960   -0.613860
     20          1           0        5.106470   -3.958700   -2.489190
     21          1           0        7.835400   -1.222380   -0.702290
     22          1           0        6.945740   -4.146690   -2.611950
     23          1           0        9.834150   -2.021420   -1.224090
     24          1           0        9.047380   -4.665110   -2.950490
     25          1           0       12.286590   -5.395500   -3.427460
     26          1           0        6.029730   -0.175150   -0.018420
 ---------------------------------------------------------------------
                    Distance matrix (angstroms):
                    1          2          3          4          5
     1  N    0.000000
     2  C    2.169601   0.000000
     3  C    1.446912   1.395774   0.000000
     4  C    2.607223   0.854860   1.370153   0.000000
     5  C    3.760551   2.119257   2.356557   1.290524   0.000000
     6  C    4.154281   3.076813   2.722573   2.233867   1.280400
     7  O    3.671603   3.272542   2.401353   2.561801   2.151842
     8  C    5.229819   3.268255   3.899069   2.625306   1.617891
     9  C    6.142905   4.263365   4.759564   3.566316   2.405033
    10  C    6.755147   4.590624   5.651711   4.281586   3.712251
    11  C    7.641615   5.588223   6.339572   5.036252   4.049243
    12  S    9.289661   7.176736   8.039196   6.703975   5.794477
    13  C    6.857970   4.783677   5.583350   4.259099   3.342930
    14  S    9.596628   7.545318   8.279693   6.989941   5.961082
    15  C    4.673220   2.521632   3.566110   2.198155   1.901750
    16  H    1.559485   3.565340   2.402753   3.768224   4.680827
    17  H    1.592076   3.700582   2.999754   4.197786   5.343199
    18  H    1.941866   2.370108   1.017813   2.095041   2.649874
    19  H    3.394081   1.236707   2.374747   1.073425   1.572102
    20  H    5.187356   3.963231   3.750151   3.108449   1.916385
    21  H    5.611503   3.442686   4.609941   3.258007   2.987685
    22  H    6.519315   4.827012   5.086546   4.049009   2.779666
    23  H    7.778849   5.612719   6.673824   5.303726   4.679607
    24  H    8.507964   6.610378   7.113785   5.932558   4.757526
    25  H   11.672172   9.644035  10.329961   9.065524   7.988136
    26  H    3.695797   1.690672   3.080258   2.051047   2.741357
                    6          7          8          9         10
     6  C    0.000000
     7  O    1.183290   0.000000
     8  C    2.391528   3.531139   0.000000
     9  C    2.749313   3.931711   1.030533   0.000000
    10  C    4.664532   5.779005   2.279221   2.449074   0.000000
    11  C    4.552236   5.735414   2.444410   1.806252   1.827832
    12  S    6.326193   7.509028   4.177662   3.577519   2.780447
    13  C    3.993080   5.169280   1.725327   1.366632   1.299077
    14  S    6.312113   7.480011   4.380923   3.603321   3.417181
    15  C    3.107313   4.052625   1.342621   2.301537   2.092918
    16  H    4.668075   3.821325   6.271361   7.073393   8.044430
    17  H    5.635988   4.982852   6.821571   7.732605   8.286003
    18  H    2.509053   1.770868   4.267754   4.984666   6.254558
    19  H    2.822601   3.452436   2.176349   3.204469   3.361260
    20  H    1.036754   1.989368   2.291879   2.231981   4.504738
    21  H    4.139488   5.137897   1.994478   2.660130   1.239031
    22  H    2.674999   3.794241   1.824969   0.946276   3.340338
    23  H    5.547237   6.692324   3.161450   3.073016   1.025490
    24  H    4.857327   5.985190   3.342732   2.367149   3.382685
    25  H    8.204045   9.339245   6.443254   5.591273   5.475389
    26  H    3.995739   4.574457   3.017081   4.025956   3.435216
                   11         12         13         14         15
    11  C    0.000000
    12  S    1.775729   0.000000
    13  C    0.817976   2.459369   0.000000
    14  S    1.958358   0.919714   2.763693   0.000000
    15  C    3.166652   4.669242   2.348676   5.098580   0.000000
    16  H    8.715749  10.432198   7.973539  10.640846   5.953134
    17  H    9.228821  10.863377   8.440998  11.185104   6.221867
    18  H    6.692041   8.443720   5.992559   8.581135   4.226638
    19  H    4.386375   5.945412   3.574343   6.337879   1.284925
    20  H    3.997319   5.732106   3.588292   5.595197   3.375932
    21  H    2.821673   4.010634   2.073953   4.597737   1.109190
    22  H    2.294991   3.946015   2.137584   3.747524   3.162033
    23  H    1.784578   1.991598   1.718015   2.783948   3.118245
    24  H    1.559776   2.263639   2.213307   1.721200   4.406113
    25  H    4.057223   2.727892   4.869175   2.109874   7.208213
    26  H    4.849497   6.195258   4.039244   6.729900   1.753468
                   16         17         18         19         20
    16  H    0.000000
    17  H    1.467599   0.000000
    18  H    2.159637   3.216200   0.000000
    19  H    4.718868   4.937066   3.167410   0.000000
    20  H    5.680105   6.672440   3.526986   3.464170   0.000000
    21  H    6.967039   7.111560   5.319244   2.248215   4.257642
    22  H    7.274569   8.086201   5.126212   3.896690   1.852923
    23  H    9.068510   9.304727   7.257553   4.385529   5.263505
    24  H    9.389742  10.096264   7.263611   5.495059   4.030209
    25  H   12.664276  13.263299  10.568191   8.442978   7.382335
    26  H    5.190003   5.074579   4.019580   1.173316   4.612197
                   21         22         23         24         25
    21  H    0.000000
    22  H    3.604148   0.000000
    23  H    2.214891   3.845236   0.000000
    24  H    4.286687   2.190949   3.254007   0.000000
    25  H    6.682408   5.545202   4.717385   3.354616   0.000000
    26  H    2.196546   4.831004   4.397268   6.153291   8.833001
                   26
    26  H    0.000000
 Stoichiometry    C11H11NOS2
 Framework group  C1[X(C11H11NOS2)]
 Deg. of freedom    72
 Full point group                 C1      NOp   1
 Largest Abelian subgroup         C1      NOp   1
 Largest concise Abelian subgroup C1      NOp   1
                         Standard orientation:                         
 ---------------------------------------------------------------------
 Center     Atomic      Atomic             Coordinates (Angstroms)
 Number     Number       Type             X           Y           Z
 ---------------------------------------------------------------------
      1          7           0       -5.358803   -0.857078   -0.000000
      2          6           0       -3.215687   -1.195049   -0.000002
      3          6           0       -4.111131   -0.124364    0.000003
      4          6           0       -2.782271   -0.458207   -0.000002
      5          6           0       -1.811997    0.392687    0.000001
      6          6           0       -2.047282    1.651284    0.000003
      7          8           0       -3.151392    2.076862   -0.000002
      8          6           0       -0.219082    0.109502    0.000001
      9          6           0        0.561208    0.782662   -0.000002
     10          6           0        1.362584   -1.531589    0.000002
     11          6           0        2.225148    0.079918    0.000006
     12         16           0        3.921689   -0.444452   -0.000001
     13          6           0        1.471082   -0.237051   -0.000001
     14         16           0        4.148839    0.446770   -0.000002
     15          6           0       -0.694530   -1.146118    0.000001
     16          1           0       -6.489523    0.216916   -0.000003
     17          1           0       -6.916262   -1.187271   -0.000004
     18          1           0       -4.423075    0.844467   -0.000007
     19          1           0       -1.979224   -1.170496    0.000002
     20          1           0       -1.165641    2.196781    0.000005
     21          1           0        0.164564   -1.847730   -0.000001
     22          1           0        0.626655    1.726673    0.000002
     23          1           0        2.374415   -1.698407    0.000002
     24          1           0        2.808443    1.526524   -0.000001
     25          1           0        6.140931    1.141852    0.000003
     26          1           0       -1.975231   -2.343805   -0.000001
 ---------------------------------------------------------------------
 Rotational constants (GHZ):           2.2419396           0.2104304           0.1923740
 Standard basis: 6-31G(2df,p) (6D, 7F)
 There are   528 symmetry adapted cartesian basis functions of A   symmetry.
 There are   483 symmetry adapted basis functions of A   symmetry.
   483 basis functions,   785 primitive gaussians,   528 cartesian basis functions
    62 alpha electrons       62 beta electrons
       nuclear repulsion energy      1282.5378935335 Hartrees.
 NAtoms=   26 NActive=   26 NUniq=   26 SFac= 1.00D+00 NAtFMM=   60 NAOKFM=F Big=F
 Integral buffers will be    131072 words long.
 Raffenetti 2 integral format.
 Two-electron integral symmetry is turned on.
 One-electron integrals computed using PRISM.
 PrsmSu:  requested number of processors reduced to:  12 ShMem   1 Linda.
 NBasis=   483 RedAO= T EigKep=  5.77D-06  NBF=   483
 NBsUse=   483 1.00D-06 EigRej= -1.00D+00 NBFU=   483
 ExpMin= 1.17D-01 ExpMax= 2.19D+04 ExpMxC= 3.30D+03 IAcc=3 IRadAn=         5 AccDes= 0.00D+00
 Harris functional with IExCor=  402 and IRadAn=       5 diagonalized for initial guess.
 HarFok:  IExCor=  402 AccDes= 0.00D+00 IRadAn=         5 IDoV= 1 UseB2=F ITyADJ=14
 ICtDFT=  3500011 ScaDFX=  1.000000  1.000000  1.000000  1.000000
 FoFCou: FMM=F IPFlag=           0 FMFlag=      100000 FMFlg1=           0
         NFxFlg=           0 DoJE=T BraDBF=F KetDBF=T FulRan=T
         wScrn=  0.000000 ICntrl=       500 IOpCl=  0 I1Cent=   200000004 NGrid=           0
         NMat0=    1 NMatS0=      1 NMatT0=    0 NMatD0=    1 NMtDS0=    0 NMtDT0=    0
 Petite list used in FoFCou.
 Requested convergence on RMS density matrix=1.00D-08 within 128 cycles.
 Requested convergence on MAX density matrix=1.00D-06.
 Requested convergence on             energy=1.00D-06.
 No special actions if energy rises.
 Integral accuracy reduced to 1.0D-05 until final iterations.
 EnCoef did   100 forward-backward iterations
 EnCoef did     3 forward-backward iterations
 EnCoef did     3 forward-backward iterations
 EnCoef did     5 forward-backward iterations
 EnCoef did     2 forward-backward iterations
 EnCoef did     1 forward-backward iterations
 EnCoef did     3 forward-backward iterations
 EnCoef did     2 forward-backward iterations
 EnCoef did   100 forward-backward iterations
 EnCoef did   100 forward-backward iterations
 Restarting incremental Fock formation.
 Problem detected with inexpensive integrals.
 Switching to full accuracy and repeating last cycle.
 SCF Done:  E(RB3LYP) =  -1344.89396200     A.U. after   39 cycles
            NFock= 39  Conv=0.33D-08     -V/T= 1.9841

 **********************************************************************

            Population analysis using the SCF density.

 **********************************************************************

 Orbital symmetries:
       Occupied  (A) (A) (A) (A) (A) (A) (A) (A) (A) (A) (A) (A)
                 (A) (A) (A) (A) (A) (A) (A) (A) (A) (A) (A) (A)
                 (A) (A) (A) (A) (A) (A) (A) (A) (A) (A) (A) (A)
                 (A) (A) (A) (A) (A) (A) (A) (A) (A) (A) (A) (A)
                 (A) (A) (A) (A) (A) (A) (A) (A) (A) (A) (A) (A)
                 (A) (A)
       Virtual   (A) (A) (A) (A) (A) (A) (A) (A) (A) (A) (A) (A)
                 (A) (A) (A) (A) (A) (A) (A) (A) (A) (A) (A) (A)
                 (A) (A) (A) (A) (A) (A) (A) (A) (A) (A) (A) (A)
                 (A) (A) (A) (A) (A) (A) (A) (A) (A) (A) (A) (A)
                 (A) (A) (A) (A) (A) (A) (A) (A) (A) (A) (A) (A)
                 (A) (A) (A) (A) (A) (A) (A) (A) (A) (A) (A) (A)
                 (A) (A) (A) (A) (A) (A) (A) (A) (A) (A) (A) (A)
                 (A) (A) (A) (A) (A) (A) (A) (A) (A) (A) (A) (A)
                 (A) (A) (A) (A) (A) (A) (A) (A) (A) (A) (A) (A)
                 (A) (A) (A) (A) (A) (A) (A) (A) (A) (A) (A) (A)
                 (A) (A) (A) (A) (A) (A) (A) (A) (A) (A) (A) (A)
                 (A) (A) (A) (A) (A) (A) (A) (A) (A) (A) (A) (A)
                 (A) (A) (A) (A) (A) (A) (A) (A) (A) (A) (A) (A)
                 (A) (A) (A) (A) (A) (A) (A) (A) (A) (A) (A) (A)
                 (A) (A) (A) (A) (A) (A) (A) (A) (A) (A) (A) (A)
                 (A) (A) (A) (A) (A) (A) (A) (A) (A) (A) (A) (A)
                 (A) (A) (A) (A) (A) (A) (A) (A) (A) (A) (A) (A)
                 (A) (A) (A) (A) (A) (A) (A) (A) (A) (A) (A) (A)
                 (A) (A) (A) (A) (A) (A) (A) (A) (A) (A) (A) (A)
                 (A) (A) (A) (A) (A) (A) (A) (A) (A) (A) (A) (A)
                 (A) (A) (A) (A) (A) (A) (A) (A) (A) (A) (A) (A)
                 (A) (A) (A) (A) (A) (A) (A) (A) (A) (A) (A) (A)
                 (A) (A) (A) (A) (A) (A) (A) (A) (A) (A) (A) (A)
                 (A) (A) (A) (A) (A) (A) (A) (A) (A) (A) (A) (A)
                 (A) (A) (A) (A) (A) (A) (A) (A) (A) (A) (A) (A)
                 (A) (A) (A) (A) (A) (A) (A) (A) (A) (A) (A) (A)
                 (A) (A) (A) (A) (A) (A) (A) (A) (A) (A) (A) (A)
                 (A) (A) (A) (A) (A) (A) (A) (A) (A) (A) (A) (A)
                 (A) (A) (A) (A) (A) (A) (A) (A) (A) (A) (A) (A)
                 (A) (A) (A) (A) (A) (A) (A) (A) (A) (A) (A) (A)
                 (A) (A) (A) (A) (A) (A) (A) (A) (A) (A) (A) (A)
                 (A) (A) (A) (A) (A) (A) (A) (A) (A) (A) (A) (A)
                 (A) (A) (A) (A) (A) (A) (A) (A) (A) (A) (A) (A)
                 (A) (A) (A) (A) (A) (A) (A) (A) (A) (A) (A) (A)
                 (A) (A) (A) (A) (A) (A) (A) (A) (A) (A) (A) (A)
                 (A)
 The electronic state is 1-A.
 Alpha  occ. eigenvalues --  -89.18935 -89.17590 -19.08589 -14.37970 -10.31001
 Alpha  occ. eigenvalues --  -10.25544 -10.24955 -10.21710 -10.20633 -10.20540
 Alpha  occ. eigenvalues --  -10.20320 -10.18981 -10.18239 -10.18160 -10.18085
 Alpha  occ. eigenvalues --   -8.55791  -8.26648  -6.55371  -6.32320  -6.32307
 Alpha  occ. eigenvalues --   -6.24336  -6.24307  -6.17759  -1.12342  -1.09277
 Alpha  occ. eigenvalues --   -1.03586  -1.02148  -0.92504  -0.88990  -0.82536
 Alpha  occ. eigenvalues --   -0.80582  -0.78317  -0.77593  -0.74895  -0.70134
 Alpha  occ. eigenvalues --   -0.66045  -0.63411  -0.59999  -0.58677  -0.56310
 Alpha  occ. eigenvalues --   -0.56091  -0.55006  -0.49318  -0.48456  -0.47454
 Alpha  occ. eigenvalues --   -0.46214  -0.42551  -0.41313  -0.39800  -0.37922
 Alpha  occ. eigenvalues --   -0.37695  -0.35051  -0.31679  -0.30429  -0.30124
 Alpha  occ. eigenvalues --   -0.29089  -0.27857  -0.23515  -0.22880  -0.20528
 Alpha  occ. eigenvalues --   -0.16926  -0.14942
 Alpha virt. eigenvalues --   -0.13244  -0.11074  -0.07980  -0.06231  -0.05913
 Alpha virt. eigenvalues --   -0.01924  -0.01871  -0.00429  -0.00125   0.03763
 Alpha virt. eigenvalues --    0.04980   0.05353   0.08093   0.11227   0.11373
 Alpha virt. eigenvalues --    0.13113   0.13871   0.16939   0.21135   0.21267
 Alpha virt. eigenvalues --    0.22359   0.23168   0.24235   0.25625   0.26588
 Alpha virt. eigenvalues --    0.26656   0.28129   0.30649   0.31640   0.32959
 Alpha virt. eigenvalues --    0.33644   0.35029   0.35433   0.35690   0.38437
 Alpha virt. eigenvalues --    0.38654   0.39245   0.39903   0.40979   0.41658
 Alpha virt. eigenvalues --    0.42773   0.44237   0.45581   0.45932   0.47205
 Alpha virt. eigenvalues --    0.48151   0.49118   0.49248   0.49940   0.51174
 Alpha virt. eigenvalues --    0.51600   0.53819   0.55241   0.56356   0.56923
 Alpha virt. eigenvalues --    0.57896   0.58424   0.58680   0.59831   0.61405
 Alpha virt. eigenvalues --    0.61758   0.62556   0.63790   0.65693   0.65861
 Alpha virt. eigenvalues --    0.67761   0.69107   0.69484   0.70398   0.70807
 Alpha virt. eigenvalues --    0.72034   0.72815   0.74040   0.74486   0.75380
 Alpha virt. eigenvalues --    0.76045   0.76832   0.77763   0.80619   0.80676
 Alpha virt. eigenvalues --    0.81858   0.82420   0.82642   0.84450   0.86422
 Alpha virt. eigenvalues --    0.86638   0.88527   0.89437   0.90645   0.91179
 Alpha virt. eigenvalues --    0.92282   0.92551   0.92587   0.96206   0.97983
 Alpha virt. eigenvalues --    0.98582   0.99761   1.01427   1.01532   1.01735
 Alpha virt. eigenvalues --    1.03165   1.05225   1.06280   1.08152   1.10495
 Alpha virt. eigenvalues --    1.11036   1.12173   1.13158   1.15059   1.15930
 Alpha virt. eigenvalues --    1.18443   1.18906   1.20037   1.20449   1.21815
 Alpha virt. eigenvalues --    1.21927   1.23529   1.26010   1.26175   1.27034
 Alpha virt. eigenvalues --    1.28246   1.28840   1.29469   1.30486   1.30569
 Alpha virt. eigenvalues --    1.32796   1.34355   1.36142   1.36420   1.37584
 Alpha virt. eigenvalues --    1.38204   1.39400   1.39765   1.42266   1.42839
 Alpha virt. eigenvalues --    1.43498   1.43899   1.46350   1.49662   1.50462
 Alpha virt. eigenvalues --    1.51799   1.53646   1.53685   1.55505   1.56036
 Alpha virt. eigenvalues --    1.56407   1.57816   1.59187   1.59334   1.61533
 Alpha virt. eigenvalues --    1.64607   1.66026   1.66853   1.69012   1.69214
 Alpha virt. eigenvalues --    1.71514   1.73073   1.73867   1.74659   1.74697
 Alpha virt. eigenvalues --    1.78755   1.80384   1.81187   1.81781   1.84172
 Alpha virt. eigenvalues --    1.84478   1.86062   1.88034   1.91102   1.92795
 Alpha virt. eigenvalues --    1.92914   1.93365   1.93901   1.98705   1.99217
 Alpha virt. eigenvalues --    2.00955   2.03963   2.04505   2.07331   2.08107
 Alpha virt. eigenvalues --    2.08915   2.09417   2.10794   2.11102   2.11641
 Alpha virt. eigenvalues --    2.13929   2.14983   2.15708   2.15908   2.17490
 Alpha virt. eigenvalues --    2.18711   2.21466   2.22873   2.26721   2.27457
 Alpha virt. eigenvalues --    2.30246   2.31063   2.33144   2.33269   2.34110
 Alpha virt. eigenvalues --    2.38321   2.38535   2.40200   2.42434   2.44952
 Alpha virt. eigenvalues --    2.45267   2.46318   2.49131   2.53794   2.54332
 Alpha virt. eigenvalues --    2.54468   2.58578   2.60468   2.60613   2.62585
 Alpha virt. eigenvalues --    2.64273   2.66498   2.67961   2.68461   2.70859
 Alpha virt. eigenvalues --    2.71278   2.73941   2.75970   2.76960   2.79097
 Alpha virt. eigenvalues --    2.83052   2.83356   2.88365   2.89207   2.90054
 Alpha virt. eigenvalues --    2.92584   2.94096   2.96096   2.97828   2.98759
 Alpha virt. eigenvalues --    2.99367   3.00262   3.01882   3.04026   3.06448
 Alpha virt. eigenvalues --    3.08494   3.09128   3.09893   3.11890   3.13532
 Alpha virt. eigenvalues --    3.14602   3.17065   3.18137   3.18943   3.19376
 Alpha virt. eigenvalues --    3.19867   3.20485   3.22099   3.25796   3.26034
 Alpha virt. eigenvalues --    3.28041   3.30043   3.30962   3.31790   3.33247
 Alpha virt. eigenvalues --    3.34193   3.38714   3.38882   3.40774   3.41444
 Alpha virt. eigenvalues --    3.43867   3.45306   3.45920   3.47346   3.48006
 Alpha virt. eigenvalues --    3.51044   3.52099   3.53210   3.54189   3.54836
 Alpha virt. eigenvalues --    3.56971   3.57471   3.61158   3.61218   3.63689
 Alpha virt. eigenvalues --    3.63783   3.66339   3.67285   3.70203   3.71125
 Alpha virt. eigenvalues --    3.72431   3.75417   3.77388   3.77637   3.78064
 Alpha virt. eigenvalues --    3.78582   3.80049   3.82568   3.82859   3.84159
 Alpha virt. eigenvalues --    3.84491   3.86852   3.87190   3.91102   3.91840
 Alpha virt. eigenvalues --    3.93786   3.95678   3.99248   4.01278   4.01787
 Alpha virt. eigenvalues --    4.02896   4.09234   4.09880   4.11989   4.13658
 Alpha virt. eigenvalues --    4.17371   4.17491   4.19379   4.19654   4.22228
 Alpha virt. eigenvalues --    4.22506   4.22987   4.25407   4.28942   4.30416
 Alpha virt. eigenvalues --    4.33359   4.36303   4.37404   4.37811   4.38259
 Alpha virt. eigenvalues --    4.40508   4.41084   4.41575   4.44707   4.44891
 Alpha virt. eigenvalues --    4.45535   4.47643   4.49645   4.51866   4.53800
 Alpha virt. eigenvalues --    4.57486   4.57622   4.61562   4.62889   4.64761
 Alpha virt. eigenvalues --    4.65666   4.66475   4.69509   4.72410   4.74813
 Alpha virt. eigenvalues --    4.75892   4.77709   4.82451   4.84015   4.86743
 Alpha virt. eigenvalues --    4.87360   4.87550   4.96356   4.96431   4.98638
 Alpha virt. eigenvalues --    5.03307   5.03808   5.05770   5.08231   5.09489
 Alpha virt. eigenvalues --    5.12037   5.13682   5.13797   5.19774   5.22274
 Alpha virt. eigenvalues --    5.25627   5.26121   5.33796   5.38532   5.39297
 Alpha virt. eigenvalues --    5.40915   5.43702   5.47526   5.51131   5.54518
 Alpha virt. eigenvalues --    5.56541   5.59529   5.62121   5.68415   5.72067
 Alpha virt. eigenvalues --    5.72842   5.77991   5.79493   5.89541   5.91294
 Alpha virt. eigenvalues --    6.02015   6.07871   6.10626   6.10879   6.23091
 Alpha virt. eigenvalues --    6.33646   6.33690   6.48779   6.52369   6.53494
 Alpha virt. eigenvalues --    6.63804   6.70656   6.88750   7.00047   7.11122
 Alpha virt. eigenvalues --    7.24018   7.68336   8.02801   8.14104   8.73241
 Alpha virt. eigenvalues --    9.61121  10.41241  10.63560  10.66934  11.03529
 Alpha virt. eigenvalues --   11.16701  11.35097  11.44845  11.48826  11.81949
 Alpha virt. eigenvalues --   12.10473  12.34456  12.59798  13.23130  13.54225
 Alpha virt. eigenvalues --   14.45522
          Condensed to atoms (all electrons):
               1          2          3          4          5          6
     1  N    7.271381  -0.043513   0.326598  -0.015102   0.006234   0.000109
     2  C   -0.043513   9.393453   0.487782  -3.463847  -0.511248   0.051609
     3  C    0.326598   0.487782   5.062736  -0.037610  -0.053460  -0.045539
     4  C   -0.015102  -3.463847  -0.037610   9.782550  -0.218508  -0.016320
     5  C    0.006234  -0.511248  -0.053460  -0.218508   7.240790   0.265311
     6  C    0.000109   0.051609  -0.045539  -0.016320   0.265311   4.751867
     7  O    0.001125   0.007813  -0.022333  -0.106648  -0.082954   0.742099
     8  C   -0.000022  -0.060747   0.014512  -0.025633   0.403720  -0.064929
     9  C   -0.000002  -0.002291   0.001528   0.103772  -0.726783  -0.078680
    10  C    0.000000  -0.000614   0.000002   0.001000   0.035062   0.000286
    11  C   -0.000000  -0.000161   0.000015   0.002482  -0.094412  -0.000581
    12  S    0.000000  -0.000001  -0.000000   0.000003   0.000147   0.000005
    13  C   -0.000000  -0.001144   0.000116  -0.001123   0.037904  -0.002353
    14  S   -0.000000   0.000000   0.000000   0.000008  -0.000280  -0.000007
    15  C    0.000578  -0.148742   0.007182   0.025648   0.130746  -0.007897
    16  H    0.061384   0.001305  -0.042206  -0.001003   0.000196  -0.000052
    17  H   -0.095366   0.003395  -0.000363   0.001558   0.000024   0.000005
    18  H   -0.055933  -0.021252   0.316920   0.022385  -0.038089   0.006653
    19  H   -0.004303   0.619814  -0.062217  -0.761187   0.032696   0.012932
    20  H    0.000018  -0.001647   0.002664   0.008074  -0.143836   0.347627
    21  H   -0.000002  -0.001694  -0.000124   0.005542  -0.020522  -0.001031
    22  H    0.000000   0.000058  -0.000006   0.000276  -0.023441   0.002062
    23  H    0.000000   0.000003  -0.000000  -0.000029   0.000460   0.000004
    24  H    0.000000   0.000000  -0.000000   0.000004   0.000098  -0.000037
    25  H   -0.000000   0.000000   0.000000  -0.000000   0.000000  -0.000000
    26  H   -0.002445   0.053145  -0.005397   0.059872  -0.067458  -0.002605
               7          8          9         10         11         12
     1  N    0.001125  -0.000022  -0.000002   0.000000  -0.000000   0.000000
     2  C    0.007813  -0.060747  -0.002291  -0.000614  -0.000161  -0.000001
     3  C   -0.022333   0.014512   0.001528   0.000002   0.000015  -0.000000
     4  C   -0.106648  -0.025633   0.103772   0.001000   0.002482   0.000003
     5  C   -0.082954   0.403720  -0.726783   0.035062  -0.094412   0.000147
     6  C    0.742099  -0.064929  -0.078680   0.000286  -0.000581   0.000005
     7  O    7.813319   0.009486   0.002272  -0.000001   0.000013  -0.000000
     8  C    0.009486  10.321566  -6.157185   0.497176  -5.869453  -0.010413
     9  C    0.002272  -6.157185  13.581779  -0.567903   7.117377   0.035649
    10  C   -0.000001   0.497176  -0.567903   6.059974  -1.293229  -0.039287
    11  C    0.000013  -5.869453   7.117377  -1.293229  34.575953  -0.048979
    12  S   -0.000000  -0.010413   0.035649  -0.039287  -0.048979  17.015048
    13  C   -0.000009   5.666794  -6.724410   1.538262 -27.766174  -0.486956
    14  S    0.000000  -0.063820   0.078010  -0.029123   0.779117  -0.562827
    15  C   -0.000934   0.597255  -0.249909  -0.087727   0.011646  -0.001901
    16  H    0.000362  -0.000000  -0.000000   0.000000  -0.000000   0.000000
    17  H   -0.000011  -0.000001  -0.000000   0.000000  -0.000000   0.000000
    18  H    0.069326  -0.001318  -0.000061   0.000001  -0.000001   0.000000
    19  H    0.002946  -0.050123   0.018724  -0.012809   0.002041  -0.000004
    20  H   -0.043005  -0.057556   0.033412  -0.000085   0.003072  -0.000026
    21  H   -0.000003  -0.142265   0.083971   0.144391   0.144346   0.003360
    22  H    0.000209  -0.087720   0.460799  -0.003694   0.224750   0.001922
    23  H   -0.000000   0.043822  -0.036004   0.334990  -0.404260  -0.024352
    24  H   -0.000000   0.023532  -0.061857   0.007362  -0.137553  -0.095330
    25  H   -0.000000   0.000002  -0.000002  -0.000044   0.002936  -0.006604
    26  H   -0.000093   0.006029   0.006488  -0.004325   0.001433  -0.000024
              13         14         15         16         17         18
     1  N   -0.000000  -0.000000   0.000578   0.061384  -0.095366  -0.055933
     2  C   -0.001144   0.000000  -0.148742   0.001305   0.003395  -0.021252
     3  C    0.000116   0.000000   0.007182  -0.042206  -0.000363   0.316920
     4  C   -0.001123   0.000008   0.025648  -0.001003   0.001558   0.022385
     5  C    0.037904  -0.000280   0.130746   0.000196   0.000024  -0.038089
     6  C   -0.002353  -0.000007  -0.007897  -0.000052   0.000005   0.006653
     7  O   -0.000009   0.000000  -0.000934   0.000362  -0.000011   0.069326
     8  C    5.666794  -0.063820   0.597255  -0.000000  -0.000001  -0.001318
     9  C   -6.724410   0.078010  -0.249909  -0.000000  -0.000000  -0.000061
    10  C    1.538262  -0.029123  -0.087727   0.000000   0.000000   0.000001
    11  C  -27.766174   0.779117   0.011646  -0.000000  -0.000000  -0.000001
    12  S   -0.486956  -0.562827  -0.001901   0.000000   0.000000   0.000000
    13  C   33.392402  -1.702960  -0.182930  -0.000000  -0.000000  -0.000003
    14  S   -1.702960  17.495629   0.000736  -0.000000  -0.000000  -0.000000
    15  C   -0.182930   0.000736   6.418456   0.000002   0.000004   0.000153
    16  H   -0.000000  -0.000000   0.000002   0.771969   0.137421   0.014357
    17  H   -0.000000  -0.000000   0.000004   0.137421   0.880226   0.006103
    18  H   -0.000003  -0.000000   0.000153   0.014357   0.006103   0.414265
    19  H    0.004994   0.000008  -0.006292  -0.000111  -0.000051  -0.001890
    20  H   -0.004843   0.000019   0.003277   0.000002  -0.000000   0.001617
    21  H   -0.097058  -0.000010   0.142788  -0.000000  -0.000000   0.000000
    22  H   -0.317823   0.010751   0.010556   0.000000  -0.000000  -0.000005
    23  H    0.355283  -0.013246   0.000978   0.000000   0.000000   0.000000
    24  H    0.438235   0.077069   0.000263  -0.000000  -0.000000  -0.000000
    25  H    0.000789   0.146544  -0.000000  -0.000000  -0.000000  -0.000000
    26  H    0.003057   0.000007  -0.012332  -0.000013  -0.000158  -0.000819
              19         20         21         22         23         24
     1  N   -0.004303   0.000018  -0.000002   0.000000   0.000000   0.000000
     2  C    0.619814  -0.001647  -0.001694   0.000058   0.000003   0.000000
     3  C   -0.062217   0.002664  -0.000124  -0.000006  -0.000000  -0.000000
     4  C   -0.761187   0.008074   0.005542   0.000276  -0.000029   0.000004
     5  C    0.032696  -0.143836  -0.020522  -0.023441   0.000460   0.000098
     6  C    0.012932   0.347627  -0.001031   0.002062   0.000004  -0.000037
     7  O    0.002946  -0.043005  -0.000003   0.000209  -0.000000  -0.000000
     8  C   -0.050123  -0.057556  -0.142265  -0.087720   0.043822   0.023532
     9  C    0.018724   0.033412   0.083971   0.460799  -0.036004  -0.061857
    10  C   -0.012809  -0.000085   0.144391  -0.003694   0.334990   0.007362
    11  C    0.002041   0.003072   0.144346   0.224750  -0.404260  -0.137553
    12  S   -0.000004  -0.000026   0.003360   0.001922  -0.024352  -0.095330
    13  C    0.004994  -0.004843  -0.097058  -0.317823   0.355283   0.438235
    14  S    0.000008   0.000019  -0.000010   0.010751  -0.013246   0.077069
    15  C   -0.006292   0.003277   0.142788   0.010556   0.000978   0.000263
    16  H   -0.000111   0.000002  -0.000000   0.000000   0.000000  -0.000000
    17  H   -0.000051  -0.000000  -0.000000  -0.000000   0.000000  -0.000000
    18  H   -0.001890   0.001617   0.000000  -0.000005   0.000000  -0.000000
    19  H    1.000742  -0.003839   0.003371   0.000115  -0.000238   0.000001
    20  H   -0.003839   0.796183  -0.000145   0.021557   0.000002   0.000037
    21  H    0.003371  -0.000145   0.549185  -0.000330  -0.019932  -0.000145
    22  H    0.000115   0.021557  -0.000330   0.499444  -0.000678  -0.007687
    23  H   -0.000238   0.000002  -0.019932  -0.000678   0.615734   0.001181
    24  H    0.000001   0.000037  -0.000145  -0.007687   0.001181   0.673992
    25  H   -0.000000   0.000000   0.000000  -0.000004  -0.000004  -0.004182
    26  H    0.034483   0.000002  -0.004214   0.000049  -0.000098   0.000000
              25         26
     1  N   -0.000000  -0.002445
     2  C    0.000000   0.053145
     3  C    0.000000  -0.005397
     4  C   -0.000000   0.059872
     5  C    0.000000  -0.067458
     6  C   -0.000000  -0.002605
     7  O   -0.000000  -0.000093
     8  C    0.000002   0.006029
     9  C   -0.000002   0.006488
    10  C   -0.000044  -0.004325
    11  C    0.002936   0.001433
    12  S   -0.006604  -0.000024
    13  C    0.000789   0.003057
    14  S    0.146544   0.000007
    15  C   -0.000000  -0.012332
    16  H   -0.000000  -0.000013
    17  H   -0.000000  -0.000158
    18  H   -0.000000  -0.000819
    19  H   -0.000000   0.034483
    20  H    0.000000   0.000002
    21  H    0.000000  -0.004214
    22  H   -0.000004   0.000049
    23  H   -0.000004  -0.000098
    24  H   -0.004182   0.000000
    25  H    0.971682   0.000000
    26  H    0.000000   0.880622
 Mulliken charges:
               1
     1  N   -0.450738
     2  C   -0.361476
     3  C    0.049201
     4  C    0.633836
     5  C   -0.172395
     6  C    0.039464
     7  O   -0.392977
     8  C    1.007292
     9  C   -0.918694
    10  C   -0.579667
    11  C   -1.250379
    12  S    0.220568
    13  C    1.849949
    14  S   -0.215626
    15  C   -0.651606
    16  H    0.056387
    17  H    0.067214
    18  H    0.267591
    19  H    0.170197
    20  H    0.037418
    21  H    0.210522
    22  H    0.208840
    23  H    0.146384
    24  H    0.085015
    25  H   -0.111115
    26  H    0.054794
 Sum of Mulliken charges =  -0.00000
 Mulliken charges with hydrogens summed into heavy atoms:
               1
     1  N   -0.327137
     2  C   -0.306682
     3  C    0.316792
     4  C    0.804033
     5  C   -0.172395
     6  C    0.076882
     7  O   -0.392977
     8  C    1.007292
     9  C   -0.709854
    10  C   -0.433283
    11  C   -1.165364
    12  S    0.220568
    13  C    1.849949
    14  S   -0.326741
    15  C   -0.441083
 Electronic spatial extent (au):  <R**2>=           5281.2473
 Charge=             -0.0000 electrons
 Dipole moment (field-independent basis, Debye):
    X=              5.5200    Y=              0.2961    Z=             -0.0000  Tot=              5.5279
 Quadrupole moment (field-independent basis, Debye-Ang):
   XX=           -110.7695   YY=           -110.8125   ZZ=            -99.7203
   XY=             -4.0502   XZ=             -0.0000   YZ=              0.0000
 Traceless Quadrupole moment (field-independent basis, Debye-Ang):
   XX=             -3.6687   YY=             -3.7118   ZZ=              7.3805
   XY=             -4.0502   XZ=             -0.0000   YZ=              0.0000
 Octapole moment (field-independent basis, Debye-Ang**2):
  XXX=             62.9668  YYY=              8.8756  ZZZ=             -0.0000  XYY=             35.0575
  XXY=            -12.8910  XXZ=             -0.0002  XZZ=             17.6977  YZZ=              7.3413
  YYZ=              0.0000  XYZ=             -0.0001
 Hexadecapole moment (field-independent basis, Debye-Ang**3):
 XXXX=          -6881.2856 YYYY=           -776.3609 ZZZZ=            -97.1945 XXXY=           -370.7678
 XXXZ=              0.0005 YYYX=            -24.8564 YYYZ=              0.0001 ZZZX=             -0.0001
 ZZZY=             -0.0000 XXYY=          -1373.7965 XXZZ=          -1057.9305 YYZZ=           -145.2451
 XXYZ=             -0.0003 YYXZ=             -0.0001 ZZXY=            -17.8849
 N-N= 1.282537893533D+03 E-N=-5.743516785544D+03  KE= 1.366627433003D+03
 PrsmSu:  requested number of processors reduced to:  13 ShMem   1 Linda.
 Calling FoFJK, ICntrl=      2127 FMM=F ISym2X=0 I1Cent= 0 IOpClX= 0 NMat=1 NMatS=1 NMatT=0.
 ***** Axes restored to original set *****
 -------------------------------------------------------------------
 Center     Atomic                   Forces (Hartrees/Bohr)
 Number     Number              X              Y              Z
 -------------------------------------------------------------------
      1        7          -0.028015308   -0.035709608   -0.023319782
      2        6          -0.355500185    1.924641309    1.256845934
      3        6          -0.170301708    0.129244428    0.084400310
      4        6           0.288196483   -1.867108168   -1.219274043
      5        6           0.094349894   -0.020938633   -0.013673517
      6        6           0.002374742   -0.055689647   -0.036366254
      7        8          -0.112020013   -0.045217192   -0.029528006
      8        6          -0.445211680    0.607089173    0.396444586
      9        6           0.251600221   -0.495650689   -0.323670699
     10        6          -0.000273653    0.093304620    0.060930574
     11        6           1.912545310   -1.730335105   -1.129987611
     12       16           1.157111064    6.912955212    4.514348399
     13        6          -1.921232795    1.586209294    1.035867567
     14       16          -0.958081452   -6.997918394   -4.569830571
     15        6          -0.034619678   -0.006830472   -0.004461080
     16        1           0.043224729    0.035213210    0.022995139
     17        1           0.005119484   -0.022122721   -0.014446953
     18        1          -0.005669961   -0.047712659   -0.031157524
     19        1           0.166222147    0.036623231    0.023914820
     20        1           0.012864815   -0.049165236   -0.032106726
     21        1           0.070873544    0.030653418    0.020017735
     22        1          -0.015796532   -0.109403407   -0.071443891
     23        1           0.071334258    0.062728448    0.040963709
     24        1           0.014921115    0.035761478    0.023352775
     25        1          -0.026876447    0.020332540    0.013277688
     26        1          -0.017138393    0.009045571    0.005907421
 -------------------------------------------------------------------
 Cartesian Forces:  Max     6.997918394 RMS     1.464404763

 GradGradGradGradGradGradGradGradGradGradGradGradGradGradGradGradGradGrad
 Berny optimization.
 FormGI is forming the generalized inverse of G from B-inverse, IUseBI=4.
 Internal  Forces:  Max     7.111637038 RMS     0.625078599
 Search for a local minimum.
 Step number   1 out of a maximum of  156
 All quantities printed in internal units (Hartrees-Bohrs-Radians)
 Mixed Optimization -- RFO/linear search
 Second derivative matrix not updated -- first step.
 ITU=  0
     Eigenvalues ---    0.00230   0.00265   0.00350   0.00639   0.00681
     Eigenvalues ---    0.00736   0.01071   0.01071   0.01173   0.01462
     Eigenvalues ---    0.01694   0.01981   0.02139   0.02254   0.02648
     Eigenvalues ---    0.03265   0.03671   0.03671   0.03925   0.04040
     Eigenvalues ---    0.04708   0.04769   0.05725   0.06868   0.06903
     Eigenvalues ---    0.07909   0.09359   0.09917   0.10037   0.11630
     Eigenvalues ---    0.12388   0.14996   0.15382   0.16000   0.16000
     Eigenvalues ---    0.16000   0.16000   0.16000   0.16000   0.16397
     Eigenvalues ---    0.16916   0.17288   0.19294   0.19826   0.20141
     Eigenvalues ---    0.20513   0.21521   0.22000   0.22317   0.22750
     Eigenvalues ---    0.23364   0.25000   0.26093   0.27518   0.29992
     Eigenvalues ---    0.32797   0.36964   0.38652   0.41351   0.41769
     Eigenvalues ---    0.43474   0.44689   0.47491   0.48367   0.58533
     Eigenvalues ---    0.65053   0.72944   1.13688   2.08517   6.42711
     Eigenvalues ---    9.37730  14.79578
 RFO step:  Lambda=-3.95262543D+00 EMin= 2.30000001D-03
 Linear search not attempted -- first point.
 Maximum step size (   0.300) exceeded in Quadratic search.
    -- Step size scaled by   0.601
 Iteration  1 RMS(Cart)=  0.02837134 RMS(Int)=  0.00200165
 Iteration  2 RMS(Cart)=  0.00195222 RMS(Int)=  0.00011321
 Iteration  3 RMS(Cart)=  0.00000318 RMS(Int)=  0.00011318
 Iteration  4 RMS(Cart)=  0.00000000 RMS(Int)=  0.00011318
 Variable       Old X    -DE/DX   Delta X   Delta X   Delta X     New X
                                 (Linear)    (Quad)   (Total)
    R1        2.73427  -0.03380   0.00000  -0.00468  -0.00468   2.72958
    R2        2.94700  -0.04513   0.00000  -0.00670  -0.00670   2.94030
    R3        3.00859  -0.00742   0.00000  -0.00110  -0.00110   3.00748
    R4        2.63763   0.24213   0.00000   0.01654   0.01647   2.65410
    R5        1.61545   1.28847   0.00000   0.07452   0.07469   1.69014
    R6        2.33704   0.44741   0.00000   0.03038   0.03029   2.36733
    R7        2.58921   0.17814   0.00000   0.01800   0.01803   2.60724
    R8        1.92339   0.04757   0.00000   0.00650   0.00650   1.92989
    R9        2.43874   0.13177   0.00000   0.02122   0.02123   2.45997
   R10        2.02848   0.16492   0.00000   0.01738   0.01737   2.04585
   R11        2.41961   0.20323   0.00000   0.02609   0.02609   2.44570
   R12        3.05737   0.01083   0.00000   0.00572   0.00573   3.06310
   R13        2.23609   0.11147   0.00000   0.01317   0.01317   2.24926
   R14        1.95918   0.05481   0.00000   0.00754   0.00754   1.96672
   R15        1.94742   0.92078   0.00000   0.07038   0.07038   2.01781
   R16        3.26040  -0.09711   0.00000   0.01400   0.01395   3.27435
   R17        2.53719   0.01426   0.00000   0.00324   0.00324   2.54042
   R18        3.41332   0.56671   0.00000   0.02845   0.02835   3.44167
   R19        2.58256  -0.16640   0.00000  -0.00113  -0.00094   2.58162
   R20        1.78820   0.12929   0.00000   0.01713   0.01713   1.80533
   R21        3.45410   0.72896   0.00000   0.04293   0.04290   3.49700
   R22        2.45490  -0.29137   0.00000  -0.00138  -0.00136   2.45354
   R23        2.34143   0.08851   0.00000   0.00525   0.00524   2.34667
   R24        1.93790   0.05374   0.00000   0.00736   0.00736   1.94526
   R25        3.35564   0.24738   0.00000   0.01754   0.01799   3.37363
   R26        1.54575   1.60003   0.00000   0.07123   0.07131   1.61706
   R27        3.70076   0.53767   0.00000   0.02869   0.02825   3.72901
   R28        2.94755  -0.04263   0.00000  -0.00632  -0.00632   2.94123
   R29        1.73801   7.11164   0.00000   0.22802   0.22807   1.96608
   R30        3.98708  -0.03621   0.00000  -0.00544  -0.00544   3.98164
   R31        2.42816   0.06945   0.00000   0.00544   0.00542   2.43358
   R32        2.09607   0.11109   0.00000   0.01177   0.01176   2.10782
   R33        2.77336  -0.02377   0.00000  -0.00356  -0.00356   2.76980
   R34        2.21725   0.00365   0.00000   0.00054   0.00054   2.21779
    A1        1.85092   0.00495   0.00000   0.00073   0.00073   1.85165
    A2        2.81950   0.00497   0.00000   0.00072   0.00072   2.82022
    A3        2.24745  -0.50559   0.00000  -0.02273  -0.02267   2.22478
    A4        1.73630  -0.22833   0.00000  -0.01221  -0.01219   1.72411
    A5        2.36446   0.23737   0.00000   0.01351   0.01349   2.37795
    A6        1.79030   0.01742   0.00000   0.00255   0.00255   1.79286
    A7        2.75659   0.21090   0.00000   0.00966   0.00963   2.76622
    A8        2.12842  -0.25479   0.00000  -0.01606  -0.01604   2.11238
    A9        2.82244  -0.06059   0.00000  -0.00509  -0.00512   2.81732
   A10        2.17552   0.28064   0.00000   0.02025   0.02020   2.19572
   A11        2.66215  -0.47368   0.00000  -0.03074  -0.03065   2.63149
   A12        1.44552   0.19303   0.00000   0.01050   0.01045   1.45597
   A13        2.10593   0.11974   0.00000   0.01380   0.01380   2.11972
   A14        2.24571  -0.13122   0.00000  -0.01212  -0.01211   2.23360
   A15        1.93154   0.01148   0.00000  -0.00168  -0.00169   1.92986
   A16        2.12350   0.06607   0.00000   0.00952   0.00952   2.13302
   A17        1.94007  -0.00886   0.00000  -0.00123  -0.00123   1.93884
   A18        2.21962  -0.05721   0.00000  -0.00829  -0.00829   2.21132
   A19        2.25383   0.02478   0.00000   0.00037   0.00039   2.25422
   A20        1.38476   0.08752   0.00000   0.00802   0.00802   1.39279
   A21        2.64459  -0.11230   0.00000  -0.00839  -0.00842   2.63618
   A22        1.73053  -0.07474   0.00000  -0.00265  -0.00262   1.72791
   A23        2.03016   0.12995   0.00000   0.00268   0.00275   2.03290
   A24        2.35184   0.08502   0.00000   0.00732   0.00728   2.35912
   A25        1.90119  -0.21497   0.00000  -0.01000  -0.01003   1.89116
   A26        2.34384   0.25590   0.00000   0.01087   0.01086   2.35470
   A27        2.32025   0.23971   0.00000   0.01067   0.01065   2.33091
   A28        1.24274  -0.16052   0.00000  -0.00092  -0.00090   1.24184
   A29        1.91242  -0.17345   0.00000  -0.00645  -0.00644   1.90598
   A30        1.65058   0.25263   0.00000   0.01620   0.01619   1.66677
   A31        2.72019  -0.07918   0.00000  -0.00975  -0.00975   2.71044
   A32        1.47896  -0.26903   0.00000  -0.00823  -0.00824   1.47072
   A33        2.55354  -0.90403   0.00000  -0.02916  -0.02905   2.52448
   A34        1.55446   0.13293   0.00000   0.00459   0.00462   1.55907
   A35        1.76248  -0.87717   0.00000  -0.02675  -0.02667   1.73581
   A36        2.25069   1.17306   0.00000   0.03740   0.03729   2.28798
   A37        2.44390  -1.03739   0.00000  -0.03244  -0.03231   2.41159
   A38        1.48729   1.01327   0.00000   0.03038   0.03029   1.51758
   A39        2.35199   0.02412   0.00000   0.00205   0.00202   2.35401
   A40        0.99908  -1.03696   0.00000  -0.03376  -0.03367   0.96541
   A41        1.68942   0.23651   0.00000   0.00583   0.00581   1.69523
   A42        2.54143   0.01642   0.00000   0.00560   0.00565   2.54708
   A43        2.32944   0.61498   0.00000   0.02977   0.02975   2.35919
   A44        2.15607   0.16681   0.00000   0.00521   0.00611   2.16218
   A45        1.95174   0.09188   0.00000   0.00596   0.00595   1.95769
   A46        1.89366  -0.07726   0.00000  -0.00368  -0.00368   1.88998
   A47        2.43778  -0.01462   0.00000  -0.00228  -0.00227   2.43552
   A48        1.55434  -0.27670   0.00000  -0.01654  -0.01648   1.53787
   A49        2.39704  -0.24121   0.00000  -0.01236  -0.01232   2.38472
   A50        2.29978   0.23687   0.00000   0.01122   0.01117   2.31095
   A51        1.58637   0.00435   0.00000   0.00114   0.00115   1.58752
   A52        2.19875   0.08894   0.00000   0.00695   0.00693   2.20568
   A53        3.11529   0.01277   0.00000   0.00537   0.00541   3.12070
   A54        3.04175   1.14621   0.00000   0.03498   0.03491   3.07666
   A55        3.03342  -0.13610   0.00000  -0.00364  -0.00362   3.02980
   A56        3.35107  -1.01284   0.00000  -0.03170  -0.03165   3.31942
   A57        3.28887  -0.16985   0.00000  -0.00588  -0.00678   3.28209
   A58        3.14071  -0.27236   0.00000  -0.01540  -0.01533   3.12538
   A59        3.14159  -0.00000   0.00000  -0.00000  -0.00000   3.14159
   A60        3.14160   0.00001   0.00000   0.00000   0.00000   3.14160
   A61        3.14160   0.00000   0.00000   0.00000   0.00000   3.14160
   A62        3.14161  -0.00000   0.00000  -0.00000  -0.00000   3.14161
   A63        3.14160   0.00000   0.00000   0.00000   0.00000   3.14160
   A64        3.14159   0.00000   0.00000   0.00000   0.00000   3.14159
    D1       -3.14159  -0.00000   0.00000  -0.00000  -0.00000  -3.14159
    D2       -3.14158   0.00000   0.00000   0.00000   0.00000  -3.14158
    D3       -0.00001   0.00000   0.00000   0.00000   0.00000  -0.00001
    D4       -3.14159  -0.00000   0.00000  -0.00000  -0.00000  -3.14159
    D5       -3.14158   0.00000   0.00000   0.00000   0.00000  -3.14158
    D6       -0.00001   0.00000   0.00000   0.00000   0.00000  -0.00001
    D7       -3.14159  -0.00000   0.00000  -0.00000  -0.00000  -3.14159
    D8        0.00004   0.00001   0.00000   0.00000   0.00000   0.00004
    D9        3.14159   0.00000   0.00000   0.00000   0.00000   3.14159
   D10        3.14159  -0.00000   0.00000  -0.00000   0.00000   3.14159
   D11       -0.00002   0.00000   0.00000   0.00000   0.00000  -0.00002
   D12        0.00002  -0.00000   0.00000  -0.00000  -0.00000   0.00002
   D13        3.14159  -0.00000   0.00000  -0.00000  -0.00000   3.14159
   D14       -3.14159   0.00000   0.00000   0.00000   0.00000  -3.14159
   D15        0.00001   0.00000   0.00000   0.00000   0.00000   0.00001
   D16       -0.00001  -0.00001   0.00000  -0.00000  -0.00000  -0.00001
   D17        3.14159  -0.00001   0.00000  -0.00000  -0.00000   3.14159
   D18       -3.14159   0.00000   0.00000   0.00000   0.00000  -3.14159
   D19        0.00000  -0.00000   0.00000  -0.00000  -0.00000   0.00000
   D20       -3.14158  -0.00001   0.00000  -0.00000  -0.00000  -3.14158
   D21        0.00002  -0.00000   0.00000  -0.00000  -0.00000   0.00002
   D22       -0.00001   0.00000   0.00000   0.00000   0.00000  -0.00001
   D23       -3.14159   0.00000   0.00000   0.00000   0.00000  -3.14159
   D24       -0.00001   0.00000   0.00000   0.00000   0.00000  -0.00001
   D25       -3.14159  -0.00000   0.00000  -0.00000  -0.00000  -3.14159
   D26        3.14159   0.00000   0.00000   0.00000   0.00000   3.14159
   D27        0.00000  -0.00000   0.00000  -0.00000  -0.00000   0.00000
   D28        3.14159   0.00000   0.00000   0.00000   0.00000   3.14159
   D29       -0.00000   0.00000   0.00000   0.00000   0.00000  -0.00000
   D30       -0.00001   0.00000   0.00000   0.00000   0.00000  -0.00001
   D31        3.14159  -0.00000   0.00000  -0.00000  -0.00000   3.14159
   D32       -0.00001  -0.00000   0.00000  -0.00000  -0.00000  -0.00001
   D33       -3.14158  -0.00000   0.00000  -0.00000  -0.00000  -3.14158
   D34        3.14159  -0.00000   0.00000  -0.00000  -0.00000   3.14159
   D35        0.00001  -0.00000   0.00000  -0.00000  -0.00000   0.00001
   D36        3.14159  -0.00000   0.00000  -0.00000  -0.00000   3.14159
   D37        0.00001   0.00000   0.00000   0.00000   0.00000   0.00001
   D38       -0.00001   0.00000   0.00000   0.00000   0.00000  -0.00001
   D39       -3.14159   0.00000   0.00000   0.00000   0.00000  -3.14159
   D40       -0.00000  -0.00000   0.00000  -0.00000  -0.00000  -0.00000
   D41       -3.14158  -0.00000   0.00000  -0.00000  -0.00000  -3.14158
   D42       -0.00000  -0.00000   0.00000  -0.00000  -0.00000  -0.00000
   D43        3.14159  -0.00000   0.00000  -0.00000  -0.00000   3.14159
   D44       -3.14159  -0.00000   0.00000  -0.00000  -0.00000  -3.14159
   D45        0.00000  -0.00000   0.00000  -0.00000  -0.00000   0.00000
   D46       -3.14159   0.00000   0.00000   0.00000   0.00000  -3.14159
   D47       -0.00000   0.00000   0.00000   0.00000   0.00000  -0.00000
   D48        0.00001   0.00000   0.00000   0.00000   0.00000   0.00001
   D49        3.14158   0.00001   0.00000   0.00000   0.00000   3.14158
   D50       -3.14159   0.00000   0.00000   0.00000   0.00000  -3.14159
   D51        3.14159   0.00000   0.00000   0.00000   0.00000   3.14159
   D52       -0.00002   0.00001   0.00000   0.00000   0.00000  -0.00002
   D53       -0.00001  -0.00000   0.00000   0.00000   0.00000  -0.00001
   D54        3.14158  -0.00000   0.00000  -0.00000  -0.00000   3.14158
   D55       -0.00000  -0.00000   0.00000  -0.00000  -0.00000  -0.00000
   D56       -3.14159   0.00000   0.00000   0.00000   0.00000  -3.14159
   D57       -3.14158   0.00001   0.00000   0.00000   0.00000  -3.14158
   D58        3.14159  -0.00001   0.00000  -0.00000  -0.00000   3.14159
   D59        0.00000   0.00000   0.00000   0.00000   0.00000   0.00000
   D60        0.00001   0.00001   0.00000   0.00000   0.00000   0.00001
   D61        0.00000  -0.00000   0.00000  -0.00000  -0.00000   0.00000
   D62        0.00000   0.00000   0.00000   0.00000   0.00000   0.00000
   D63       -3.14159  -0.00000   0.00000  -0.00000  -0.00000  -3.14159
   D64       -3.14159  -0.00000   0.00000  -0.00000  -0.00000  -3.14159
   D65       -0.00000   0.00000   0.00000   0.00000   0.00000  -0.00000
   D66       -0.00001   0.00000   0.00000   0.00000   0.00000  -0.00001
   D67       -3.14159   0.00000   0.00000   0.00000   0.00000  -3.14159
   D68       -3.14159  -0.00002   0.00000  -0.00000  -0.00000  -3.14159
   D69       -0.00003   0.00000   0.00000   0.00000   0.00000  -0.00003
   D70       -3.14159   0.00000   0.00000   0.00000   0.00000  -3.14159
   D71        0.00001  -0.00000   0.00000  -0.00000  -0.00000   0.00001
   D72        3.14159  -0.00000   0.00000  -0.00000  -0.00000   3.14159
   D73       -3.14158  -0.00000   0.00000  -0.00000  -0.00000  -3.14158
   D74        0.00000  -0.00000   0.00000  -0.00000  -0.00000   0.00000
   D75        0.00001  -0.00000   0.00000  -0.00000  -0.00000   0.00001
   D76       -3.14159  -0.00000   0.00000  -0.00000  -0.00000  -3.14159
         Item               Value     Threshold  Converged?
 Maximum Force            7.111637     0.000450     NO 
 RMS     Force            0.625079     0.000300     NO 
 Maximum Displacement     0.110695     0.001800     NO 
 RMS     Displacement     0.029161     0.001200     NO 
 Predicted change in Energy=-1.839115D+00
 GradGradGradGradGradGradGradGradGradGradGradGradGradGradGradGradGradGrad

                          Input orientation:                          
 ---------------------------------------------------------------------
 Center     Atomic      Atomic             Coordinates (Angstroms)
 Number     Number       Type             X           Y           Z
 ---------------------------------------------------------------------
      1          7           0        2.320925   -0.262165   -0.075243
      2          6           0        4.431993   -0.656658   -0.332856
      3          6           0        3.200229   -1.221652   -0.701819
      4          6           0        4.563876   -1.397325   -0.816532
      5          6           0        5.156052   -2.367962   -1.450388
      6          6           0        4.480023   -3.291995   -2.053811
      7          8           0        3.289860   -3.304577   -2.062021
      8          6           0        6.747640   -2.625001   -1.618243
      9          6           0        7.252875   -3.412622   -2.132578
     10          6           0        8.831820   -1.829524   -1.098776
     11          6           0        9.073267   -3.365696   -2.101945
     12         16           0       10.857476   -3.416753   -2.135278
     13          6           0        8.455475   -2.869950   -1.778200
     14         16           0       10.716985   -4.279889   -2.698929
     15          6           0        6.764491   -1.499501   -0.883260
     16          1           0        0.872335   -0.737683   -0.385767
     17          1           0        1.002879    0.484660    0.412459
     18          1           0        2.546823   -1.878815   -1.130953
     19          1           0        5.578069   -1.080175   -0.609429
     20          1           0        5.112472   -3.984036   -2.505735
     21          1           0        7.827871   -1.217588   -0.699161
     22          1           0        6.980067   -4.179202   -2.633181
     23          1           0        9.841073   -1.999158   -1.209552
     24          1           0        9.102919   -4.668635   -2.952792
     25          1           0       12.291510   -5.452171   -3.464468
     26          1           0        6.016335   -0.168628   -0.014161
 ---------------------------------------------------------------------
                    Distance matrix (angstroms):
                    1          2          3          4          5
     1  N    0.000000
     2  C    2.163007   0.000000
     3  C    1.444434   1.404492   0.000000
     4  C    2.620864   0.894384   1.379694   0.000000
     5  C    3.789901   2.168340   2.387389   1.301760   0.000000
     6  C    4.213824   3.147856   2.784255   2.264435   1.294207
     7  O    3.760637   3.362433   2.489329   2.609974   2.175778
     8  C    5.249728   3.299820   3.923436   2.630352   1.620925
     9  C    6.203398   4.334941   4.824040   3.608894   2.439952
    10  C    6.774658   4.617437   5.678196   4.299047   3.731598
    11  C    7.702827   5.657737   6.407016   5.085408   4.094457
    12  S    9.331017   7.221750   8.093621   6.739924   5.837403
    13  C    6.879921   4.814155   5.611871   4.270594   3.353453
    14  S    9.670557   7.630677   8.357206   7.050769   6.011514
    15  C    4.682859   2.540448   3.579677   2.203996   1.913880
    16  H    1.555942   3.560973   2.398583   3.774673   4.705471
    17  H    1.591492   3.690112   2.996909   4.211056   5.371824
    18  H    1.943993   2.384218   1.021253   2.097426   2.673832
    19  H    3.400512   1.252737   2.383837   1.082619   1.594900
    20  H    5.249033   4.031860   3.813338   3.137743   1.930635
    21  H    5.623927   3.461330   4.627645   3.271046   3.004384
    22  H    6.602562   4.918586   5.173435   4.108166   2.829597
    23  H    7.801053   5.641723   6.705454   5.325925   4.705682
    24  H    8.584446   6.691604   7.196549   5.988988   4.809166
    25  H   11.740340   9.725017  10.401006   9.119741   8.030171
    26  H    3.697098   1.688158   3.084184   2.064736   2.764038
                    6          7          8          9         10
     6  C    0.000000
     7  O    1.190257   0.000000
     8  C    2.403474   3.551760   0.000000
     9  C    2.776593   3.965115   1.067778   0.000000
    10  C    4.689249   5.815233   2.290511   2.463334   0.000000
    11  C    4.594088   5.783868   2.488200   1.821254   1.850532
    12  S    6.379194   7.568802   4.217221   3.604604   2.774331
    13  C    4.007282   5.191631   1.732711   1.366134   1.298360
    14  S    6.347583   7.517917   4.434213   3.615655   3.481182
    15  C    3.130818   4.089112   1.344335   2.336524   2.104569
    16  H    4.724647   3.904254   6.292867   7.135681   8.065600
    17  H    5.695274   5.070666   6.840762   7.792848   8.302506
    18  H    2.566322   1.857899   4.294311   5.050024   6.285273
    19  H    2.860786   3.506263   2.184511   3.250425   3.374593
    20  H    1.040743   1.995108   2.303995   2.246573   4.522721
    21  H    4.164893   5.177495   1.998105   2.683930   1.241802
    22  H    2.715331   3.835207   1.870738   0.955339   3.362198
    23  H    5.578984   6.734182   3.182458   3.090085   1.029387
    24  H    4.906574   6.037034   3.391873   2.381802   3.401679
    25  H    8.226521   9.359953   6.491220   5.596565   5.539813
    26  H    4.034334   4.632663   3.023517   4.066967   3.444114
                   11         12         13         14         15
    11  C    0.000000
    12  S    1.785250   0.000000
    13  C    0.855711   2.489198   0.000000
    14  S    1.973309   1.040406   2.819592   0.000000
    15  C    3.209100   4.689982   2.353396   5.162308   0.000000
    16  H    8.781059  10.485287   7.999340  10.715180   5.961994
    17  H    9.288629  10.900691   8.461300  11.258132   6.229925
    18  H    6.763735   8.511221   6.026064   8.658826   4.241928
    19  H    4.434819   5.971595   3.584520   6.404111   1.287795
    20  H    4.029056   5.784819   3.598078   5.615641   3.396249
    21  H    2.851874   4.009647   2.070873   4.660874   1.115412
    22  H    2.307703   3.982906   2.149875   3.738853   3.207724
    23  H    1.803695   1.974746   1.732490   2.861329   3.133924
[...]
 One-electron integrals computed using PRISM.
 PrsmSu:  requested number of processors reduced to:  12 ShMem   1 Linda.
 NBasis=   483 RedAO= T EigKep=  1.86D-04  NBF=   483
 NBsUse=   483 1.00D-06 EigRej= -1.00D+00 NBFU=   483
 Initial guess from the checkpoint file:  "NC1dCCdCqCdOrCdCCdCSCqSrdC1.chk"
 B after Tr=    -0.000000    0.000000   -0.000000
         Rot=    1.000000   -0.000324   -0.000008   -0.000183 Ang=  -0.04 deg.
 ExpMin= 1.17D-01 ExpMax= 2.19D+04 ExpMxC= 3.30D+03 IAcc=2 IRadAn=         4 AccDes= 0.00D+00
 Harris functional with IExCor=  402 and IRadAn=       4 diagonalized for initial guess.
 HarFok:  IExCor=  402 AccDes= 0.00D+00 IRadAn=         4 IDoV= 1 UseB2=F ITyADJ=14
 ICtDFT=  3500011 ScaDFX=  1.000000  1.000000  1.000000  1.000000
 FoFCou: FMM=F IPFlag=           0 FMFlag=      100000 FMFlg1=           0
         NFxFlg=           0 DoJE=T BraDBF=F KetDBF=T FulRan=T
         wScrn=  0.000000 ICntrl=       500 IOpCl=  0 I1Cent=   200000004 NGrid=           0
         NMat0=    1 NMatS0=      1 NMatT0=    0 NMatD0=    1 NMtDS0=    0 NMtDT0=    0
 Petite list used in FoFCou.
 Requested convergence on RMS density matrix=1.00D-08 within 128 cycles.
 Requested convergence on MAX density matrix=1.00D-06.
 Requested convergence on             energy=1.00D-06.
 No special actions if energy rises.
 Integral accuracy reduced to 1.0D-05 until final iterations.
 Initial convergence to 1.0D-05 achieved.  Increase integral accuracy.
 SCF Done:  E(RB3LYP) =  -1351.73691059     A.U. after   21 cycles
            NFock= 21  Conv=0.62D-08     -V/T= 2.0050
 PrsmSu:  requested number of processors reduced to:  13 ShMem   1 Linda.
 Calling FoFJK, ICntrl=      2127 FMM=F ISym2X=0 I1Cent= 0 IOpClX= 0 NMat=1 NMatS=1 NMatT=0.
 ***** Axes restored to original set *****
 -------------------------------------------------------------------
 Center     Atomic                   Forces (Hartrees/Bohr)
 Number     Number              X              Y              Z
 -------------------------------------------------------------------
      1        7          -0.000041155   -0.009587026   -0.026619696
      2        6           0.041648912    0.055266783    0.032718712
      3        6          -0.047954485    0.002633698    0.009761114
      4        6           0.024732355   -0.005144462   -0.011239347
      5        6          -0.001625904    0.008768006    0.006553157
      6        6           0.006399092    0.005102139    0.002465897
      7        8          -0.001404890   -0.003225423   -0.002422326
      8        6          -0.026475904    0.000129525    0.000434347
      9        6           0.008591327   -0.006147729   -0.004235937
     10        6          -0.050845830    0.002118218   -0.000451369
     11        6           0.027080244    0.007537981    0.004523723
     12       16          -0.000552091   -0.017630202   -0.012171334
     13        6           0.023784977    0.004022111    0.004382899
     14       16          -0.031015241    0.011367175    0.008961414
     15        6           0.041650183   -0.010629256   -0.008238506
     16        1          -0.008238616   -0.001508782   -0.004212775
     17        1           0.013631869   -0.001313451    0.015389019
     18        1           0.005089613   -0.008022296    0.005262183
     19        1           0.002720777   -0.001800329   -0.002392321
     20        1          -0.002856958    0.005084852    0.003748178
     21        1           0.003037452    0.008220181    0.008419345
     22        1          -0.001031611    0.004900369    0.003181019
     23        1          -0.002142581   -0.008522927   -0.005691276
     24        1          -0.002355183   -0.012290751   -0.008799792
     25        1           0.012763350    0.007769442    0.004451508
     26        1          -0.034589702   -0.037097844   -0.023777837
 -------------------------------------------------------------------
 Cartesian Forces:  Max     0.055266783 RMS     0.017179794

 GradGradGradGradGradGradGradGradGradGradGradGradGradGradGradGradGradGrad
 Berny optimization.
 Using GEDIIS/GDIIS optimizer.
 FormGI is forming the generalized inverse of G from B-inverse, IUseBI=4.
 Internal  Forces:  Max     0.061115276 RMS     0.009640419
 Search for a local minimum.
 Step number  20 out of a maximum of  156
 All quantities printed in internal units (Hartrees-Bohrs-Radians)
 Mixed Optimization -- RFO/linear search
 Update second derivatives using D2CorX and points   19   20
 DE= -3.14D-02 DEPred=-2.55D-02 R= 1.23D+00
 TightC=F SS=  1.41D+00  RLast= 5.54D-01 DXNew= 5.0454D+00 1.6612D+00
 Trust test= 1.23D+00 RLast= 5.54D-01 DXMaxT set to 3.00D+00
 ITU=  1  1  1  1  1  1  1  1  1  1  0  1  0  1  0  0  0  0  1  0
 Use linear search instead of GDIIS.
     Eigenvalues ---    0.00231   0.00231   0.00244   0.00355   0.00557
     Eigenvalues ---    0.00687   0.01066   0.01334   0.01588   0.01694
     Eigenvalues ---    0.01761   0.01960   0.01969   0.02117   0.02235
     Eigenvalues ---    0.02296   0.02673   0.03223   0.03305   0.03669
     Eigenvalues ---    0.03672   0.04202   0.05183   0.05978   0.06303
     Eigenvalues ---    0.07577   0.07909   0.09135   0.10530   0.11418
     Eigenvalues ---    0.12394   0.13783   0.14522   0.15503   0.15713
     Eigenvalues ---    0.16017   0.16098   0.16348   0.16706   0.17425
     Eigenvalues ---    0.18246   0.18833   0.19230   0.20094   0.21545
     Eigenvalues ---    0.22069   0.22482   0.22687   0.23468   0.24361
     Eigenvalues ---    0.26027   0.27311   0.28368   0.29716   0.31638
     Eigenvalues ---    0.36661   0.37386   0.41861   0.43311   0.44339
     Eigenvalues ---    0.46020   0.49246   0.52104   0.58909   0.66445
     Eigenvalues ---    0.71432   0.74238   1.14168   1.79878   2.03114
     Eigenvalues ---    8.19518   8.80527
 RFO step:  Lambda=-4.03245766D-02 EMin= 2.30611406D-03
 Quartic linear search produced a step of  1.28046.
 Iteration  1 RMS(Cart)=  0.00867670 RMS(Int)=  0.07699996
 Iteration  2 RMS(Cart)=  0.00191431 RMS(Int)=  0.07552596
 Iteration  3 RMS(Cart)=  0.00182831 RMS(Int)=  0.07411403
 Iteration  4 RMS(Cart)=  0.00174923 RMS(Int)=  0.07275927
 Iteration  5 RMS(Cart)=  0.00167630 RMS(Int)=  0.07145729
 Iteration  6 RMS(Cart)=  0.00160885 RMS(Int)=  0.07020419
 Iteration  7 RMS(Cart)=  0.00154630 RMS(Int)=  0.06899648
 Iteration  8 RMS(Cart)=  0.00148241 RMS(Int)=  0.06783495
 Iteration  9 RMS(Cart)=  0.00142250 RMS(Int)=  0.06671677
 Iteration 10 RMS(Cart)=  0.00136685 RMS(Int)=  0.06563890
 Iteration 11 RMS(Cart)=  0.00131505 RMS(Int)=  0.06459862
 Iteration 12 RMS(Cart)=  0.00126673 RMS(Int)=  0.06359346
 Iteration 13 RMS(Cart)=  0.00121881 RMS(Int)=  0.06262324
 Iteration 14 RMS(Cart)=  0.00117195 RMS(Int)=  0.06168727
 Iteration 15 RMS(Cart)=  0.00112828 RMS(Int)=  0.06078326
 Iteration 16 RMS(Cart)=  0.00108751 RMS(Int)=  0.05990915
 Iteration 17 RMS(Cart)=  0.00104936 RMS(Int)=  0.05906305
 Iteration 18 RMS(Cart)=  0.00101361 RMS(Int)=  0.05824323
 Iteration 19 RMS(Cart)=  0.00098005 RMS(Int)=  0.05744813
 Iteration 20 RMS(Cart)=  0.00094848 RMS(Int)=  0.05667631
 Iteration 21 RMS(Cart)=  0.00091753 RMS(Int)=  0.05592757
 Iteration 22 RMS(Cart)=  0.00088663 RMS(Int)=  0.05520218
 Iteration 23 RMS(Cart)=  0.00085757 RMS(Int)=  0.05449878
 Iteration 24 RMS(Cart)=  0.00083021 RMS(Int)=  0.05381610
 Iteration 25 RMS(Cart)=  0.00080441 RMS(Int)=  0.05315298
 Iteration 26 RMS(Cart)=  0.00078004 RMS(Int)=  0.05250835
 Iteration 27 RMS(Cart)=  0.00075700 RMS(Int)=  0.05188124
 Iteration 28 RMS(Cart)=  0.00073518 RMS(Int)=  0.05127072
 Iteration 29 RMS(Cart)=  0.00071450 RMS(Int)=  0.05067595
 Iteration 30 RMS(Cart)=  0.00069487 RMS(Int)=  0.05009616
 Iteration 31 RMS(Cart)=  0.00067622 RMS(Int)=  0.04953060
 Iteration 32 RMS(Cart)=  0.00065849 RMS(Int)=  0.04897860
 Iteration 33 RMS(Cart)=  0.00064160 RMS(Int)=  0.04843952
 Iteration 34 RMS(Cart)=  0.00062550 RMS(Int)=  0.04791278
 Iteration 35 RMS(Cart)=  0.00061015 RMS(Int)=  0.04739782
 Iteration 36 RMS(Cart)=  0.00059549 RMS(Int)=  0.04689413
 Iteration 37 RMS(Cart)=  0.00058148 RMS(Int)=  0.04640121
 Iteration 38 RMS(Cart)=  0.00056808 RMS(Int)=  0.04591861
 Iteration 39 RMS(Cart)=  0.00055526 RMS(Int)=  0.04544591
 Iteration 40 RMS(Cart)=  0.00054297 RMS(Int)=  0.04498270
 Iteration 41 RMS(Cart)=  0.00053120 RMS(Int)=  0.04452860
 Iteration 42 RMS(Cart)=  0.00051990 RMS(Int)=  0.04408325
 Iteration 43 RMS(Cart)=  0.00050905 RMS(Int)=  0.04364632
 Iteration 44 RMS(Cart)=  0.00049863 RMS(Int)=  0.04321749
 Iteration 45 RMS(Cart)=  0.00048861 RMS(Int)=  0.04279645
 Iteration 46 RMS(Cart)=  0.00047898 RMS(Int)=  0.04238292
 Iteration 47 RMS(Cart)=  0.00046970 RMS(Int)=  0.04197662
 Iteration 48 RMS(Cart)=  0.00046077 RMS(Int)=  0.04157731
 Iteration 49 RMS(Cart)=  0.00045216 RMS(Int)=  0.04118474
 Iteration 50 RMS(Cart)=  0.00044386 RMS(Int)=  0.04079868
 Iteration 51 RMS(Cart)=  0.00043482 RMS(Int)=  0.04041997
 Iteration 52 RMS(Cart)=  0.00042570 RMS(Int)=  0.04004876
 Iteration 53 RMS(Cart)=  0.00041682 RMS(Int)=  0.03968490
 Iteration 54 RMS(Cart)=  0.00040694 RMS(Int)=  0.03932948
 Iteration 55 RMS(Cart)=  0.00039744 RMS(Int)=  0.03898217
 Iteration 56 RMS(Cart)=  0.00038751 RMS(Int)=  0.03864353
 Iteration 57 RMS(Cart)=  0.00037754 RMS(Int)=  0.03831367
 Iteration 58 RMS(Cart)=  0.00036799 RMS(Int)=  0.03799221
 Iteration 59 RMS(Cart)=  0.00035883 RMS(Int)=  0.03767882
 Iteration 60 RMS(Cart)=  0.00035005 RMS(Int)=  0.03737315
 Iteration 61 RMS(Cart)=  0.00034163 RMS(Int)=  0.03707490
 Iteration 62 RMS(Cart)=  0.00033353 RMS(Int)=  0.03678377
 Iteration 63 RMS(Cart)=  0.00032576 RMS(Int)=  0.03649949
 Iteration 64 RMS(Cart)=  0.00031827 RMS(Int)=  0.03622178
 Iteration 65 RMS(Cart)=  0.00031108 RMS(Int)=  0.03595039
 Iteration 66 RMS(Cart)=  0.00030415 RMS(Int)=  0.03568511
 Iteration 67 RMS(Cart)=  0.00029747 RMS(Int)=  0.03542568
 Iteration 68 RMS(Cart)=  0.00029103 RMS(Int)=  0.03517192
 Iteration 69 RMS(Cart)=  0.00028483 RMS(Int)=  0.03492361
 Iteration 70 RMS(Cart)=  0.00027884 RMS(Int)=  0.03468055
 Iteration 71 RMS(Cart)=  0.00027305 RMS(Int)=  0.03444258
 Iteration 72 RMS(Cart)=  0.00026747 RMS(Int)=  0.03420951
 Iteration 73 RMS(Cart)=  0.00026207 RMS(Int)=  0.03398118
 Iteration 74 RMS(Cart)=  0.00025685 RMS(Int)=  0.03375743
 Iteration 75 RMS(Cart)=  0.00025180 RMS(Int)=  0.03353811
 Iteration 76 RMS(Cart)=  0.00024692 RMS(Int)=  0.03332308
 Iteration 77 RMS(Cart)=  0.00024218 RMS(Int)=  0.03311220
 Iteration 78 RMS(Cart)=  0.00023760 RMS(Int)=  0.03290533
 Iteration 79 RMS(Cart)=  0.00023316 RMS(Int)=  0.03270236
 Iteration 80 RMS(Cart)=  0.00022886 RMS(Int)=  0.03250317
 Iteration 81 RMS(Cart)=  0.00022468 RMS(Int)=  0.03230764
 Iteration 82 RMS(Cart)=  0.00022063 RMS(Int)=  0.03211565
 Iteration 83 RMS(Cart)=  0.00021669 RMS(Int)=  0.03192712
 Iteration 84 RMS(Cart)=  0.00021287 RMS(Int)=  0.03174193
 Iteration 85 RMS(Cart)=  0.00020916 RMS(Int)=  0.03156000
 Iteration 86 RMS(Cart)=  0.00020555 RMS(Int)=  0.03138124
 Iteration 87 RMS(Cart)=  0.00020203 RMS(Int)=  0.03120555
 Iteration 88 RMS(Cart)=  0.00019860 RMS(Int)=  0.03103286
 Iteration 89 RMS(Cart)=  0.00019525 RMS(Int)=  0.03086312
 Iteration 90 RMS(Cart)=  0.00019193 RMS(Int)=  0.03069628
 Iteration 91 RMS(Cart)=  0.00018810 RMS(Int)=  0.41344297
 Iteration 92 RMS(Cart)=  0.00028412 RMS(Int)=  0.41338857
 Iteration 93 RMS(Cart)=  0.00028028 RMS(Int)=  0.41333210
 Iteration 94 RMS(Cart)=  0.00027638 RMS(Int)=  0.41326403
 Iteration 95 RMS(Cart)=  0.00237422 RMS(Int)=  0.02782720
 Iteration 96 RMS(Cart)=  0.00014142 RMS(Int)=  0.02770439
 Iteration 97 RMS(Cart)=  0.00013941 RMS(Int)=  0.41323793
 Iteration 98 RMS(Cart)=  0.00022662 RMS(Int)=  0.02740386
 Iteration 99 RMS(Cart)=  0.00018388 RMS(Int)=  0.41276341
 Iteration100 RMS(Cart)=  0.00213756 RMS(Int)=  0.02551877
 New curvilinear step not converged.
 ITry= 1 IFail=1 DXMaxC= 2.61D-01 DCOld= 1.00D+10 DXMaxT= 3.00D+00 DXLimC= 3.00D+00 Rises=F
 Iteration  1 RMS(Cart)=  0.00845287 RMS(Int)=  0.07388365
 Iteration  2 RMS(Cart)=  0.00174463 RMS(Int)=  0.07253548
 Iteration  3 RMS(Cart)=  0.00167178 RMS(Int)=  0.07123992
 Iteration  4 RMS(Cart)=  0.00160442 RMS(Int)=  0.06999308
 Iteration  5 RMS(Cart)=  0.00153533 RMS(Int)=  0.06879601
 Iteration  6 RMS(Cart)=  0.00147143 RMS(Int)=  0.06764504
 Iteration  7 RMS(Cart)=  0.00141221 RMS(Int)=  0.06653687
 Iteration  8 RMS(Cart)=  0.00135719 RMS(Int)=  0.06546850
 Iteration  9 RMS(Cart)=  0.00130596 RMS(Int)=  0.06443726
 Iteration 10 RMS(Cart)=  0.00125471 RMS(Int)=  0.06344328
 Iteration 11 RMS(Cart)=  0.00120540 RMS(Int)=  0.06248524
 Iteration 12 RMS(Cart)=  0.00115952 RMS(Int)=  0.06156068
 Iteration 13 RMS(Cart)=  0.00111675 RMS(Int)=  0.06066738
 Iteration 14 RMS(Cart)=  0.00107678 RMS(Int)=  0.05980333
 Iteration 15 RMS(Cart)=  0.00103938 RMS(Int)=  0.05896669
 Iteration 16 RMS(Cart)=  0.00100430 RMS(Int)=  0.05815580
 Iteration 17 RMS(Cart)=  0.00097136 RMS(Int)=  0.05736913
 Iteration 18 RMS(Cart)=  0.00094036 RMS(Int)=  0.05660528
 Iteration 19 RMS(Cart)=  0.00090819 RMS(Int)=  0.05586561
 Iteration 20 RMS(Cart)=  0.00087786 RMS(Int)=  0.05514878
 Iteration 21 RMS(Cart)=  0.00084933 RMS(Int)=  0.05445345
 Iteration 22 RMS(Cart)=  0.00082246 RMS(Int)=  0.05377841
 Iteration 23 RMS(Cart)=  0.00079710 RMS(Int)=  0.05312252
 Iteration 24 RMS(Cart)=  0.00077314 RMS(Int)=  0.05248474
 Iteration 25 RMS(Cart)=  0.00075048 RMS(Int)=  0.05186413
 Iteration 26 RMS(Cart)=  0.00072902 RMS(Int)=  0.05125978
 Iteration 27 RMS(Cart)=  0.00070867 RMS(Int)=  0.05067088
 Iteration 28 RMS(Cart)=  0.00068934 RMS(Int)=  0.05009665
 Iteration 29 RMS(Cart)=  0.00067098 RMS(Int)=  0.04953641
 Iteration 30 RMS(Cart)=  0.00065351 RMS(Int)=  0.04898946
 Iteration 31 RMS(Cart)=  0.00063686 RMS(Int)=  0.04845522
 Iteration 32 RMS(Cart)=  0.00062100 RMS(Int)=  0.04793308
 Iteration 33 RMS(Cart)=  0.00060586 RMS(Int)=  0.04742252
 Iteration 34 RMS(Cart)=  0.00059141 RMS(Int)=  0.04692302
 Iteration 35 RMS(Cart)=  0.00057759 RMS(Int)=  0.04643412
 Iteration 36 RMS(Cart)=  0.00056437 RMS(Int)=  0.04595537
 Iteration 37 RMS(Cart)=  0.00055172 RMS(Int)=  0.04548634
 Iteration 38 RMS(Cart)=  0.00053959 RMS(Int)=  0.04502665
 Iteration 39 RMS(Cart)=  0.00052796 RMS(Int)=  0.04457592
 Iteration 40 RMS(Cart)=  0.00051680 RMS(Int)=  0.04413381
 Iteration 41 RMS(Cart)=  0.00050609 RMS(Int)=  0.04369997
 Iteration 42 RMS(Cart)=  0.00049580 RMS(Int)=  0.04327411
 Iteration 43 RMS(Cart)=  0.00048590 RMS(Int)=  0.04285592
 Iteration 44 RMS(Cart)=  0.00047638 RMS(Int)=  0.04244513
 Iteration 45 RMS(Cart)=  0.00046721 RMS(Int)=  0.04204146
 Iteration 46 RMS(Cart)=  0.00045838 RMS(Int)=  0.04164467
 Iteration 47 RMS(Cart)=  0.00044987 RMS(Int)=  0.04125452
 Iteration 48 RMS(Cart)=  0.00044166 RMS(Int)=  0.04087078
 Iteration 49 RMS(Cart)=  0.00043374 RMS(Int)=  0.04049324
 Iteration 50 RMS(Cart)=  0.00042516 RMS(Int)=  0.04012265
 Iteration 51 RMS(Cart)=  0.00041641 RMS(Int)=  0.03975927
 Iteration 52 RMS(Cart)=  0.00040789 RMS(Int)=  0.03940292
 Iteration 53 RMS(Cart)=  0.00039837 RMS(Int)=  0.03905469
 Iteration 54 RMS(Cart)=  0.00038921 RMS(Int)=  0.03871429
 Iteration 55 RMS(Cart)=  0.00037981 RMS(Int)=  0.03838205
 Iteration 56 RMS(Cart)=  0.00037016 RMS(Int)=  0.03805832
 Iteration 57 RMS(Cart)=  0.00036091 RMS(Int)=  0.03774275
 Iteration 58 RMS(Cart)=  0.00035205 RMS(Int)=  0.03743498
 Iteration 59 RMS(Cart)=  0.00034354 RMS(Int)=  0.03713472
 Iteration 60 RMS(Cart)=  0.00033536 RMS(Int)=  0.03684166
 Iteration 61 RMS(Cart)=  0.00032751 RMS(Int)=  0.03655551
 Iteration 62 RMS(Cart)=  0.00031996 RMS(Int)=  0.03627601
 Iteration 63 RMS(Cart)=  0.00031270 RMS(Int)=  0.03600290
 Iteration 64 RMS(Cart)=  0.00030571 RMS(Int)=  0.03573595
 Iteration 65 RMS(Cart)=  0.00029897 RMS(Int)=  0.03547492
 Iteration 66 RMS(Cart)=  0.00029248 RMS(Int)=  0.03521960
 Iteration 67 RMS(Cart)=  0.00028622 RMS(Int)=  0.03496979
 Iteration 68 RMS(Cart)=  0.00028019 RMS(Int)=  0.03472528
 Iteration 69 RMS(Cart)=  0.00027436 RMS(Int)=  0.03448590
 Iteration 70 RMS(Cart)=  0.00026873 RMS(Int)=  0.03425147
 Iteration 71 RMS(Cart)=  0.00026329 RMS(Int)=  0.03402182
 Iteration 72 RMS(Cart)=  0.00025803 RMS(Int)=  0.03379679
 Iteration 73 RMS(Cart)=  0.00025295 RMS(Int)=  0.03357622
 Iteration 74 RMS(Cart)=  0.00024803 RMS(Int)=  0.03335998
 Iteration 75 RMS(Cart)=  0.00024327 RMS(Int)=  0.03314792
 Iteration 76 RMS(Cart)=  0.00023866 RMS(Int)=  0.03293990
 Iteration 77 RMS(Cart)=  0.00023419 RMS(Int)=  0.03273581
 Iteration 78 RMS(Cart)=  0.00022986 RMS(Int)=  0.03253552
 Iteration 79 RMS(Cart)=  0.00022567 RMS(Int)=  0.03233891
 Iteration 80 RMS(Cart)=  0.00022160 RMS(Int)=  0.03214587
 Iteration 81 RMS(Cart)=  0.00021765 RMS(Int)=  0.03195630
 Iteration 82 RMS(Cart)=  0.00021381 RMS(Int)=  0.03177009
 Iteration 83 RMS(Cart)=  0.00021009 RMS(Int)=  0.03158715
 Iteration 84 RMS(Cart)=  0.00020647 RMS(Int)=  0.03140738
 Iteration 85 RMS(Cart)=  0.00020296 RMS(Int)=  0.03123069
 Iteration 86 RMS(Cart)=  0.00019955 RMS(Int)=  0.03105699
 Iteration 87 RMS(Cart)=  0.00019623 RMS(Int)=  0.03088620
 Iteration 88 RMS(Cart)=  0.00019300 RMS(Int)=  0.03071824
 Iteration 89 RMS(Cart)=  0.00018986 RMS(Int)=  0.03055304
 Iteration 90 RMS(Cart)=  0.00018680 RMS(Int)=  0.03039051
 Iteration 91 RMS(Cart)=  0.00018383 RMS(Int)=  0.03023059
 Iteration 92 RMS(Cart)=  0.00018093 RMS(Int)=  0.03007321
 Iteration 93 RMS(Cart)=  0.00017811 RMS(Int)=  0.02991831
 Iteration 94 RMS(Cart)=  0.00017536 RMS(Int)=  0.02976581
 Iteration 95 RMS(Cart)=  0.00017268 RMS(Int)=  0.02961565
 Iteration 96 RMS(Cart)=  0.00017006 RMS(Int)=  0.02946779
 Iteration 97 RMS(Cart)=  0.00016752 RMS(Int)=  0.02932215
 Iteration 98 RMS(Cart)=  0.00016503 RMS(Int)=  0.02917869
 Iteration 99 RMS(Cart)=  0.00016261 RMS(Int)=  0.02903736
 Iteration100 RMS(Cart)=  0.00016024 RMS(Int)=  0.02889809
 New curvilinear step not converged.
 ITry= 2 IFail=1 DXMaxC= 2.29D-01 DCOld= 1.00D+10 DXMaxT= 3.00D+00 DXLimC= 3.00D+00 Rises=F
 Iteration  1 RMS(Cart)=  0.00818962 RMS(Int)=  0.07084161
 Iteration  2 RMS(Cart)=  0.00158340 RMS(Int)=  0.06961281
 Iteration  3 RMS(Cart)=  0.00151572 RMS(Int)=  0.06843271
 Iteration  4 RMS(Cart)=  0.00145313 RMS(Int)=  0.06729771
 Iteration  5 RMS(Cart)=  0.00139510 RMS(Int)=  0.06620459
 Iteration  6 RMS(Cart)=  0.00134117 RMS(Int)=  0.06515046
 Iteration  7 RMS(Cart)=  0.00128588 RMS(Int)=  0.06413644
 Iteration  8 RMS(Cart)=  0.00123439 RMS(Int)=  0.06315984
 Iteration  9 RMS(Cart)=  0.00118655 RMS(Int)=  0.06221805
 Iteration 10 RMS(Cart)=  0.00114200 RMS(Int)=  0.06130872
 Iteration 11 RMS(Cart)=  0.00110044 RMS(Int)=  0.06042972
 Iteration 12 RMS(Cart)=  0.00106157 RMS(Int)=  0.05957912
 Iteration 13 RMS(Cart)=  0.00102517 RMS(Int)=  0.05875516
 Iteration 14 RMS(Cart)=  0.00099102 RMS(Int)=  0.05795623
 Iteration 15 RMS(Cart)=  0.00095892 RMS(Int)=  0.05718086
 Iteration 16 RMS(Cart)=  0.00092642 RMS(Int)=  0.05642969
 Iteration 17 RMS(Cart)=  0.00089499 RMS(Int)=  0.05570207
 Iteration 18 RMS(Cart)=  0.00086545 RMS(Int)=  0.05499661
 Iteration 19 RMS(Cart)=  0.00083764 RMS(Int)=  0.05431203
 Iteration 20 RMS(Cart)=  0.00081143 RMS(Int)=  0.05364716
 Iteration 21 RMS(Cart)=  0.00078669 RMS(Int)=  0.05300090
 Iteration 22 RMS(Cart)=  0.00076331 RMS(Int)=  0.05237226
 Iteration 23 RMS(Cart)=  0.00074117 RMS(Int)=  0.05176032
 Iteration 24 RMS(Cart)=  0.00072020 RMS(Int)=  0.05116422
 Iteration 25 RMS(Cart)=  0.00070030 RMS(Int)=  0.05058316
 Iteration 26 RMS(Cart)=  0.00068140 RMS(Int)=  0.05001641
 Iteration 27 RMS(Cart)=  0.00066343 RMS(Int)=  0.04946328
 Iteration 28 RMS(Cart)=  0.00064632 RMS(Int)=  0.04892314
 Iteration 29 RMS(Cart)=  0.00063002 RMS(Int)=  0.04839537
 Iteration 30 RMS(Cart)=  0.00061448 RMS(Int)=  0.04787943
 Iteration 31 RMS(Cart)=  0.00059965 RMS(Int)=  0.04737480
 Iteration 32 RMS(Cart)=  0.00058547 RMS(Int)=  0.04688097
slurmstepd: error: *** JOB 27446880 ON lewis4-r630-hpc4-node228 CANCELLED AT 2023-05-16T08:41:00 DUE TO TIME LIMIT ***
