### Starting Gaussian ###
 Entering Gaussian System, Link 0=g16
 Initial command:
 /cluster/software/gaussian/gaussian-16-A.03/avx2/g16/l1.exe "/local/scratch/linjian/Gau-3131.inp" -scrdir="/local/scratch/linjian/"
 Entering Link 1 = /cluster/software/gaussian/gaussian-16-A.03/avx2/g16/l1.exe PID=      3132.
  
 Copyright (c) 1988,1990,1992,1993,1995,1998,2003,2009,2016,
            Gaussian, Inc.  All Rights Reserved.
  
 This is part of the Gaussian(R) 16 program.  It is based on
 the Gaussian(R) 09 system (copyright 2009, Gaussian, Inc.),
 the Gaussian(R) 03 system (copyright 2003, Gaussian, Inc.),
 the Gaussian(R) 98 system (copyright 1998, Gaussian, Inc.),
 the Gaussian(R) 94 system (copyright 1995, Gaussian, Inc.),
 the Gaussian 92(TM) system (copyright 1992, Gaussian, Inc.),
 the Gaussian 90(TM) system (copyright 1990, Gaussian, Inc.),
 the Gaussian 88(TM) system (copyright 1988, Gaussian, Inc.),
 the Gaussian 86(TM) system (copyright 1986, Carnegie Mellon
 University), and the Gaussian 82(TM) system (copyright 1983,
 Carnegie Mellon University). Gaussian is a federally registered
 trademark of Gaussian, Inc.
  
 This software contains proprietary and confidential information,
 including trade secrets, belonging to Gaussian, Inc.
  
 This software is provided under written license and may be
 used, copied, transmitted, or stored only in accord with that
 written license.
  
 The following legend is applicable only to US Government
 contracts under FAR:
  
                    RESTRICTED RIGHTS LEGEND
  
 Use, reproduction and disclosure by the US Government is
 subject to restrictions as set forth in subparagraphs (a)
 and (c) of the Commercial Computer Software - Restricted
 Rights clause in FAR 52.227-19.
  
 Gaussian, Inc.
 340 Quinnipiac St., Bldg. 40, Wallingford CT 06492
  
  
 ---------------------------------------------------------------
 Warning -- This program may not be used in any manner that
 competes with the business of Gaussian, Inc. or will provide
 assistance to any competitor of Gaussian, Inc.  The licensee
 of this program is prohibited from giving any competitor of
 Gaussian, Inc. access to this program.  By using this program,
 the user acknowledges that Gaussian, Inc. is engaged in the
 business of creating and licensing software in the field of
 computational chemistry and represents and warrants to the
 licensee that it is not a competitor of Gaussian, Inc. and that
 it will not use this program in any manner prohibited above.
 ---------------------------------------------------------------
  

 Cite this work as:
 Gaussian 16, Revision A.03,
 M. J. Frisch, G. W. Trucks, H. B. Schlegel, G. E. Scuseria, 
 M. A. Robb, J. R. Cheeseman, G. Scalmani, V. Barone, 
 G. A. Petersson, H. Nakatsuji, X. Li, M. Caricato, A. V. Marenich, 
 J. Bloino, B. G. Janesko, R. Gomperts, B. Mennucci, H. P. Hratchian, 
 J. V. Ortiz, A. F. Izmaylov, J. L. Sonnenberg, D. Williams-Young, 
 F. Ding, F. Lipparini, F. Egidi, J. Goings, B. Peng, A. Petrone, 
 T. Henderson, D. Ranasinghe, V. G. Zakrzewski, J. Gao, N. Rega, 
 G. Zheng, W. Liang, M. Hada, M. Ehara, K. Toyota, R. Fukuda, 
 J. Hasegawa, M. Ishida, T. Nakajima, Y. Honda, O. Kitao, H. Nakai, 
 T. Vreven, K. Throssell, J. A. Montgomery, Jr., J. E. Peralta, 
 F. Ogliaro, M. J. Bearpark, J. J. Heyd, E. N. Brothers, K. N. Kudin, 
 V. N. Staroverov, T. A. Keith, R. Kobayashi, J. Normand, 
 K. Raghavachari, A. P. Rendell, J. C. Burant, S. S. Iyengar, 
 J. Tomasi, M. Cossi, J. M. Millam, M. Klene, C. Adamo, R. Cammi, 
 J. W. Ochterski, R. L. Martin, K. Morokuma, O. Farkas, 
 J. B. Foresman, and D. J. Fox, Gaussian, Inc., Wallingford CT, 2016.
 
 ******************************************
 Gaussian 16:  ES64L-G16RevA.03 25-Dec-2016
                16-May-2023 
 ******************************************
 %chk=NC1dCCdCCdC2CdCNdCCdC2SCSS1.chk
 %NProcShared=20
 Will use up to   20 processors via shared memory.
 -----------------------------
 # opt freq b3lyp/6-31g(2df,p)
 -----------------------------
 1/18=20,19=15,26=3,38=1/1,3;
 2/9=110,12=2,17=6,18=5,40=1/2;
 3/5=1,6=6,7=104,11=2,25=1,30=1,71=1,74=-5/1,2,3;
 4//1;
 5/5=2,38=5/2;
 6/7=2,8=2,9=2,10=2,28=1/1;
 7//1,2,3,16;
 1/18=20,19=15,26=3/3(2);
 2/9=110/2;
 99//99;
 2/9=110/2;
 3/5=1,6=6,7=104,11=2,25=1,30=1,71=1,74=-5/1,2,3;
 4/5=5,16=3,69=1/1;
 5/5=2,38=5/2;
 7//1,2,3,16;
 1/18=20,19=15,26=3/3(-5);
 2/9=110/2;
 6/7=2,8=2,9=2,10=2,19=2,28=1/1;
 99/9=1/99;
 -------------------
 Title Card Required
 -------------------
 Symbolic Z-matrix:
 Charge =  0 Multiplicity = 1
 N                     1.05793  -0.32958   0.20193 
 C                     2.3352   -0.07742   0.76438 
 C                     3.29164  -0.97981   0.45251 
 C                     4.74828  -0.74224   0.57792 
 C                     5.43373  -1.03225   1.6896 
 C                     6.84854  -1.04216   2.05496 
 C                     7.42928  -1.49314   3.2249 
 C                     8.91362  -1.49482   3.22699 
 C                     9.79792  -1.87173   4.18226 
 N                     9.67227  -2.32563   5.4427 
 C                     8.52627  -2.4959    6.03647 
 C                     7.13618  -2.34622   5.59624 
 C                     6.64266  -2.02807   4.38276 
 S                     5.10087  -2.84961   4.09107 
 C                     3.80667  -1.925     4.9477 
 S                     2.31297  -1.19753   3.79472 
 S                     2.58315   0.56134   2.51644 
 H                     0.34294  -0.28831   0.91673 
 H                     0.77611   0.31693  -0.54707 
 H                     2.94925  -1.91317   0.94362 
 H                     5.23324  -0.32496  -0.29299 
 H                     4.75785  -1.29651   2.46483 
 H                     7.49013  -0.6868    1.24759 
 H                     9.39193  -1.18411   2.29873 
 H                     10.85336  -1.80908   3.90413 
 H                     8.60169  -2.92039   7.0538 
 H                     6.4688   -2.7686    6.34477 
 H                     4.02591  -1.35461   5.86979 
 H                     3.34441  -2.82836   5.38963 
 

 GradGradGradGradGradGradGradGradGradGradGradGradGradGradGradGradGradGrad
 Berny optimization.
 Initialization pass.
                           ----------------------------
                           !    Initial Parameters    !
                           ! (Angstroms and Degrees)  !
 --------------------------                            --------------------------
 ! Name  Definition              Value          Derivative Info.                !
 --------------------------------------------------------------------------------
 ! R1    R(1,2)                  1.4182         estimate D2E/DX2                !
 ! R2    R(1,18)                 1.0119         estimate D2E/DX2                !
 ! R3    R(1,19)                 1.0288         estimate D2E/DX2                !
 ! R4    R(2,3)                  1.3514         estimate D2E/DX2                !
 ! R5    R(2,17)                 1.8813         estimate D2E/DX2                !
 ! R6    R(3,4)                  1.4812         estimate D2E/DX2                !
 ! R7    R(3,20)                 1.1089         estimate D2E/DX2                !
 ! R8    R(4,5)                  1.3378         estimate D2E/DX2                !
 ! R9    R(4,21)                 1.0806         estimate D2E/DX2                !
 ! R10   R(5,6)                  1.4613         estimate D2E/DX2                !
 ! R11   R(5,22)                 1.0619         estimate D2E/DX2                !
 ! R12   R(6,7)                  1.3818         estimate D2E/DX2                !
 ! R13   R(6,23)                 1.0908         estimate D2E/DX2                !
 ! R14   R(7,8)                  1.4843         estimate D2E/DX2                !
 ! R15   R(7,13)                 1.4985         estimate D2E/DX2                !
 ! R16   R(8,9)                  1.3552         estimate D2E/DX2                !
 ! R17   R(8,24)                 1.0895         estimate D2E/DX2                !
 ! R18   R(9,10)                 1.3456         estimate D2E/DX2                !
 ! R19   R(9,25)                 1.0933         estimate D2E/DX2                !
 ! R20   R(10,11)                1.3019         estimate D2E/DX2                !
 ! R21   R(11,12)                1.4658         estimate D2E/DX2                !
 ! R22   R(11,26)                1.1049         estimate D2E/DX2                !
 ! R23   R(12,13)                1.3481         estimate D2E/DX2                !
 ! R24   R(12,27)                1.0882         estimate D2E/DX2                !
 ! R25   R(13,14)                1.7712         estimate D2E/DX2                !
 ! R26   R(14,15)                1.8066         estimate D2E/DX2                !
 ! R27   R(15,16)                2.0223         estimate D2E/DX2                !
 ! R28   R(15,28)                1.1062         estimate D2E/DX2                !
 ! R29   R(15,29)                1.1068         estimate D2E/DX2                !
 ! R30   R(16,17)                2.191          estimate D2E/DX2                !
 ! A1    A(2,1,18)             110.4245         estimate D2E/DX2                !
 ! A2    A(2,1,19)             115.069          estimate D2E/DX2                !
 ! A3    A(18,1,19)            107.1642         estimate D2E/DX2                !
 ! A4    A(1,2,3)              115.2865         estimate D2E/DX2                !
 ! A5    A(1,2,17)             123.2585         estimate D2E/DX2                !
 ! A6    A(3,2,17)             110.3871         estimate D2E/DX2                !
 ! A7    A(2,3,4)              124.7052         estimate D2E/DX2                !
 ! A8    A(2,3,20)             103.964          estimate D2E/DX2                !
 ! A9    A(4,3,20)             113.6507         estimate D2E/DX2                !
 ! A10   A(3,4,5)              122.6462         estimate D2E/DX2                !
 ! A11   A(3,4,21)             115.7869         estimate D2E/DX2                !
 ! A12   A(5,4,21)             121.5646         estimate D2E/DX2                !
 ! A13   A(4,5,6)              134.8547         estimate D2E/DX2                !
 ! A14   A(4,5,22)             109.5405         estimate D2E/DX2                !
 ! A15   A(6,5,22)             115.5965         estimate D2E/DX2                !
 ! A16   A(5,6,7)              128.3763         estimate D2E/DX2                !
 ! A17   A(5,6,23)             112.4717         estimate D2E/DX2                !
 ! A18   A(7,6,23)             119.066          estimate D2E/DX2                !
 ! A19   A(6,7,8)              114.9505         estimate D2E/DX2                !
 ! A20   A(6,7,13)             123.3729         estimate D2E/DX2                !
 ! A21   A(8,7,13)             121.5632         estimate D2E/DX2                !
 ! A22   A(7,8,9)              130.8307         estimate D2E/DX2                !
 ! A23   A(7,8,24)             115.9444         estimate D2E/DX2                !
 ! A24   A(9,8,24)             113.1675         estimate D2E/DX2                !
 ! A25   A(8,9,10)             133.8827         estimate D2E/DX2                !
 ! A26   A(8,9,25)             115.7649         estimate D2E/DX2                !
 ! A27   A(10,9,25)            110.3523         estimate D2E/DX2                !
 ! A28   A(9,10,11)            123.6115         estimate D2E/DX2                !
 ! A29   A(10,11,12)           133.194          estimate D2E/DX2                !
 ! A30   A(10,11,26)           114.2109         estimate D2E/DX2                !
 ! A31   A(12,11,26)           112.3641         estimate D2E/DX2                !
 ! A32   A(11,12,13)           129.9136         estimate D2E/DX2                !
 ! A33   A(11,12,27)           109.5969         estimate D2E/DX2                !
 ! A34   A(13,12,27)           119.0965         estimate D2E/DX2                !
 ! A35   A(7,13,12)            125.9866         estimate D2E/DX2                !
 ! A36   A(7,13,14)            119.6876         estimate D2E/DX2                !
 ! A37   A(12,13,14)           110.9438         estimate D2E/DX2                !
 ! A38   A(13,14,15)           107.9459         estimate D2E/DX2                !
 ! A39   A(14,15,16)           116.289          estimate D2E/DX2                !
 ! A40   A(14,15,28)           121.1433         estimate D2E/DX2                !
 ! A41   A(14,15,29)            94.0601         estimate D2E/DX2                !
 ! A42   A(16,15,28)           115.8584         estimate D2E/DX2                !
 ! A43   A(16,15,29)           102.2842         estimate D2E/DX2                !
 ! A44   A(28,15,29)            99.8341         estimate D2E/DX2                !
 ! A45   A(15,16,17)           122.0267         estimate D2E/DX2                !
 ! A46   A(2,17,16)            104.7454         estimate D2E/DX2                !
 ! D1    D(18,1,2,3)           129.7027         estimate D2E/DX2                !
 ! D2    D(18,1,2,17)          -10.7025         estimate D2E/DX2                !
 ! D3    D(19,1,2,3)          -108.8409         estimate D2E/DX2                !
 ! D4    D(19,1,2,17)          110.7539         estimate D2E/DX2                !
 ! D5    D(1,2,3,4)            161.4191         estimate D2E/DX2                !
 ! D6    D(1,2,3,20)           -66.123          estimate D2E/DX2                !
 ! D7    D(17,2,3,4)           -53.2317         estimate D2E/DX2                !
 ! D8    D(17,2,3,20)           79.2261         estimate D2E/DX2                !
 ! D9    D(1,2,17,16)           78.4439         estimate D2E/DX2                !
 ! D10   D(3,2,17,16)          -63.619          estimate D2E/DX2                !
 ! D11   D(2,3,4,5)             90.7003         estimate D2E/DX2                !
 ! D12   D(2,3,4,21)           -89.8504         estimate D2E/DX2                !
 ! D13   D(20,3,4,5)           -37.8904         estimate D2E/DX2                !
 ! D14   D(20,3,4,21)          141.5588         estimate D2E/DX2                !
 ! D15   D(3,4,5,6)            172.4711         estimate D2E/DX2                !
 ! D16   D(3,4,5,22)            -8.6665         estimate D2E/DX2                !
 ! D17   D(21,4,5,6)            -6.9469         estimate D2E/DX2                !
 ! D18   D(21,4,5,22)          171.9155         estimate D2E/DX2                !
 ! D19   D(4,5,6,7)           -173.1361         estimate D2E/DX2                !
 ! D20   D(4,5,6,23)             3.4156         estimate D2E/DX2                !
 ! D21   D(22,5,6,7)             8.0527         estimate D2E/DX2                !
 ! D22   D(22,5,6,23)         -175.3956         estimate D2E/DX2                !
 ! D23   D(5,6,7,8)            173.8435         estimate D2E/DX2                !
 ! D24   D(5,6,7,13)            -2.3337         estimate D2E/DX2                !
 ! D25   D(23,6,7,8)            -2.5107         estimate D2E/DX2                !
 ! D26   D(23,6,7,13)         -178.6879         estimate D2E/DX2                !
 ! D27   D(6,7,8,9)           -179.56           estimate D2E/DX2                !
 ! D28   D(6,7,8,24)            -2.5416         estimate D2E/DX2                !
 ! D29   D(13,7,8,9)            -3.3067         estimate D2E/DX2                !
 ! D30   D(13,7,8,24)          173.7118         estimate D2E/DX2                !
 ! D31   D(6,7,13,12)         -172.3968         estimate D2E/DX2                !
 ! D32   D(6,7,13,14)           30.3076         estimate D2E/DX2                !
 ! D33   D(8,7,13,12)           11.6714         estimate D2E/DX2                !
 ! D34   D(8,7,13,14)         -145.6242         estimate D2E/DX2                !
 ! D35   D(7,8,9,10)            -2.3461         estimate D2E/DX2                !
 ! D36   D(7,8,9,25)           177.4908         estimate D2E/DX2                !
 ! D37   D(24,8,9,10)         -179.4299         estimate D2E/DX2                !
 ! D38   D(24,8,9,25)            0.4069         estimate D2E/DX2                !
 ! D39   D(8,9,10,11)           -0.3497         estimate D2E/DX2                !
 ! D40   D(25,9,10,11)         179.807          estimate D2E/DX2                !
 ! D41   D(9,10,11,12)           3.3407         estimate D2E/DX2                !
 ! D42   D(9,10,11,26)         177.2735         estimate D2E/DX2                !
 ! D43   D(10,11,12,13)          3.1535         estimate D2E/DX2                !
 ! D44   D(10,11,12,27)        169.2734         estimate D2E/DX2                !
 ! D45   D(26,11,12,13)       -170.8632         estimate D2E/DX2                !
 ! D46   D(26,11,12,27)         -4.7433         estimate D2E/DX2                !
 ! D47   D(11,12,13,7)         -12.3253         estimate D2E/DX2                !
 ! D48   D(11,12,13,14)        146.6338         estimate D2E/DX2                !
 ! D49   D(27,12,13,7)        -177.3363         estimate D2E/DX2                !
 ! D50   D(27,12,13,14)        -18.3772         estimate D2E/DX2                !
 ! D51   D(7,13,14,15)        -119.5126         estimate D2E/DX2                !
 ! D52   D(12,13,14,15)         80.024          estimate D2E/DX2                !
 ! D53   D(13,14,15,16)        120.5482         estimate D2E/DX2                !
 ! D54   D(13,14,15,28)        -29.5503         estimate D2E/DX2                !
 ! D55   D(13,14,15,29)       -133.6111         estimate D2E/DX2                !
 ! D56   D(14,15,16,17)        -75.6026         estimate D2E/DX2                !
 ! D57   D(28,15,16,17)         76.0943         estimate D2E/DX2                !
 ! D58   D(29,15,16,17)       -176.4611         estimate D2E/DX2                !
 ! D59   D(15,16,17,2)         116.9204         estimate D2E/DX2                !
 --------------------------------------------------------------------------------
 Trust Radius=3.00D-01 FncErr=1.00D-07 GrdErr=1.00D-06 EigMax=2.50D+02 EigMin=1.00D-04
 Number of steps in this run=    145 maximum allowed number of steps=    174.
 GradGradGradGradGradGradGradGradGradGradGradGradGradGradGradGradGradGrad

                          Input orientation:                          
 ---------------------------------------------------------------------
 Center     Atomic      Atomic             Coordinates (Angstroms)
 Number     Number       Type             X           Y           Z
 ---------------------------------------------------------------------
      1          7           0        1.057930   -0.329580    0.201930
      2          6           0        2.335200   -0.077420    0.764380
      3          6           0        3.291640   -0.979810    0.452510
      4          6           0        4.748280   -0.742240    0.577920
      5          6           0        5.433730   -1.032250    1.689600
      6          6           0        6.848540   -1.042160    2.054960
      7          6           0        7.429280   -1.493140    3.224900
      8          6           0        8.913620   -1.494820    3.226990
      9          6           0        9.797920   -1.871730    4.182260
     10          7           0        9.672270   -2.325630    5.442700
     11          6           0        8.526270   -2.495900    6.036470
     12          6           0        7.136180   -2.346220    5.596240
     13          6           0        6.642660   -2.028070    4.382760
     14         16           0        5.100870   -2.849610    4.091070
     15          6           0        3.806670   -1.925000    4.947700
     16         16           0        2.312970   -1.197530    3.794720
     17         16           0        2.583150    0.561340    2.516440
     18          1           0        0.342940   -0.288310    0.916730
     19          1           0        0.776110    0.316930   -0.547070
     20          1           0        2.949250   -1.913170    0.943620
     21          1           0        5.233240   -0.324960   -0.292990
     22          1           0        4.757850   -1.296510    2.464830
     23          1           0        7.490130   -0.686800    1.247590
     24          1           0        9.391930   -1.184110    2.298730
     25          1           0       10.853360   -1.809080    3.904130
     26          1           0        8.601690   -2.920390    7.053800
     27          1           0        6.468800   -2.768600    6.344770
     28          1           0        4.025910   -1.354610    5.869790
     29          1           0        3.344410   -2.828360    5.389630
 ---------------------------------------------------------------------
                    Distance matrix (angstroms):
                    1          2          3          4          5
     1  N    0.000000
     2  C    1.418222   0.000000
     3  C    2.339882   1.351424   0.000000
     4  C    3.732337   2.509922   1.481205   0.000000
     5  C    4.674883   3.371739   2.474205   1.337827   0.000000
     6  C    6.121491   4.792344   3.901701   2.585090   1.461257
     7  C    7.147470   5.831644   5.006967   3.841629   2.559646
     8  C    8.498273   7.165827   6.290440   4.993396   3.832385
     9  C    9.726699   8.402002   7.552366   6.306019   5.095511
    10  N   10.278946   8.987420   8.211313   7.100626   5.807221
    11  C    9.721672   8.483709   7.802595   6.866171   5.531849
    12  C    8.373204   7.179396   6.565480   5.784320   4.459449
    13  C    7.180071   5.954152   5.270204   4.440590   3.115490
    14  S    6.149904   5.138174   4.473096   4.111879   3.029959
    15  C    5.711678   4.804055   4.622269   4.623908   3.749606
    16  S    3.903409   3.230805   3.489350   4.060274   3.768022
    17  S    2.911527   1.881278   2.671499   3.185117   3.368828
    18  H    1.011856   2.009175   3.064067   4.441606   5.202588
    19  H    1.028785   2.075132   3.001431   4.262110   5.340075
    20  H    2.575840   1.944007   1.108865   2.177458   2.739552
    21  H    4.204543   3.094825   2.180461   1.080645   2.114502
    22  H    4.443543   3.201085   2.509881   1.966656   1.061899
    23  H    6.526424   5.213266   4.283144   2.822990   2.131546
    24  H    8.636107   7.305918   6.376818   4.971913   4.007674
    25  H   10.575711   9.242063   8.353501   7.033763   5.905929
    26  H   10.515167   9.322456   8.691347   7.844114   6.509661
    27  H    8.541710   7.447808   6.929130   6.350030   5.075125
    28  H    6.479524   5.527651   5.479649   5.375937   4.422653
    29  H    6.195492   5.475319   5.272104   5.429116   4.613187
                    6          7          8          9         10
     6  C    0.000000
     7  C    1.381811   0.000000
     8  C    2.417253   1.484342   0.000000
     9  C    3.729938   2.582697   1.355208   0.000000
    10  N    4.593205   3.262312   2.484988   1.345556   0.000000
    11  C    4.558570   3.180226   3.007554   2.333405   1.301872
    12  C    3.784703   2.537106   3.081805   3.051121   2.540817
    13  C    2.536347   1.498520   2.603348   3.165487   3.223438
    14  S    3.235270   2.830504   4.137530   4.798629   4.795744
    15  C    4.289560   4.034581   5.406185   6.040183   5.900067
    16  S    4.860278   5.156424   6.631688   7.525238   7.625467
    17  S    4.580145   5.311100   6.693842   7.794081   8.194707
    18  H    6.647307   7.549535   8.958210  10.127564  10.567473
    19  H    6.744783   7.859312   9.151231  10.418726  11.045457
    20  H    4.147071   5.044931   6.400196   7.575935   8.100052
    21  H    2.938782   4.308455   5.225326   6.576980   7.523683
    22  H    2.145617   2.784404   4.229733   5.355628   5.837664
    23  H    1.090763   2.136268   2.568510   3.916917   5.004643
    24  H    2.558985   2.192096   1.089490   2.045809   3.356517
    25  H    4.477296   3.505067   2.078430   1.093268   2.007236
    26  H    5.620470   4.251125   4.095610   3.282742   2.023740
    27  H    4.639749   3.504698   4.161756   4.069873   3.357406
    28  H    4.755817   4.312489   5.558216   6.035832   5.745143
    29  H    5.156497   4.811968   6.121392   6.634808   6.348021
                   11         12         13         14         15
    11  C    0.000000
    12  C    1.465796   0.000000
    13  C    2.549825   1.348078   0.000000
    14  S    3.955130   2.580974   1.771194   0.000000
    15  C    4.877086   3.418138   2.893548   1.806564   0.000000
    16  S    6.731739   5.275255   4.447674   3.254163   2.022304
    17  S    7.553675   6.218453   5.164089   4.522494   3.686450
    18  H    9.902125   8.501818   7.397743   6.266944   5.561016
    19  H   10.550829   9.234886   8.013654   7.088220   6.663561
    20  H    7.574949   6.274136   5.047986   3.925918   4.094871
    21  H    7.457821   6.510737   5.172010   5.060767   5.662161
    22  H    5.328803   4.069898   2.786780   2.274739   2.732103
    23  H    5.223007   4.667945   3.513759   4.297870   5.365802
    24  H    4.054733   4.160827   3.551610   4.939592   6.225840
    25  H    3.230162   4.119367   4.243470   5.848828   7.124487
    26  H    1.104916   2.145197   3.430523   4.586777   5.330917
    27  H    2.098237   1.088163   2.104304   2.637605   3.122563
    28  H    4.645812   3.275958   3.084183   2.560158   1.106192
    29  H    5.232648   3.827880   3.540156   2.184459   1.106818
                   16         17         18         19         20
    16  S    0.000000
    17  S    2.191032   0.000000
    18  H    3.604237   2.880888   0.000000
    19  H    4.848368   3.565140   1.642152   0.000000
    20  H    3.007618   2.954825   3.071440   3.452251   0.000000
    21  H    5.098895   3.962499   5.037837   4.510276   3.044376
    22  H    2.784931   2.860698   4.785866   5.246807   2.442413
    23  H    5.792383   5.219798   7.165932   7.021848   4.713382
    24  H    7.235319   7.032317   9.197641   9.196959   6.623894
    25  H    8.562957   8.714410  11.032055  11.219807   8.440996
    26  H    7.289571   8.302584  10.620660  11.379506   8.384442
    27  H    5.122689   6.390844   8.552287   9.456462   6.503185
    28  H    2.695321   4.122788   6.263710   7.384534   5.073296
    29  H    2.503440   4.508304   5.955461   7.192595   4.556394
                   21         22         23         24         25
    21  H    0.000000
    22  H    2.962343   0.000000
    23  H    2.756423   3.052667   0.000000
    24  H    4.974922   4.638418   2.229138   0.000000
    25  H    7.169671   6.284072   4.430354   2.259131   0.000000
    26  H    8.488700   6.202478   6.319538   5.123460   4.028083
    27  H    7.180379   4.488689   5.599844   5.236959   5.108989
    28  H    6.363779   3.483226   5.814768   6.447923   7.119300
    29  H    6.490521   3.591494   6.239372   6.987826   7.722045
                   26         27         28         29
    26  H    0.000000
    27  H    2.252772   0.000000
    28  H    4.979087   2.862287   0.000000
    29  H    5.515154   3.267671   1.693203   0.000000
 Stoichiometry    C12H12N2S3
 Framework group  C1[X(C12H12N2S3)]
 Deg. of freedom    81
 Full point group                 C1      NOp   1
 Largest Abelian subgroup         C1      NOp   1
 Largest concise Abelian subgroup C1      NOp   1
                         Standard orientation:                         
 ---------------------------------------------------------------------
 Center     Atomic      Atomic             Coordinates (Angstroms)
 Number     Number       Type             X           Y           Z
 ---------------------------------------------------------------------
      1          7           0       -5.067079    0.749863   -0.488063
      2          6           0       -3.780229    0.978209    0.062599
      3          6           0       -2.859618    1.459642   -0.801719
      4          6           0       -1.601834    2.133889   -0.405061
      5          6           0       -0.456088    1.469964   -0.214671
      6          6           0        0.930642    1.857667    0.034211
      7          6           0        2.050919    1.050419    0.086472
      8          6           0        3.339405    1.775321    0.219108
      9          6           0        4.611935    1.314726    0.290586
     10          7           0        5.159369    0.085703    0.309049
     11          6           0        4.463927   -1.013786    0.260511
     12          6           0        3.031447   -1.289355    0.116915
     13          6           0        2.001251   -0.439440   -0.066540
     14         16           0        0.743970   -1.176470   -1.073098
     15          6           0       -0.240432   -2.268542   -0.023334
     16         16           0       -2.214200   -1.847358    0.105340
     17         16           0       -2.970175   -0.177887    1.306168
     18          1           0       -5.389507   -0.181224   -0.257910
     19          1           0       -5.795697    1.408036   -0.180942
     20          1           0       -2.711679    0.631313   -1.523914
     21          1           0       -1.660743    3.206304   -0.285698
     22          1           0       -0.642201    0.424893   -0.243277
     23          1           0        1.050404    2.937337    0.132877
     24          1           0        3.276664    2.863002    0.218293
     25          1           0        5.391709    2.079139    0.344053
     26          1           0        5.073650   -1.934947    0.237285
     27          1           0        2.880727   -2.351145   -0.067430
     28          1           0        0.204304   -2.769817    0.856777
     29          1           0       -0.225123   -3.106693   -0.746047
 ---------------------------------------------------------------------
 Rotational constants (GHZ):           0.7610549           0.1941775           0.1662558
 Standard basis: 6-31G(2df,p) (6D, 7F)
 There are   599 symmetry adapted cartesian basis functions of A   symmetry.
 There are   548 symmetry adapted basis functions of A   symmetry.
   548 basis functions,   904 primitive gaussians,   599 cartesian basis functions
    73 alpha electrons       73 beta electrons
       nuclear repulsion energy      1489.5722276032 Hartrees.
 NAtoms=   29 NActive=   29 NUniq=   29 SFac= 1.00D+00 NAtFMM=   60 NAOKFM=F Big=F
 Integral buffers will be    131072 words long.
 Raffenetti 2 integral format.
 Two-electron integral symmetry is turned on.
 One-electron integrals computed using PRISM.
 PrsmSu:  requested number of processors reduced to:  12 ShMem   1 Linda.
 NBasis=   548 RedAO= T EigKep=  2.11D-04  NBF=   548
 NBsUse=   548 1.00D-06 EigRej= -1.00D+00 NBFU=   548
 ExpMin= 1.17D-01 ExpMax= 2.19D+04 ExpMxC= 3.30D+03 IAcc=3 IRadAn=         5 AccDes= 0.00D+00
 Harris functional with IExCor=  402 and IRadAn=       5 diagonalized for initial guess.
 HarFok:  IExCor=  402 AccDes= 0.00D+00 IRadAn=         5 IDoV= 1 UseB2=F ITyADJ=14
 ICtDFT=  3500011 ScaDFX=  1.000000  1.000000  1.000000  1.000000
 FoFCou: FMM=F IPFlag=           0 FMFlag=      100000 FMFlg1=           0
         NFxFlg=           0 DoJE=T BraDBF=F KetDBF=T FulRan=T
         wScrn=  0.000000 ICntrl=       500 IOpCl=  0 I1Cent=   200000004 NGrid=           0
         NMat0=    1 NMatS0=      1 NMatT0=    0 NMatD0=    1 NMtDS0=    0 NMtDT0=    0
 Petite list used in FoFCou.
 Requested convergence on RMS density matrix=1.00D-08 within 128 cycles.
 Requested convergence on MAX density matrix=1.00D-06.
 Requested convergence on             energy=1.00D-06.
 No special actions if energy rises.
 Integral accuracy reduced to 1.0D-05 until final iterations.
 Initial convergence to 1.0D-05 achieved.  Increase integral accuracy.
 SCF Done:  E(RB3LYP) =  -1768.35046625     A.U. after   19 cycles
            NFock= 19  Conv=0.73D-08     -V/T= 2.0047

 **********************************************************************

            Population analysis using the SCF density.

 **********************************************************************

 Orbital symmetries:
       Occupied  (A) (A) (A) (A) (A) (A) (A) (A) (A) (A) (A) (A)
                 (A) (A) (A) (A) (A) (A) (A) (A) (A) (A) (A) (A)
                 (A) (A) (A) (A) (A) (A) (A) (A) (A) (A) (A) (A)
                 (A) (A) (A) (A) (A) (A) (A) (A) (A) (A) (A) (A)
                 (A) (A) (A) (A) (A) (A) (A) (A) (A) (A) (A) (A)
                 (A) (A) (A) (A) (A) (A) (A) (A) (A) (A) (A) (A)
                 (A)
       Virtual   (A) (A) (A) (A) (A) (A) (A) (A) (A) (A) (A) (A)
                 (A) (A) (A) (A) (A) (A) (A) (A) (A) (A) (A) (A)
                 (A) (A) (A) (A) (A) (A) (A) (A) (A) (A) (A) (A)
                 (A) (A) (A) (A) (A) (A) (A) (A) (A) (A) (A) (A)
                 (A) (A) (A) (A) (A) (A) (A) (A) (A) (A) (A) (A)
                 (A) (A) (A) (A) (A) (A) (A) (A) (A) (A) (A) (A)
                 (A) (A) (A) (A) (A) (A) (A) (A) (A) (A) (A) (A)
                 (A) (A) (A) (A) (A) (A) (A) (A) (A) (A) (A) (A)
                 (A) (A) (A) (A) (A) (A) (A) (A) (A) (A) (A) (A)
                 (A) (A) (A) (A) (A) (A) (A) (A) (A) (A) (A) (A)
                 (A) (A) (A) (A) (A) (A) (A) (A) (A) (A) (A) (A)
                 (A) (A) (A) (A) (A) (A) (A) (A) (A) (A) (A) (A)
                 (A) (A) (A) (A) (A) (A) (A) (A) (A) (A) (A) (A)
                 (A) (A) (A) (A) (A) (A) (A) (A) (A) (A) (A) (A)
                 (A) (A) (A) (A) (A) (A) (A) (A) (A) (A) (A) (A)
                 (A) (A) (A) (A) (A) (A) (A) (A) (A) (A) (A) (A)
                 (A) (A) (A) (A) (A) (A) (A) (A) (A) (A) (A) (A)
                 (A) (A) (A) (A) (A) (A) (A) (A) (A) (A) (A) (A)
                 (A) (A) (A) (A) (A) (A) (A) (A) (A) (A) (A) (A)
                 (A) (A) (A) (A) (A) (A) (A) (A) (A) (A) (A) (A)
                 (A) (A) (A) (A) (A) (A) (A) (A) (A) (A) (A) (A)
                 (A) (A) (A) (A) (A) (A) (A) (A) (A) (A) (A) (A)
                 (A) (A) (A) (A) (A) (A) (A) (A) (A) (A) (A) (A)
                 (A) (A) (A) (A) (A) (A) (A) (A) (A) (A) (A) (A)
                 (A) (A) (A) (A) (A) (A) (A) (A) (A) (A) (A) (A)
                 (A) (A) (A) (A) (A) (A) (A) (A) (A) (A) (A) (A)
                 (A) (A) (A) (A) (A) (A) (A) (A) (A) (A) (A) (A)
                 (A) (A) (A) (A) (A) (A) (A) (A) (A) (A) (A) (A)
                 (A) (A) (A) (A) (A) (A) (A) (A) (A) (A) (A) (A)
                 (A) (A) (A) (A) (A) (A) (A) (A) (A) (A) (A) (A)
                 (A) (A) (A) (A) (A) (A) (A) (A) (A) (A) (A) (A)
                 (A) (A) (A) (A) (A) (A) (A) (A) (A) (A) (A) (A)
                 (A) (A) (A) (A) (A) (A) (A) (A) (A) (A) (A) (A)
                 (A) (A) (A) (A) (A) (A) (A) (A) (A) (A) (A) (A)
                 (A) (A) (A) (A) (A) (A) (A) (A) (A) (A) (A) (A)
                 (A) (A) (A) (A) (A) (A) (A) (A) (A) (A) (A) (A)
                 (A) (A) (A) (A) (A) (A) (A) (A) (A) (A) (A) (A)
                 (A) (A) (A) (A) (A) (A) (A) (A) (A) (A) (A) (A)
                 (A) (A) (A) (A) (A) (A) (A) (A) (A) (A) (A) (A)
                 (A) (A) (A) (A) (A) (A) (A)
 The electronic state is 1-A.
 Alpha  occ. eigenvalues --  -88.90506 -88.89446 -88.89247 -14.35088 -14.33522
 Alpha  occ. eigenvalues --  -10.26404 -10.25283 -10.25268 -10.24417 -10.22499
 Alpha  occ. eigenvalues --  -10.21769 -10.21665 -10.21025 -10.19622 -10.19398
 Alpha  occ. eigenvalues --  -10.18333 -10.17487  -7.96434  -7.95773  -7.95395
 Alpha  occ. eigenvalues --   -5.92902  -5.92600  -5.92287  -5.91978  -5.91911
 Alpha  occ. eigenvalues --   -5.91899  -5.91535  -5.91271  -5.90869  -0.94082
 Alpha  occ. eigenvalues --   -0.91884  -0.86152  -0.81627  -0.80657  -0.78563
 Alpha  occ. eigenvalues --   -0.76346  -0.74221  -0.70802  -0.69647  -0.65187
 Alpha  occ. eigenvalues --   -0.63865  -0.60873  -0.57809  -0.55640  -0.53290
 Alpha  occ. eigenvalues --   -0.52899  -0.50949  -0.50340  -0.46659  -0.46194
 Alpha  occ. eigenvalues --   -0.45541  -0.44605  -0.43123  -0.42698  -0.41707
 Alpha  occ. eigenvalues --   -0.40770  -0.39596  -0.38609  -0.38174  -0.37731
 Alpha  occ. eigenvalues --   -0.35002  -0.33956  -0.33680  -0.31883  -0.30008
 Alpha  occ. eigenvalues --   -0.29319  -0.28335  -0.26327  -0.25893  -0.24522
 Alpha  occ. eigenvalues --   -0.22806  -0.20363  -0.18351
 Alpha virt. eigenvalues --   -0.10272  -0.09934  -0.05524  -0.03723  -0.00580
 Alpha virt. eigenvalues --    0.01864   0.03954   0.05653   0.06618   0.08023
 Alpha virt. eigenvalues --    0.08732   0.09574   0.09753   0.11148   0.11443
 Alpha virt. eigenvalues --    0.13538   0.14489   0.14623   0.15698   0.16236
 Alpha virt. eigenvalues --    0.17511   0.18538   0.19045   0.20230   0.22075
 Alpha virt. eigenvalues --    0.22963   0.25052   0.25691   0.26482   0.27612
 Alpha virt. eigenvalues --    0.29070   0.29851   0.29942   0.30982   0.31836
 Alpha virt. eigenvalues --    0.32240   0.32551   0.33461   0.34615   0.35532
 Alpha virt. eigenvalues --    0.36440   0.37056   0.37323   0.38444   0.39205
 Alpha virt. eigenvalues --    0.39717   0.40552   0.41347   0.41761   0.42727
 Alpha virt. eigenvalues --    0.44302   0.44930   0.45368   0.46592   0.47462
 Alpha virt. eigenvalues --    0.47550   0.47982   0.48749   0.49437   0.50235
 Alpha virt. eigenvalues --    0.51093   0.51784   0.52101   0.52388   0.53005
 Alpha virt. eigenvalues --    0.54016   0.54951   0.55886   0.56550   0.57745
 Alpha virt. eigenvalues --    0.58094   0.58950   0.59329   0.60167   0.61440
 Alpha virt. eigenvalues --    0.61861   0.62167   0.64443   0.64691   0.65216
 Alpha virt. eigenvalues --    0.65509   0.67054   0.67651   0.68951   0.69594
 Alpha virt. eigenvalues --    0.69750   0.70450   0.71181   0.72028   0.72598
 Alpha virt. eigenvalues --    0.73625   0.74127   0.74919   0.75237   0.75689
 Alpha virt. eigenvalues --    0.76052   0.76665   0.77256   0.77603   0.78346
 Alpha virt. eigenvalues --    0.78952   0.79355   0.80602   0.80653   0.81101
 Alpha virt. eigenvalues --    0.82723   0.83443   0.84337   0.84869   0.85566
 Alpha virt. eigenvalues --    0.85985   0.87071   0.87536   0.88295   0.89513
 Alpha virt. eigenvalues --    0.90696   0.91619   0.92007   0.93355   0.93406
 Alpha virt. eigenvalues --    0.94463   0.95808   0.96743   0.99045   0.99654
 Alpha virt. eigenvalues --    1.00696   1.01604   1.02676   1.04175   1.04738
 Alpha virt. eigenvalues --    1.05479   1.07636   1.08862   1.10059   1.11806
 Alpha virt. eigenvalues --    1.14891   1.16008   1.16611   1.17739   1.20697
 Alpha virt. eigenvalues --    1.21486   1.22470   1.23852   1.24948   1.26009
 Alpha virt. eigenvalues --    1.28511   1.28594   1.31021   1.31074   1.32572
 Alpha virt. eigenvalues --    1.33915   1.34430   1.35489   1.36634   1.38308
 Alpha virt. eigenvalues --    1.40440   1.41590   1.43429   1.44388   1.44840
 Alpha virt. eigenvalues --    1.45119   1.46571   1.47653   1.49433   1.49615
 Alpha virt. eigenvalues --    1.50418   1.51081   1.52432   1.52657   1.53729
 Alpha virt. eigenvalues --    1.54535   1.55964   1.56001   1.57826   1.58274
 Alpha virt. eigenvalues --    1.59915   1.60147   1.61425   1.62387   1.62510
 Alpha virt. eigenvalues --    1.63708   1.65868   1.66835   1.68205   1.68381
 Alpha virt. eigenvalues --    1.69462   1.70252   1.71419   1.72291   1.72666
 Alpha virt. eigenvalues --    1.74006   1.74667   1.77264   1.78019   1.79386
 Alpha virt. eigenvalues --    1.81000   1.81551   1.82679   1.83809   1.87160
 Alpha virt. eigenvalues --    1.87628   1.89760   1.90629   1.92284   1.94113
 Alpha virt. eigenvalues --    1.94841   1.95277   1.97604   1.98636   1.99390
 Alpha virt. eigenvalues --    2.00235   2.01269   2.02199   2.02978   2.03808
 Alpha virt. eigenvalues --    2.06314   2.07339   2.08378   2.10367   2.11293
 Alpha virt. eigenvalues --    2.11458   2.12985   2.14270   2.16308   2.17681
 Alpha virt. eigenvalues --    2.18268   2.19425   2.20202   2.21632   2.22478
 Alpha virt. eigenvalues --    2.23776   2.24727   2.28863   2.30296   2.31274
 Alpha virt. eigenvalues --    2.32938   2.33781   2.35407   2.36051   2.37761
 Alpha virt. eigenvalues --    2.38605   2.40716   2.40884   2.41901   2.42122
 Alpha virt. eigenvalues --    2.44330   2.45403   2.45877   2.48003   2.49128
 Alpha virt. eigenvalues --    2.50422   2.52597   2.54835   2.56045   2.58461
 Alpha virt. eigenvalues --    2.58952   2.61735   2.63507   2.66209   2.67082
 Alpha virt. eigenvalues --    2.69297   2.69728   2.71497   2.72927   2.73991
 Alpha virt. eigenvalues --    2.76592   2.76881   2.78742   2.79775   2.81480
 Alpha virt. eigenvalues --    2.81844   2.83957   2.84274   2.86322   2.88264
 Alpha virt. eigenvalues --    2.89256   2.90339   2.91911   2.93249   2.94132
 Alpha virt. eigenvalues --    2.95911   2.96727   2.98222   2.99162   3.00159
 Alpha virt. eigenvalues --    3.02838   3.04068   3.05795   3.06852   3.08002
 Alpha virt. eigenvalues --    3.08643   3.09827   3.10685   3.13254   3.13343
 Alpha virt. eigenvalues --    3.15254   3.15667   3.17063   3.17668   3.18969
 Alpha virt. eigenvalues --    3.20752   3.20797   3.22087   3.24130   3.24402
 Alpha virt. eigenvalues --    3.25663   3.27137   3.28462   3.29828   3.30622
 Alpha virt. eigenvalues --    3.32162   3.32572   3.34609   3.35725   3.37544
 Alpha virt. eigenvalues --    3.37759   3.38538   3.39788   3.40921   3.41977
 Alpha virt. eigenvalues --    3.44042   3.44330   3.45389   3.46691   3.47595
 Alpha virt. eigenvalues --    3.49870   3.51301   3.52779   3.54253   3.54498
 Alpha virt. eigenvalues --    3.55371   3.57471   3.59689   3.61715   3.62575
 Alpha virt. eigenvalues --    3.63087   3.63364   3.64411   3.67061   3.69110
 Alpha virt. eigenvalues --    3.72218   3.72579   3.74103   3.74646   3.78368
 Alpha virt. eigenvalues --    3.79704   3.82245   3.83009   3.83277   3.85160
 Alpha virt. eigenvalues --    3.86751   3.90090   3.92246   3.93213   3.95501
 Alpha virt. eigenvalues --    3.97418   4.01214   4.02711   4.03824   4.07590
 Alpha virt. eigenvalues --    4.08734   4.10084   4.11802   4.12542   4.13305
 Alpha virt. eigenvalues --    4.14366   4.17584   4.18387   4.19866   4.20296
 Alpha virt. eigenvalues --    4.23228   4.24157   4.26998   4.28527   4.29262
 Alpha virt. eigenvalues --    4.32118   4.34043   4.34188   4.36205   4.37648
 Alpha virt. eigenvalues --    4.38362   4.39996   4.41148   4.42664   4.44204
 Alpha virt. eigenvalues --    4.45339   4.46195   4.47645   4.48213   4.49646
 Alpha virt. eigenvalues --    4.49943   4.51204   4.52394   4.53098   4.53292
 Alpha virt. eigenvalues --    4.54903   4.55602   4.56193   4.57262   4.58315
 Alpha virt. eigenvalues --    4.60944   4.61074   4.62886   4.64032   4.65114
 Alpha virt. eigenvalues --    4.66643   4.68274   4.71148   4.71494   4.72606
 Alpha virt. eigenvalues --    4.74019   4.75455   4.76415   4.77602   4.77779
 Alpha virt. eigenvalues --    4.78980   4.79332   4.80874   4.83074   4.85149
 Alpha virt. eigenvalues --    4.88024   4.89630   4.91955   4.93792   4.96672
 Alpha virt. eigenvalues --    4.98794   4.99503   5.00839   5.03080   5.05055
 Alpha virt. eigenvalues --    5.06993   5.08844   5.09257   5.14639   5.16875
 Alpha virt. eigenvalues --    5.18361   5.20225   5.24302   5.25207   5.30146
 Alpha virt. eigenvalues --    5.35009   5.37851   5.41007   5.45354   5.49777
 Alpha virt. eigenvalues --    5.50569   5.55301   5.60741   5.65338   5.69135
 Alpha virt. eigenvalues --    5.74121   5.78710   5.81433   5.89468   5.96792
 Alpha virt. eigenvalues --    6.02743   6.10273   6.28977   6.65254   9.85331
 Alpha virt. eigenvalues --   10.10617  10.25519  10.41687  10.66791  11.11674
 Alpha virt. eigenvalues --   11.26256  11.35993  11.49256  11.53478  11.68130
 Alpha virt. eigenvalues --   11.77523  11.93672  12.21419  12.33760  17.68157
          Condensed to atoms (all electrons):
               1          2          3          4          5          6
     1  N    6.527523   0.390080  -0.036788   0.001968   0.000104   0.000002
     2  C    0.390080   4.896505   0.492049  -0.033308  -0.004889  -0.000047
     3  C   -0.036788   0.492049   5.107801   0.387527   0.015234   0.005922
     4  C    0.001968  -0.033308   0.387527   4.936050   0.612550  -0.001513
     5  C    0.000104  -0.004889   0.015234   0.612550   4.661078   0.448133
     6  C    0.000002  -0.000047   0.005922  -0.001513   0.448133   5.035615
     7  C   -0.000000   0.000004  -0.000185   0.004225   0.001976   0.525513
     8  C    0.000000  -0.000000   0.000002  -0.000081   0.002948  -0.051781
     9  C    0.000000  -0.000000   0.000000   0.000001  -0.000171   0.004688
    10  N    0.000000   0.000000   0.000000  -0.000000  -0.000003   0.000339
    11  C    0.000000  -0.000000  -0.000000   0.000000  -0.000007   0.000121
    12  C    0.000000  -0.000000   0.000000  -0.000025   0.000349   0.006920
    13  C    0.000000  -0.000004  -0.000018   0.000006  -0.008714  -0.037869
    14  S    0.000003   0.000117   0.000623   0.004265  -0.017741  -0.032328
    15  C   -0.000001   0.000169   0.000063   0.000278  -0.002448   0.000301
    16  S   -0.001478  -0.017693  -0.015684  -0.004148   0.000843   0.000357
    17  S   -0.058785   0.324648  -0.097938   0.006752  -0.013366   0.000905
    18  H    0.327137  -0.042391   0.005452  -0.000126  -0.000001  -0.000000
    19  H    0.344974  -0.042165  -0.000136  -0.000357   0.000001   0.000000
    20  H   -0.009574  -0.048427   0.351954  -0.028293  -0.012264  -0.000370
    21  H   -0.000156  -0.001773  -0.051150   0.353844  -0.036630  -0.014831
    22  H   -0.000085  -0.000155  -0.031505  -0.057267   0.356818  -0.048732
    23  H   -0.000000  -0.000003  -0.000158  -0.011241  -0.041180   0.351534
    24  H   -0.000000   0.000000  -0.000000  -0.000017   0.000247  -0.009834
    25  H    0.000000   0.000000   0.000000  -0.000000   0.000001  -0.000156
    26  H    0.000000   0.000000   0.000000  -0.000000   0.000000   0.000005
    27  H    0.000000   0.000000  -0.000000  -0.000000  -0.000012  -0.000098
    28  H    0.000000  -0.000005  -0.000001  -0.000003  -0.000044   0.000012
    29  H    0.000000  -0.000009  -0.000013   0.000000  -0.000000  -0.000022
               7          8          9         10         11         12
     1  N   -0.000000   0.000000   0.000000   0.000000   0.000000   0.000000
     2  C    0.000004  -0.000000  -0.000000   0.000000  -0.000000  -0.000000
     3  C   -0.000185   0.000002   0.000000   0.000000  -0.000000   0.000000
     4  C    0.004225  -0.000081   0.000001  -0.000000   0.000000  -0.000025
     5  C    0.001976   0.002948  -0.000171  -0.000003  -0.000007   0.000349
     6  C    0.525513  -0.051781   0.004688   0.000339   0.000121   0.006920
     7  C    4.686880   0.425949  -0.005257  -0.011882  -0.009202   0.006940
     8  C    0.425949   4.950073   0.543479  -0.022650  -0.013510  -0.016176
     9  C   -0.005257   0.543479   4.724772   0.494229  -0.075309  -0.002479
    10  N   -0.011882  -0.022650   0.494229   6.253390   0.647482  -0.034405
    11  C   -0.009202  -0.013510  -0.075309   0.647482   4.738664   0.381711
    12  C    0.006940  -0.016176  -0.002479  -0.034405   0.381711   5.013352
    13  C    0.402690  -0.014784  -0.010590  -0.016622  -0.010656   0.576313
    14  S   -0.020971   0.005720  -0.000195  -0.000198   0.007681  -0.083529
    15  C    0.000483  -0.000038  -0.000000  -0.000000   0.000050   0.001172
    16  S   -0.000152  -0.000002  -0.000000   0.000000   0.000003   0.000170
    17  S    0.000029  -0.000000  -0.000000   0.000000  -0.000000  -0.000007
    18  H    0.000000  -0.000000  -0.000000   0.000000  -0.000000  -0.000000
    19  H   -0.000000  -0.000000  -0.000000   0.000000  -0.000000  -0.000000
    20  H    0.000048  -0.000000  -0.000000   0.000000   0.000000  -0.000000
    21  H   -0.000008  -0.000016  -0.000000  -0.000000  -0.000000   0.000000
    22  H   -0.020882  -0.000160  -0.000001   0.000000  -0.000005   0.000702
    23  H   -0.046925  -0.013573   0.000334  -0.000003  -0.000003  -0.000118
    24  H   -0.043441   0.359882  -0.038712   0.004811  -0.000581  -0.000086
    25  H    0.003484  -0.063118   0.376922  -0.039578   0.004882   0.000060
    26  H    0.000104   0.000090   0.004647  -0.027995   0.366283  -0.069284
    27  H    0.004650   0.000021  -0.000486   0.004230  -0.042605   0.357059
    28  H    0.000194  -0.000001   0.000000  -0.000000  -0.000041   0.001635
    29  H   -0.000009   0.000001   0.000000   0.000000   0.000004   0.000049
              13         14         15         16         17         18
     1  N    0.000000   0.000003  -0.000001  -0.001478  -0.058785   0.327137
     2  C   -0.000004   0.000117   0.000169  -0.017693   0.324648  -0.042391
     3  C   -0.000018   0.000623   0.000063  -0.015684  -0.097938   0.005452
     4  C    0.000006   0.004265   0.000278  -0.004148   0.006752  -0.000126
     5  C   -0.008714  -0.017741  -0.002448   0.000843  -0.013366  -0.000001
     6  C   -0.037869  -0.032328   0.000301   0.000357   0.000905  -0.000000
     7  C    0.402690  -0.020971   0.000483  -0.000152   0.000029   0.000000
     8  C   -0.014784   0.005720  -0.000038  -0.000002  -0.000000  -0.000000
     9  C   -0.010590  -0.000195  -0.000000  -0.000000  -0.000000  -0.000000
    10  N   -0.016622  -0.000198  -0.000000   0.000000   0.000000   0.000000
    11  C   -0.010656   0.007681   0.000050   0.000003  -0.000000  -0.000000
    12  C    0.576313  -0.083529   0.001172   0.000170  -0.000007  -0.000000
    13  C    4.809962   0.221292  -0.012861   0.001182   0.000027  -0.000000
    14  S    0.221292  15.964290   0.245960  -0.065227   0.002883   0.000000
    15  C   -0.012861   0.245960   5.101796   0.221269  -0.003116  -0.000001
    16  S    0.001182  -0.065227   0.221269  15.937552   0.108392   0.001689
    17  S    0.000027   0.002883  -0.003116   0.108392  15.824712   0.003945
    18  H   -0.000000   0.000000  -0.000001   0.001689   0.003945   0.481969
    19  H    0.000000  -0.000000   0.000000  -0.000064   0.001481  -0.030352
    20  H   -0.000005   0.001067  -0.000394   0.004266   0.009252   0.000535
    21  H    0.000007  -0.000199  -0.000003  -0.000077   0.000541  -0.000002
    22  H    0.006672  -0.033235   0.001714   0.008411   0.001433   0.000009
    23  H    0.004885  -0.000944  -0.000002  -0.000001  -0.000036   0.000000
    24  H    0.004615  -0.000238   0.000001   0.000000  -0.000000  -0.000000
    25  H   -0.000177   0.000005  -0.000000  -0.000000   0.000000  -0.000000
    26  H    0.002852  -0.000712   0.000003  -0.000000   0.000000   0.000000
    27  H   -0.034589  -0.015175   0.000638  -0.000017   0.000000   0.000000
    28  H   -0.001404  -0.031474   0.364123  -0.026077  -0.000270   0.000000
    29  H    0.002709  -0.057441   0.359126  -0.024539   0.000800   0.000000
              19         20         21         22         23         24
     1  N    0.344974  -0.009574  -0.000156  -0.000085  -0.000000  -0.000000
     2  C   -0.042165  -0.048427  -0.001773  -0.000155  -0.000003   0.000000
     3  C   -0.000136   0.351954  -0.051150  -0.031505  -0.000158  -0.000000
     4  C   -0.000357  -0.028293   0.353844  -0.057267  -0.011241  -0.000017
     5  C    0.000001  -0.012264  -0.036630   0.356818  -0.041180   0.000247
     6  C    0.000000  -0.000370  -0.014831  -0.048732   0.351534  -0.009834
     7  C   -0.000000   0.000048  -0.000008  -0.020882  -0.046925  -0.043441
     8  C   -0.000000  -0.000000  -0.000016  -0.000160  -0.013573   0.359882
     9  C   -0.000000  -0.000000  -0.000000  -0.000001   0.000334  -0.038712
    10  N    0.000000   0.000000  -0.000000   0.000000  -0.000003   0.004811
    11  C   -0.000000   0.000000  -0.000000  -0.000005  -0.000003  -0.000581
    12  C   -0.000000  -0.000000   0.000000   0.000702  -0.000118  -0.000086
    13  C    0.000000  -0.000005   0.000007   0.006672   0.004885   0.004615
    14  S   -0.000000   0.001067  -0.000199  -0.033235  -0.000944  -0.000238
    15  C    0.000000  -0.000394  -0.000003   0.001714  -0.000002   0.000001
    16  S   -0.000064   0.004266  -0.000077   0.008411  -0.000001   0.000000
    17  S    0.001481   0.009252   0.000541   0.001433  -0.000036  -0.000000
    18  H   -0.030352   0.000535  -0.000002   0.000009   0.000000  -0.000000
    19  H    0.460225   0.000103   0.000039   0.000001   0.000000   0.000000
    20  H    0.000103   0.562173   0.003177   0.002807  -0.000002  -0.000000
    21  H    0.000039   0.003177   0.645574   0.009937   0.005045   0.000003
    22  H    0.000001   0.002807   0.009937   0.704271   0.007919   0.000015
    23  H    0.000000  -0.000002   0.005045   0.007919   0.648838   0.006345
    24  H    0.000000  -0.000000   0.000003   0.000015   0.006345   0.617601
    25  H    0.000000  -0.000000  -0.000000  -0.000000  -0.000037  -0.009596
    26  H   -0.000000   0.000000  -0.000000   0.000000  -0.000000   0.000010
    27  H   -0.000000   0.000000   0.000000   0.000028   0.000002   0.000008
    28  H   -0.000000   0.000007  -0.000000  -0.000214  -0.000000   0.000000
    29  H   -0.000000   0.000018   0.000000   0.000202   0.000000  -0.000000
              25         26         27         28         29
     1  N    0.000000   0.000000   0.000000   0.000000   0.000000
     2  C    0.000000   0.000000   0.000000  -0.000005  -0.000009
     3  C    0.000000   0.000000  -0.000000  -0.000001  -0.000013
     4  C   -0.000000  -0.000000  -0.000000  -0.000003   0.000000
     5  C    0.000001   0.000000  -0.000012  -0.000044  -0.000000
     6  C   -0.000156   0.000005  -0.000098   0.000012  -0.000022
     7  C    0.003484   0.000104   0.004650   0.000194  -0.000009
     8  C   -0.063118   0.000090   0.000021  -0.000001   0.000001
     9  C    0.376922   0.004647  -0.000486   0.000000   0.000000
    10  N   -0.039578  -0.027995   0.004230  -0.000000   0.000000
    11  C    0.004882   0.366283  -0.042605  -0.000041   0.000004
    12  C    0.000060  -0.069284   0.357059   0.001635   0.000049
    13  C   -0.000177   0.002852  -0.034589  -0.001404   0.002709
    14  S    0.000005  -0.000712  -0.015175  -0.031474  -0.057441
    15  C   -0.000000   0.000003   0.000638   0.364123   0.359126
    16  S   -0.000000  -0.000000  -0.000017  -0.026077  -0.024539
    17  S    0.000000   0.000000   0.000000  -0.000270   0.000800
    18  H   -0.000000   0.000000   0.000000   0.000000   0.000000
    19  H    0.000000  -0.000000  -0.000000  -0.000000  -0.000000
    20  H   -0.000000   0.000000   0.000000   0.000007   0.000018
    21  H   -0.000000  -0.000000   0.000000  -0.000000   0.000000
    22  H   -0.000000   0.000000   0.000028  -0.000214   0.000202
    23  H   -0.000037  -0.000000   0.000002  -0.000000   0.000000
    24  H   -0.009596   0.000010   0.000008   0.000000  -0.000000
    25  H    0.627027  -0.000313   0.000008   0.000000   0.000000
    26  H   -0.000313   0.614764  -0.004007   0.000006  -0.000001
    27  H    0.000008  -0.004007   0.612012   0.001892  -0.000199
    28  H    0.000000   0.000006   0.001892   0.552964  -0.033418
    29  H    0.000000  -0.000001  -0.000199  -0.033418   0.569261
 Mulliken charges:
               1
     1  N   -0.484923
     2  C    0.087298
     3  C   -0.133053
     4  C   -0.171088
     5  C    0.037187
     6  C   -0.182785
     7  C    0.095744
     8  C   -0.092275
     9  C   -0.015872
    10  N   -0.251145
    11  C    0.005039
    12  C   -0.140323
    13  C    0.115080
    14  S   -0.094299
    15  C   -0.278280
    16  S   -0.128976
    17  S   -0.112281
    18  H    0.252135
    19  H    0.266250
    20  H    0.163925
    21  H    0.086679
    22  H    0.091301
    23  H    0.089324
    24  H    0.108966
    25  H    0.100587
    26  H    0.113547
    27  H    0.116636
    28  H    0.172121
    29  H    0.183479
 Sum of Mulliken charges =  -0.00000
 Mulliken charges with hydrogens summed into heavy atoms:
               1
     1  N    0.033462
     2  C    0.087298
     3  C    0.030872
     4  C   -0.084409
     5  C    0.128488
     6  C   -0.093461
     7  C    0.095744
     8  C    0.016691
     9  C    0.084715
    10  N   -0.251145
    11  C    0.118585
    12  C   -0.023687
    13  C    0.115080
    14  S   -0.094299
    15  C    0.077321
    16  S   -0.128976
    17  S   -0.112281
 Electronic spatial extent (au):  <R**2>=           6269.9027
 Charge=             -0.0000 electrons
 Dipole moment (field-independent basis, Debye):
    X=             -1.1532    Y=             -0.3375    Z=              0.3191  Tot=              1.2433
 Quadrupole moment (field-independent basis, Debye-Ang):
   XX=           -116.1773   YY=           -108.5771   ZZ=           -127.1029
   XY=             -5.9291   XZ=             -0.7318   YZ=              1.6156
 Traceless Quadrupole moment (field-independent basis, Debye-Ang):
   XX=              1.1085   YY=              8.7086   ZZ=             -9.8171
   XY=             -5.9291   XZ=             -0.7318   YZ=              1.6156
 Octapole moment (field-independent basis, Debye-Ang**2):
  XXX=           -208.5076  YYY=             -4.1994  ZZZ=              1.3681  XYY=             23.4205
  XXY=             22.7202  XXZ=              5.2895  XZZ=              4.6594  YZZ=             -6.7408
  YYZ=              2.3437  XYZ=            -10.3732
 Hexadecapole moment (field-independent basis, Debye-Ang**3):
 XXXX=          -6231.9507 YYYY=          -1501.3567 ZZZZ=           -431.3355 XXXY=           -143.2969
 XXXZ=            -96.1356 YYYX=            -31.4755 YYYZ=             17.1185 ZZZX=             -8.9242
 ZZZY=              5.5932 XXYY=          -1226.3799 XXZZ=          -1244.2806 YYZZ=           -356.2467
 XXYZ=             40.8765 YYXZ=             11.2842 ZZXY=              4.6551
 N-N= 1.489572227603D+03 E-N=-7.149404174391D+03  KE= 1.760098071832D+03
 PrsmSu:  requested number of processors reduced to:  13 ShMem   1 Linda.
 Calling FoFJK, ICntrl=      2127 FMM=F ISym2X=0 I1Cent= 0 IOpClX= 0 NMat=1 NMatS=1 NMatT=0.
 ***** Axes restored to original set *****
 -------------------------------------------------------------------
 Center     Atomic                   Forces (Hartrees/Bohr)
 Number     Number              X              Y              Z
 -------------------------------------------------------------------
      1        7          -0.001735933    0.009830155    0.017504197
      2        6          -0.018820416    0.018058862    0.023828190
      3        6           0.036337777   -0.020814876    0.029566458
      4        6           0.001842721    0.006121065   -0.009073653
      5        6           0.013192263   -0.001818669    0.016111542
      6        6          -0.019134232    0.001414668   -0.011875435
      7        6          -0.000217239    0.006961116   -0.012445997
      8        6          -0.013562275   -0.003207580    0.010469703
      9        6           0.014360844    0.012129207   -0.025390556
     10        7          -0.026180860   -0.013584765    0.032809940
     11        6           0.011391151    0.006409679    0.006136689
     12        6           0.024056873   -0.005032358    0.012173493
     13        6           0.021076524   -0.005687230   -0.016730873
     14       16          -0.009387134    0.001440961    0.007116046
     15        6          -0.019419962   -0.016297102   -0.005308780
     16       16           0.012966967   -0.001743354    0.013659750
     17       16          -0.013307643    0.008726134   -0.018447657
     18        1          -0.007553345    0.001764658    0.000975948
     19        1           0.010629420   -0.008995315    0.004877940
     20        1          -0.001820615   -0.013672938   -0.041937898
     21        1           0.003017277    0.001774504   -0.006946993
     22        1          -0.001213227   -0.007107393    0.010570253
     23        1           0.005380799   -0.002693451    0.004766004
     24        1          -0.006055305   -0.000322245   -0.000470768
     25        1          -0.002796018    0.001662345   -0.003234741
     26        1          -0.000384376    0.004587493   -0.006738632
     27        1          -0.002940138    0.000686484   -0.004892677
     28        1           0.008229417    0.008576111   -0.019014327
     29        1          -0.017953318    0.010833834   -0.008057168
 -------------------------------------------------------------------
 Cartesian Forces:  Max     0.041937898 RMS     0.013544093

 GradGradGradGradGradGradGradGradGradGradGradGradGradGradGradGradGradGrad
 Berny optimization.
 FormGI is forming the generalized inverse of G from B-inverse, IUseBI=4.
 Internal  Forces:  Max     0.047135373 RMS     0.011139497
 Search for a local minimum.
 Step number   1 out of a maximum of  145
 All quantities printed in internal units (Hartrees-Bohrs-Radians)
 Mixed Optimization -- RFO/linear search
 Second derivative matrix not updated -- first step.
 ITU=  0
     Eigenvalues ---    0.00448   0.00739   0.01193   0.01282   0.01381
     Eigenvalues ---    0.01451   0.01718   0.01728   0.01786   0.01842
     Eigenvalues ---    0.01915   0.02012   0.02056   0.02067   0.02135
     Eigenvalues ---    0.02411   0.02522   0.02592   0.02632   0.02726
     Eigenvalues ---    0.02983   0.03274   0.05214   0.07134   0.08894
     Eigenvalues ---    0.09476   0.11510   0.12318   0.13885   0.14468
     Eigenvalues ---    0.14865   0.15688   0.15969   0.15971   0.15988
     Eigenvalues ---    0.15998   0.15999   0.16000   0.16000   0.16000
     Eigenvalues ---    0.16777   0.18881   0.19688   0.20824   0.21982
     Eigenvalues ---    0.22001   0.22200   0.22328   0.22833   0.23469
     Eigenvalues ---    0.23510   0.23918   0.24253   0.24349   0.25526
     Eigenvalues ---    0.28347   0.31877   0.32721   0.32939   0.33007
     Eigenvalues ---    0.33144   0.33470   0.34139   0.34438   0.34725
     Eigenvalues ---    0.34872   0.35026   0.35732   0.35917   0.36526
     Eigenvalues ---    0.38273   0.42729   0.42966   0.45663   0.48328
     Eigenvalues ---    0.51503   0.54084   0.54469   0.55582   0.57175
     Eigenvalues ---    0.65126
 RFO step:  Lambda=-7.59926910D-02 EMin= 4.47578013D-03
 Linear search not attempted -- first point.
 Maximum step size (   0.300) exceeded in Quadratic search.
    -- Step size scaled by   0.789
 Iteration  1 RMS(Cart)=  0.09037939 RMS(Int)=  0.00536759
 Iteration  2 RMS(Cart)=  0.00606719 RMS(Int)=  0.00076765
 Iteration  3 RMS(Cart)=  0.00003959 RMS(Int)=  0.00076693
 Iteration  4 RMS(Cart)=  0.00000003 RMS(Int)=  0.00076693
 Variable       Old X    -DE/DX   Delta X   Delta X   Delta X     New X
                                 (Linear)    (Quad)   (Total)
    R1        2.68005  -0.01093   0.00000  -0.01714  -0.01714   2.66291
    R2        1.91213   0.00610   0.00000   0.00904   0.00904   1.92117
    R3        1.94412  -0.01212   0.00000  -0.01891  -0.01891   1.92521
    R4        2.55382   0.04714   0.00000   0.05865   0.05850   2.61232
    R5        3.55510  -0.02544   0.00000  -0.06839  -0.06847   3.48663
    R6        2.79907  -0.00431   0.00000  -0.01121  -0.01138   2.78769
    R7        2.09545  -0.00650   0.00000  -0.01273  -0.01273   2.08272
    R8        2.52813   0.00579   0.00000   0.00532   0.00534   2.53346
    R9        2.04212   0.00764   0.00000   0.01385   0.01385   2.05597
   R10        2.76138  -0.02437   0.00000  -0.04637  -0.04652   2.71486
   R11        2.00670   0.01026   0.00000   0.01765   0.01765   2.02434
   R12        2.61124  -0.01170   0.00000  -0.01811  -0.01806   2.59318
   R13        2.06124  -0.00124   0.00000  -0.00231  -0.00231   2.05893
   R14        2.80500  -0.01622   0.00000  -0.03024  -0.03011   2.77489
   R15        2.83179  -0.00724   0.00000  -0.01379  -0.01331   2.81848
   R16        2.56097   0.00014   0.00000   0.00062   0.00051   2.56148
   R17        2.05884  -0.00235   0.00000  -0.00436  -0.00436   2.05447
   R18        2.54273   0.02963   0.00000   0.03702   0.03676   2.57949
   R19        2.06598  -0.00178   0.00000  -0.00334  -0.00334   2.06263
   R20        2.46018  -0.01883   0.00000  -0.02015  -0.02038   2.43980
   R21        2.76995  -0.00590   0.00000  -0.01116  -0.01119   2.75876
   R22        2.08799  -0.00799   0.00000  -0.01548  -0.01548   2.07251
   R23        2.54750   0.01540   0.00000   0.01897   0.01917   2.56667
   R24        2.05633  -0.00183   0.00000  -0.00339  -0.00339   2.05294
   R25        3.34707   0.02292   0.00000   0.05357   0.05372   3.40079
   R26        3.41391   0.00759   0.00000   0.01966   0.01983   3.43374
   R27        3.82160  -0.02522   0.00000  -0.08554  -0.08548   3.73612
   R28        2.09040  -0.00980   0.00000  -0.01904  -0.01904   2.07136
   R29        2.09158  -0.00456   0.00000  -0.00888  -0.00888   2.08270
   R30        4.14045  -0.00925   0.00000  -0.02672  -0.02685   4.11360
    A1        1.92727   0.00905   0.00000   0.03208   0.03220   1.95947
    A2        2.00833  -0.00937   0.00000  -0.02963  -0.02952   1.97881
    A3        1.87037   0.00161   0.00000   0.00846   0.00866   1.87902
    A4        2.01213   0.00314   0.00000   0.01513   0.01459   2.02672
    A5        2.15127  -0.02020   0.00000  -0.04895  -0.05076   2.10051
    A6        1.92662   0.02220   0.00000   0.08029   0.08007   2.00669
    A7        2.17652  -0.01514   0.00000  -0.02419  -0.02645   2.15007
    A8        1.81451   0.01997   0.00000   0.09364   0.09163   1.90614
    A9        1.98358   0.00526   0.00000   0.03321   0.03052   2.01410
   A10        2.14058  -0.00828   0.00000  -0.02314  -0.02311   2.11747
   A11        2.02086   0.00337   0.00000   0.00906   0.00895   2.02981
   A12        2.12170   0.00494   0.00000   0.01425   0.01415   2.13585
   A13        2.35366  -0.00909   0.00000  -0.02865  -0.02916   2.32450
   A14        1.91184   0.01110   0.00000   0.03622   0.03642   1.94827
   A15        2.01754  -0.00204   0.00000  -0.00779  -0.00758   2.00995
   A16        2.24059  -0.00820   0.00000  -0.01827  -0.01764   2.22295
   A17        1.96300   0.01163   0.00000   0.03496   0.03444   1.99744
   A18        2.07809  -0.00325   0.00000  -0.01509  -0.01563   2.06247
   A19        2.00627   0.00142   0.00000  -0.00020  -0.00152   2.00475
   A20        2.15326   0.00141   0.00000   0.01240   0.01283   2.16609
   A21        2.12168  -0.00248   0.00000  -0.00946  -0.00952   2.11216
   A22        2.28343   0.00804   0.00000   0.02319   0.02356   2.30699
   A23        2.02361  -0.00983   0.00000  -0.03081  -0.03105   1.99256
   A24        1.97515   0.00188   0.00000   0.00826   0.00802   1.98317
   A25        2.33669  -0.00626   0.00000  -0.01515  -0.01519   2.32150
   A26        2.02048  -0.00122   0.00000  -0.00696  -0.00696   2.01351
   A27        1.92601   0.00748   0.00000   0.02214   0.02214   1.94815
   A28        2.15743   0.00012   0.00000   0.00058   0.00028   2.15771
   A29        2.32467  -0.00479   0.00000  -0.01381  -0.01372   2.31096
   A30        1.99336   0.00222   0.00000   0.00641   0.00637   1.99973
   A31        1.96112   0.00251   0.00000   0.00724   0.00719   1.96831
   A32        2.26742   0.00833   0.00000   0.02179   0.02231   2.28972
   A33        1.91283   0.00184   0.00000   0.01130   0.01092   1.92375
   A34        2.07863  -0.00940   0.00000  -0.02734  -0.02783   2.05080
   A35        2.19888  -0.00329   0.00000  -0.00958  -0.01046   2.18842
   A36        2.08894  -0.00178   0.00000   0.01394   0.01337   2.10231
   A37        1.93633   0.00861   0.00000   0.02401   0.02205   1.95838
   A38        1.88401   0.00460   0.00000   0.01124   0.01145   1.89546
   A39        2.02963   0.02325   0.00000   0.08037   0.08075   2.11037
   A40        2.11435  -0.01605   0.00000  -0.06248  -0.06252   2.05183
   A41        1.64166   0.01748   0.00000   0.07801   0.07876   1.72042
   A42        2.02211  -0.01268   0.00000  -0.05087  -0.05170   1.97041
   A43        1.78520  -0.01931   0.00000  -0.07235  -0.07456   1.71064
   A44        1.74243   0.01218   0.00000   0.05729   0.05766   1.80009
   A45        2.12977  -0.00673   0.00000   0.00241   0.00291   2.13268
   A46        1.82815  -0.01804   0.00000  -0.03463  -0.03487   1.79329
    D1        2.26374   0.01140   0.00000   0.08005   0.07903   2.34277
    D2       -0.18679  -0.00581   0.00000  -0.02524  -0.02407  -0.21086
    D3       -1.89963   0.01378   0.00000   0.09470   0.09353  -1.80610
    D4        1.93302  -0.00343   0.00000  -0.01059  -0.00957   1.92345
    D5        2.81730   0.00758   0.00000   0.03175   0.02939   2.84668
    D6       -1.15406   0.02436   0.00000   0.16916   0.16836  -0.98571
    D7       -0.92907   0.00710   0.00000   0.07692   0.07789  -0.85118
    D8        1.38276   0.02388   0.00000   0.21433   0.21685   1.59961
    D9        1.36910   0.00505   0.00000   0.03785   0.03746   1.40657
   D10       -1.11036  -0.00589   0.00000  -0.04369  -0.04304  -1.15340
   D11        1.58302   0.00375   0.00000   0.02754   0.02756   1.61058
   D12       -1.56819   0.00656   0.00000   0.04766   0.04764  -1.52055
   D13       -0.66131  -0.01882   0.00000  -0.14096  -0.14081  -0.80213
   D14        2.47067  -0.01602   0.00000  -0.12084  -0.12074   2.34993
   D15        3.01019   0.00071   0.00000   0.00896   0.00912   3.01931
   D16       -0.15126  -0.00150   0.00000  -0.00630  -0.00627  -0.15753
   D17       -0.12125  -0.00224   0.00000  -0.01225  -0.01215  -0.13339
   D18        3.00049  -0.00445   0.00000  -0.02751  -0.02754   2.97296
   D19       -3.02180  -0.01039   0.00000  -0.08108  -0.08109  -3.10288
   D20        0.05961  -0.00656   0.00000  -0.04938  -0.04905   0.01056
   D21        0.14055  -0.00819   0.00000  -0.06548  -0.06564   0.07491
   D22       -3.06123  -0.00436   0.00000  -0.03378  -0.03360  -3.09483
   D23        3.03414   0.00328   0.00000   0.03127   0.03117   3.06531
   D24       -0.04073  -0.00245   0.00000  -0.01457  -0.01482  -0.05555
   D25       -0.04382  -0.00120   0.00000  -0.00371  -0.00340  -0.04722
   D26       -3.11869  -0.00692   0.00000  -0.04955  -0.04939   3.11511
   D27       -3.13391  -0.00780   0.00000  -0.06018  -0.05980   3.08948
   D28       -0.04436  -0.00539   0.00000  -0.04366  -0.04352  -0.08788
   D29       -0.05771  -0.00203   0.00000  -0.01433  -0.01443  -0.07214
   D30        3.03184   0.00039   0.00000   0.00218   0.00184   3.03369
   D31       -3.00889   0.00826   0.00000   0.06744   0.06724  -2.94166
   D32        0.52897  -0.00503   0.00000  -0.02964  -0.02936   0.49961
   D33        0.20370   0.00201   0.00000   0.01824   0.01818   0.22188
   D34       -2.54162  -0.01128   0.00000  -0.07885  -0.07842  -2.62004
   D35       -0.04095  -0.00085   0.00000  -0.00440  -0.00440  -0.04535
   D36        3.09780   0.00084   0.00000   0.00685   0.00680   3.10459
   D37       -3.13164  -0.00293   0.00000  -0.01960  -0.01968   3.13186
   D38        0.00710  -0.00124   0.00000  -0.00836  -0.00849  -0.00139
   D39       -0.00610   0.00048   0.00000   0.00362   0.00352  -0.00259
   D40        3.13822  -0.00112   0.00000  -0.00715  -0.00733   3.13089
   D41        0.05831   0.00186   0.00000   0.01478   0.01474   0.07305
   D42        3.09401   0.00131   0.00000   0.01332   0.01341   3.10742
   D43        0.05504  -0.00250   0.00000  -0.01881  -0.01885   0.03619
   D44        2.95438  -0.00026   0.00000   0.00515   0.00552   2.95990
   D45       -2.98213  -0.00195   0.00000  -0.01736  -0.01752  -2.99965
   D46       -0.08279   0.00029   0.00000   0.00659   0.00684  -0.07594
   D47       -0.21512  -0.00079   0.00000  -0.00405  -0.00400  -0.21912
   D48        2.55924   0.00978   0.00000   0.08474   0.08478   2.64402
   D49       -3.09510  -0.00479   0.00000  -0.03515  -0.03489  -3.12999
   D50       -0.32074   0.00578   0.00000   0.05364   0.05389  -0.26685
   D51       -2.08589   0.01270   0.00000   0.08756   0.08765  -1.99824
   D52        1.39668   0.00344   0.00000   0.01095   0.00964   1.40632
   D53        2.10396  -0.00478   0.00000  -0.01597  -0.01698   2.08698
   D54       -0.51575   0.00967   0.00000   0.06479   0.06331  -0.45244
   D55       -2.33195  -0.01241   0.00000  -0.03932  -0.03604  -2.36799
   D56       -1.31951   0.00462   0.00000  -0.00154  -0.00266  -1.32217
   D57        1.32810  -0.01083   0.00000  -0.08423  -0.08518   1.24291
   D58       -3.07983  -0.01248   0.00000  -0.07801  -0.07592   3.12744
   D59        2.04065  -0.01843   0.00000  -0.08243  -0.08207   1.95858
         Item               Value     Threshold  Converged?
 Maximum Force            0.047135     0.000450     NO 
 RMS     Force            0.011139     0.000300     NO 
 Maximum Displacement     0.423895     0.001800     NO 
 RMS     Displacement     0.091177     0.001200     NO 
 Predicted change in Energy=-4.800481D-02
 GradGradGradGradGradGradGradGradGradGradGradGradGradGradGradGradGradGrad

                          Input orientation:                          
 ---------------------------------------------------------------------
 Center     Atomic      Atomic             Coordinates (Angstroms)
 Number     Number       Type             X           Y           Z
 ---------------------------------------------------------------------
      1          7           0        1.067767   -0.319894    0.318925
      2          6           0        2.357179   -0.097393    0.842008
      3          6           0        3.334291   -0.995455    0.455073
      4          6           0        4.778181   -0.728816    0.597371
      5          6           0        5.453137   -1.111457    1.690699
      6          6           0        6.847022   -1.103623    2.038497
      7          6           0        7.419390   -1.569994    3.195203
      8          6           0        8.886600   -1.517537    3.222793
      9          6           0        9.790587   -1.829241    4.183508
     10          7           0        9.667883   -2.256723    5.474031
     11          6           0        8.532941   -2.453994    6.057036
     12          6           0        7.155286   -2.384029    5.579127
     13          6           0        6.648235   -2.120836    4.346896
     14         16           0        5.057702   -2.919686    4.081040
     15          6           0        3.765857   -1.916934    4.873081
     16         16           0        2.289051   -1.140875    3.812150
     17         16           0        2.568013    0.600967    2.536715
     18          1           0        0.345192   -0.244368    1.030074
     19          1           0        0.823550    0.316063   -0.438590
     20          1           0        3.013795   -2.016315    0.719305
     21          1           0        5.254041   -0.199595   -0.225532
     22          1           0        4.794375   -1.465966    2.457448
     23          1           0        7.501767   -0.698244    1.267735
     24          1           0        9.338080   -1.195227    2.287783
     25          1           0       10.837233   -1.718131    3.894446
     26          1           0        8.607269   -2.829650    7.084733
     27          1           0        6.478514   -2.795501    6.322682
     28          1           0        4.061331   -1.285138    5.718660
     29          1           0        3.198530   -2.730149    5.354214
 ---------------------------------------------------------------------
                    Distance matrix (angstroms):
                    1          2          3          4          5
     1  N    0.000000
     2  C    1.409151   0.000000
     3  C    2.368976   1.382383   0.000000
     4  C    3.743250   2.513920   1.475183   0.000000
     5  C    4.662597   3.366535   2.455553   1.340651   0.000000
     6  C    6.080374   4.754237   3.854636   2.549005   1.436642
     7  C    7.083703   5.773392   4.952419   3.798987   2.517924
     8  C    8.426207   7.093538   6.225832   4.939031   3.781651
     9  C    9.659230   8.331895   7.502013   6.260633   5.053987
    10  N   10.212171   8.919906   8.178945   7.072871   5.778349
    11  C    9.654487   8.419627   7.780443   6.847072   5.509310
    12  C    8.305918   7.119749   6.540954   5.762660   4.431323
    13  C    7.114040   5.898450   5.234023   4.415173   3.082610
    14  S    6.068938   5.074395   4.452016   4.124802   3.023208
    15  C    5.529066   4.641622   4.533671   4.551716   3.690970
    16  S    3.790537   3.148847   3.519040   4.086608   3.809575
    17  S    2.831487   1.845044   2.732944   3.227107   3.460069
    18  H    1.016638   2.026095   3.135198   4.480325   5.222965
    19  H    1.018779   2.040318   2.970275   4.219490   5.291953
    20  H    2.612504   2.031862   1.102130   2.187597   2.777186
    21  H    4.223245   3.088996   2.186792   1.087974   2.131449
    22  H    4.446839   3.228399   2.522447   2.000885   1.071236
    23  H    6.514580   5.197023   4.256362   2.805039   2.132260
    24  H    8.546384   7.213077   6.280463   4.885459   3.931451
    25  H   10.496756   9.157264   8.285270   6.968613   5.849192
    26  H   10.436433   9.246646   8.667236   7.820568   6.480458
    27  H    8.452805   7.369055   6.896024   6.319929   5.034150
    28  H    6.249021   5.300623   5.321452   5.201054   4.265179
    29  H    5.975251   5.291434   5.198959   5.397053   4.596167
                    6          7          8          9         10
     6  C    0.000000
     7  C    1.372253   0.000000
     8  C    2.394527   1.468407   0.000000
     9  C    3.713781   2.581962   1.355479   0.000000
    10  N    4.592362   3.274198   2.494969   1.365009   0.000000
    11  C    4.562289   3.195549   3.005821   2.341388   1.291086
    12  C    3.777636   2.532883   3.049684   3.033209   2.518015
    13  C    2.530404   1.491477   2.576404   3.160080   3.226015
    14  S    3.266763   2.860760   4.166902   4.857960   4.861452
    15  C    4.264964   4.035337   5.394903   6.064699   5.942264
    16  S    4.891047   5.185089   6.634521   7.542202   7.645530
    17  S    4.632901   5.355608   6.699500   7.796372   8.197705
    18  H    6.635437   7.515939   8.909805  10.083226  10.521924
    19  H    6.665860   7.763168   9.043263  10.313771  10.945344
    20  H    4.155346   5.073317   6.403598   7.613187   8.181816
    21  H    2.912161   4.274127   5.179132   6.532659   7.496586
    22  H    2.126070   2.728701   4.163498   5.298432   5.785857
    23  H    1.089540   2.117043   2.532046   3.875511   4.981350
    24  H    2.505175   2.155280   1.087180   2.049514   3.374569
    25  H    4.443417   3.491781   2.072758   1.091499   2.037781
    26  H    5.616239   4.257491   4.088306   3.289099   2.011842
    27  H    4.620876   3.488300   4.128121   4.059502   3.344034
    28  H    4.619158   4.210171   5.437516   5.956267   5.695370
    29  H    5.191441   4.880876   6.194152   6.755546   6.487759
                   11         12         13         14         15
    11  C    0.000000
    12  C    1.459872   0.000000
    13  C    2.566650   1.358222   0.000000
    14  S    4.024763   2.632689   1.799621   0.000000
    15  C    4.941181   3.493551   2.937098   1.817058   0.000000
    16  S    6.763871   5.324273   4.499862   3.301802   1.977069
    17  S    7.570060   6.261753   5.228114   4.580228   3.637756
    18  H    9.858601   8.464597   7.365513   6.218799   5.409910
    19  H   10.454716   9.142992   7.922519   6.987501   6.469722
    20  H    7.690507   6.395704   5.136097   4.036694   4.222479
    21  H    7.436677   6.486953   5.151897   5.097451   5.582096
    22  H    5.283001   4.020151   2.726841   2.195152   2.663926
    23  H    5.204170   4.642201   3.497644   4.338542   5.332987
    24  H    4.054628   4.124413   3.511689   4.950875   6.185005
    25  H    3.244696   4.103451   4.232563   5.906059   7.141541
    26  H    1.096724   2.138617   3.440347   4.650775   5.400345
    27  H    2.099491   1.086371   2.094686   2.656894   3.198707
    28  H    4.634222   3.286272   3.045028   2.519186   1.096118
    29  H    5.387593   3.978228   3.645053   2.261286   1.102119
                   16         17         18         19         20
    16  S    0.000000
    17  S    2.176826   0.000000
    18  H    3.510307   2.815225   0.000000
    19  H    4.726431   3.460746   1.643132   0.000000
    20  H    3.295048   3.217432   3.218356   3.402629   0.000000
    21  H    5.097063   3.935182   5.067085   4.465484   3.035109
    22  H    2.866627   3.038945   4.829589   5.227822   2.548430
    23  H    5.817421   5.257394   7.174890   6.966990   4.709562
[...]
 ! D22   D(22,5,6,23)         -168.7824         calculate D2E/DX2 analytically  !
 ! D23   D(5,6,7,8)           -177.2542         calculate D2E/DX2 analytically  !
 ! D24   D(5,6,7,13)             8.1061         calculate D2E/DX2 analytically  !
 ! D25   D(23,6,7,8)             2.6076         calculate D2E/DX2 analytically  !
 ! D26   D(23,6,7,13)         -172.032          calculate D2E/DX2 analytically  !
 ! D27   D(6,7,8,9)            140.0511         calculate D2E/DX2 analytically  !
 ! D28   D(6,7,8,24)           -35.9523         calculate D2E/DX2 analytically  !
 ! D29   D(13,7,8,9)           -44.8499         calculate D2E/DX2 analytically  !
 ! D30   D(13,7,8,24)          139.1468         calculate D2E/DX2 analytically  !
 ! D31   D(6,7,13,12)         -139.4642         calculate D2E/DX2 analytically  !
 ! D32   D(6,7,13,14)           44.3419         calculate D2E/DX2 analytically  !
 ! D33   D(8,7,13,12)           45.6068         calculate D2E/DX2 analytically  !
 ! D34   D(8,7,13,14)         -130.5871         calculate D2E/DX2 analytically  !
 ! D35   D(7,8,9,10)            -4.8718         calculate D2E/DX2 analytically  !
 ! D36   D(7,8,9,25)          -177.6483         calculate D2E/DX2 analytically  !
 ! D37   D(24,8,9,10)          171.1133         calculate D2E/DX2 analytically  !
 ! D38   D(24,8,9,25)           -1.6633         calculate D2E/DX2 analytically  !
 ! D39   D(8,9,10,11)           30.7877         calculate D2E/DX2 analytically  !
 ! D40   D(25,9,10,11)        -156.1299         calculate D2E/DX2 analytically  !
 ! D41   D(9,10,11,12)           3.6674         calculate D2E/DX2 analytically  !
 ! D42   D(9,10,11,26)         178.4501         calculate D2E/DX2 analytically  !
 ! D43   D(10,11,12,13)        -33.3976         calculate D2E/DX2 analytically  !
 ! D44   D(10,11,12,27)        147.2991         calculate D2E/DX2 analytically  !
 ! D45   D(26,11,12,13)        151.8067         calculate D2E/DX2 analytically  !
 ! D46   D(26,11,12,27)        -27.4966         calculate D2E/DX2 analytically  !
 ! D47   D(11,12,13,7)           0.9793         calculate D2E/DX2 analytically  !
 ! D48   D(11,12,13,14)        177.1082         calculate D2E/DX2 analytically  !
 ! D49   D(27,12,13,7)        -179.7407         calculate D2E/DX2 analytically  !
 ! D50   D(27,12,13,14)         -3.6118         calculate D2E/DX2 analytically  !
 ! D51   D(7,13,14,15)        -129.679          calculate D2E/DX2 analytically  !
 ! D52   D(12,13,14,15)         53.9282         calculate D2E/DX2 analytically  !
 ! D53   D(13,14,15,16)        134.0938         calculate D2E/DX2 analytically  !
 ! D54   D(13,14,15,28)          9.1423         calculate D2E/DX2 analytically  !
 ! D55   D(13,14,15,29)       -109.3956         calculate D2E/DX2 analytically  !
 ! D56   D(14,15,16,17)        -87.4086         calculate D2E/DX2 analytically  !
 ! D57   D(28,15,16,17)         36.7452         calculate D2E/DX2 analytically  !
 ! D58   D(29,15,16,17)        152.3474         calculate D2E/DX2 analytically  !
 ! D59   D(15,16,17,2)         115.7781         calculate D2E/DX2 analytically  !
 --------------------------------------------------------------------------------
 Trust Radius=3.00D-01 FncErr=1.00D-07 GrdErr=1.00D-07 EigMax=2.50D+02 EigMin=1.00D-04
 Number of steps in this run=      2 maximum allowed number of steps=      2.
 GradGradGradGradGradGradGradGradGradGradGradGradGradGradGradGradGradGrad

                          Input orientation:                          
 ---------------------------------------------------------------------
 Center     Atomic      Atomic             Coordinates (Angstroms)
 Number     Number       Type             X           Y           Z
 ---------------------------------------------------------------------
      1          7           0        1.127808   -0.435399    0.885184
      2          6           0        2.440579   -0.311258    1.320697
      3          6           0        3.493730   -0.295089    0.453252
      4          6           0        4.906122   -0.504083    0.641847
      5          6           0        5.532454   -0.860056    1.789679
      6          6           0        6.900929   -1.242804    1.932802
      7          6           0        7.420826   -1.839465    3.042681
      8          6           0        8.851163   -2.146736    3.132046
      9          6           0        9.638078   -2.009822    4.220196
     10          7           0        9.329686   -1.475266    5.460188
     11          6           0        8.155694   -1.529841    5.982879
     12          6           0        6.957939   -2.184702    5.479272
     13          6           0        6.604607   -2.327029    4.180478
     14         16           0        5.101275   -3.251058    3.779424
     15          6           0        3.822388   -2.399809    4.797966
     16         16           0        2.235989   -1.991293    3.968655
     17         16           0        2.556562   -0.103845    3.088036
     18          1           0        0.437387    0.068155    1.423408
     19          1           0        0.987278   -0.373534   -0.114359
     20          1           0        3.198485   -0.200957   -0.592758
     21          1           0        5.496353   -0.448749   -0.271387
     22          1           0        4.936942   -0.896037    2.684680
     23          1           0        7.579342   -1.045234    1.103862
     24          1           0        9.337112   -2.459191    2.209236
     25          1           0       10.694913   -2.244748    4.116327
     26          1           0        8.062379   -1.089543    6.979246
     27          1           0        6.295192   -2.579476    6.245877
     28          1           0        4.264183   -1.498003    5.221899
     29          1           0        3.507402   -3.052866    5.615797
 ---------------------------------------------------------------------
                    Distance matrix (angstroms):
                    1          2          3          4          5
     1  N    0.000000
     2  C    1.388686   0.000000
     3  C    2.409116   1.364496   0.000000
     4  C    3.786764   2.564550   1.440173   0.000000
     5  C    4.516564   3.175030   2.502323   1.355185   0.000000
     6  C    5.922696   4.597518   3.833567   2.488278   1.428182
     7  C    6.799137   5.486666   4.950991   3.724377   2.468846
     8  C    8.223580   6.909816   6.269499   4.945983   3.804120
     9  C    9.275010   7.943312   7.408319   6.120722   4.907701
    10  N    9.448957   8.120966   7.779499   6.612679   5.316962
    11  C    8.750742   7.475522   7.337254   6.335497   4.991285
    12  C    7.626017   6.419508   6.390012   5.516803   4.171305
    13  C    6.665774   5.438824   5.262940   4.327804   3.002905
    14  S    5.665068   4.665519   4.731318   4.174726   3.140365
    15  C    5.140966   4.285189   4.838843   4.694846   3.787473
    16  S    3.627212   3.142620   4.100864   4.517638   4.110270
    17  S    2.646473   1.783244   2.803024   3.415328   3.333694
    18  H    1.009918   2.041393   3.227132   4.572515   5.191863
    19  H    1.011267   2.043366   2.571116   3.993273   4.951837
    20  H    2.554795   2.061043   1.090948   2.128887   3.399681
    21  H    4.519073   3.448389   2.135231   1.088775   2.102016
    22  H    4.237909   2.904177   2.724568   2.080323   1.075618
    23  H    6.483981   5.195442   4.204549   2.766298   2.166653
    24  H    8.558125   7.277725   6.473942   5.090464   4.148335
    25  H   10.258827   8.926812   8.311217   6.972233   5.829378
    26  H    9.254932   8.014333   8.005767   7.104037   5.777957
    27  H    7.748287   6.652838   6.827966   6.135301   4.836928
    28  H    5.456470   4.466908   4.978010   4.730416   3.714245
    29  H    5.906970   5.205998   5.852981   5.761327   4.852672
                    6          7          8          9         10
     6  C    0.000000
     7  C    1.363132   0.000000
     8  C    2.461441   1.465697   0.000000
     9  C    3.648626   2.516301   1.349834   0.000000
    10  N    4.288980   3.101730   2.469838   1.385076   0.000000
    11  C    4.249700   3.046419   2.998581   2.352636   1.286251
    12  C    3.669860   2.504082   3.015826   2.966311   2.475651
    13  C    2.513045   1.482738   2.485705   3.050270   3.128772
    14  S    3.268310   2.813485   3.962358   4.724143   4.884451
    15  C    4.361793   4.042742   5.303575   5.857316   5.623491
    16  S    5.144570   5.269062   6.669678   7.406385   7.267152
    17  S    4.637383   5.164833   6.617956   7.420405   7.306375
    18  H    6.614792   7.418186   8.866613   9.838330   9.886897
    19  H    6.318051   7.314806   8.690459   9.813366  10.093817
    20  H    4.601303   5.807692   7.043649   8.240442   8.709400
    21  H    2.731631   4.076854   5.071615   6.305963   6.971308
    22  H    2.131388   2.681026   4.133462   5.069419   5.228303
    23  H    1.089229   2.101178   2.635217   3.857508   4.714468
    24  H    2.736969   2.179643   1.088739   2.082420   3.396593
    25  H    4.490656   3.469383   2.092326   1.087603   2.064440
    26  H    5.180642   4.058389   4.067036   3.307885   2.015537
    27  H    4.555901   3.474929   4.051690   3.950035   3.323363
    28  H    4.223236   3.850972   5.082197   5.490366   5.071156
    29  H    5.325110   4.838197   5.962035   6.373447   6.034238
                   11         12         13         14         15
    11  C    0.000000
    12  C    1.455019   0.000000
    13  C    2.507994   1.353502   0.000000
    14  S    4.140927   2.733825   1.809608   0.000000
    15  C    4.575850   3.215918   2.850847   1.843259   0.000000
    16  S    6.270004   4.961470   4.386617   3.135711   1.836111
    17  S    6.462497   5.424030   4.745803   4.105915   3.130117
    18  H    9.105748   8.002687   7.167492   6.190302   5.379287
    19  H    9.481537   8.379608   7.335948   6.353476   6.022838
    20  H    8.341394   7.412037   6.237437   5.660362   5.855264
    21  H    6.881621   6.182221   4.957345   4.941467   5.683937
    22  H    4.651902   3.681689   2.658242   2.602228   2.823037
    23  H    4.936784   4.563852   3.472560   4.262054   5.440219
    24  H    4.061997   4.053263   3.371920   4.586377   6.092390
    25  H    3.231524   3.978216   4.091637   5.693413   6.907986
    26  H    1.093306   2.160806   3.389628   4.866122   4.944926
    27  H    2.152294   1.087550   2.103650   2.821321   2.871147
    28  H    3.965346   2.791796   2.692476   2.419641   1.090026
    29  H    4.905199   3.560696   3.489936   2.439667   1.092953
                   16         17         18         19         20
    16  S    0.000000
    17  S    2.107302   0.000000
    18  H    3.735583   2.700273   0.000000
    19  H    4.565898   3.576411   1.691803   0.000000
    20  H    4.993816   3.737612   3.429433   2.268939   0.000000
    21  H    5.566631   4.477394   5.360285   4.512435   2.333426
    22  H    3.184859   2.540959   4.771422   4.869032   3.774516
    23  H    6.136244   5.481923   7.235280   6.737251   4.773178
    24  H    7.330786   7.231584   9.284940   8.914526   7.115724
    25  H    8.464009   8.477831  10.854409  10.753526   9.085648
    26  H    6.619942   6.813746   9.505162  10.044349   9.043356
    27  H    4.691357   5.484347   8.036171   8.572790   7.874889
    28  H    2.434651   3.068064   5.614779   6.362246   6.052130
    29  H    2.335916   3.998800   6.061509   6.809150   6.839223
                   21         22         23         24         25
    21  H    0.000000
    22  H    3.041602   0.000000
    23  H    2.566310   3.082778   0.000000
    24  H    4.994677   4.693718   2.512147   0.000000
    25  H    7.035814   6.084642   4.496728   2.350873   0.000000
    26  H    7.717953   5.314988   5.895373   5.123853   4.057222
    27  H    6.903107   4.166646   5.517541   5.055909   4.899447
    28  H    5.726724   2.693037   5.305988   5.977845   6.567665
    29  H    6.737677   3.909852   6.400690   6.778098   7.386595
                   26         27         28         29
    26  H    0.000000
    27  H    2.425011   0.000000
    28  H    4.204926   2.518554   0.000000
    29  H    5.144069   2.897045   1.773548   0.000000
 Stoichiometry    C12H12N2S3
 Framework group  C1[X(C12H12N2S3)]
 Deg. of freedom    81
 Full point group                 C1      NOp   1
 Largest Abelian subgroup         C1      NOp   1
 Largest concise Abelian subgroup C1      NOp   1
                         Standard orientation:                         
 ---------------------------------------------------------------------
 Center     Atomic      Atomic             Coordinates (Angstroms)
 Number     Number       Type             X           Y           Z
 ---------------------------------------------------------------------
      1          7           0       -4.692393    0.707048   -0.066407
      2          6           0       -3.361777    0.926455    0.264910
      3          6           0       -2.729540    2.102887   -0.014614
      4          6           0       -1.336095    2.460505   -0.081822
      5          6           0       -0.273064    1.631219    0.055207
      6          6           0        1.096922    1.950650   -0.191384
      7          6           0        2.095303    1.028345   -0.294913
      8          6           0        3.487100    1.444282   -0.490274
      9          6           0        4.579431    0.897756    0.084333
     10          7           0        4.656528   -0.098924    1.043041
     11          6           0        3.794005   -1.047118    1.149915
     12          6           0        2.644397   -1.339416    0.307274
     13          6           0        1.868989   -0.436411   -0.337158
     14         16           0        0.531334   -1.032840   -1.399998
     15          6           0       -0.416291   -2.139474   -0.270851
     16         16           0       -2.243697   -1.960902   -0.272796
     17         16           0       -2.640782   -0.449373    1.140824
     18          1           0       -5.216733    0.134242    0.579267
     19          1           0       -5.202603    1.514192   -0.399372
     20          1           0       -3.403757    2.895818   -0.341508
     21          1           0       -1.149004    3.496330   -0.360202
     22          1           0       -0.475426    0.615110    0.344217
     23          1           0        1.368135    2.999668   -0.302844
     24          1           0        3.646387    2.321308   -1.115418
     25          1           0        5.546301    1.346023   -0.132690
     26          1           0        3.994271   -1.780132    1.935982
     27          1           0        2.402110   -2.395476    0.213469
     28          1           0       -0.030513   -2.011188    0.740522
     29          1           0       -0.274056   -3.180997   -0.570091
 ---------------------------------------------------------------------
 Rotational constants (GHZ):           0.6830559           0.2190410           0.1844127
 Standard basis: 6-31G(2df,p) (6D, 7F)
 There are   599 symmetry adapted cartesian basis functions of A   symmetry.
 There are   548 symmetry adapted basis functions of A   symmetry.
   548 basis functions,   904 primitive gaussians,   599 cartesian basis functions
    73 alpha electrons       73 beta electrons
       nuclear repulsion energy      1518.0138209069 Hartrees.
 NAtoms=   29 NActive=   29 NUniq=   29 SFac= 1.00D+00 NAtFMM=   60 NAOKFM=F Big=F
 Integral buffers will be    131072 words long.
 Raffenetti 2 integral format.
 Two-electron integral symmetry is turned on.
 One-electron integrals computed using PRISM.
 PrsmSu:  requested number of processors reduced to:  12 ShMem   1 Linda.
 NBasis=   548 RedAO= T EigKep=  2.22D-04  NBF=   548
 NBsUse=   548 1.00D-06 EigRej= -1.00D+00 NBFU=   548
 Initial guess from the checkpoint file:  "NC1dCCdCCdC2CdCNdCCdC2SCSS1.chk"
 B after Tr=     0.000000    0.000000    0.000000
         Rot=    1.000000    0.000000    0.000000   -0.000000 Ang=   0.00 deg.
 Requested convergence on RMS density matrix=1.00D-08 within 128 cycles.
 Requested convergence on MAX density matrix=1.00D-06.
 Requested convergence on             energy=1.00D-06.
 No special actions if energy rises.
 SCF Done:  E(RB3LYP) =  -1768.51575004     A.U. after    1 cycles
            NFock=  1  Conv=0.37D-08     -V/T= 2.0046
 DoSCS=F DFT=T ScalE2(SS,OS)=  1.000000  1.000000
 Range of M.O.s used for correlation:     1   548
 NBasis=   548 NAE=    73 NBE=    73 NFC=     0 NFV=     0
 NROrb=    548 NOA=    73 NOB=    73 NVA=   475 NVB=   475

 **** Warning!!: The largest alpha MO coefficient is  0.47240690D+02

 PrsmSu:  requested number of processors reduced to:  11 ShMem   1 Linda.
 PrsmSu:  requested number of processors reduced to:   5 ShMem   1 Linda.
 Symmetrizing basis deriv contribution to polar:
 IMax=3 JMax=2 DiffMx= 0.00D+00
 G2DrvN: will do     1 centers at a time, making   30 passes.
 Calling FoFCou, ICntrl=  3107 FMM=F I1Cent=   0 AccDes= 0.00D+00.
 Calling FoFCou, ICntrl=  3107 FMM=F I1Cent=   0 AccDes= 0.00D+00.
 Calling FoFCou, ICntrl=  3107 FMM=F I1Cent=   0 AccDes= 0.00D+00.
 Calling FoFCou, ICntrl=  3107 FMM=F I1Cent=   0 AccDes= 0.00D+00.
 Calling FoFCou, ICntrl=  3107 FMM=F I1Cent=   0 AccDes= 0.00D+00.
 Calling FoFCou, ICntrl=  3107 FMM=F I1Cent=   0 AccDes= 0.00D+00.
 Calling FoFCou, ICntrl=  3107 FMM=F I1Cent=   0 AccDes= 0.00D+00.
 Calling FoFCou, ICntrl=  3107 FMM=F I1Cent=   0 AccDes= 0.00D+00.
 Calling FoFCou, ICntrl=  3107 FMM=F I1Cent=   0 AccDes= 0.00D+00.
 Calling FoFCou, ICntrl=  3107 FMM=F I1Cent=   0 AccDes= 0.00D+00.
 Calling FoFCou, ICntrl=  3107 FMM=F I1Cent=   0 AccDes= 0.00D+00.
 Calling FoFCou, ICntrl=  3107 FMM=F I1Cent=   0 AccDes= 0.00D+00.
 Calling FoFCou, ICntrl=  3107 FMM=F I1Cent=   0 AccDes= 0.00D+00.
 Calling FoFCou, ICntrl=  3107 FMM=F I1Cent=   0 AccDes= 0.00D+00.
 Calling FoFCou, ICntrl=  3107 FMM=F I1Cent=   0 AccDes= 0.00D+00.
 Calling FoFCou, ICntrl=  3107 FMM=F I1Cent=   0 AccDes= 0.00D+00.
 Calling FoFCou, ICntrl=  3107 FMM=F I1Cent=   0 AccDes= 0.00D+00.
 Calling FoFCou, ICntrl=  3107 FMM=F I1Cent=   0 AccDes= 0.00D+00.
 Calling FoFCou, ICntrl=  3107 FMM=F I1Cent=   0 AccDes= 0.00D+00.
 Calling FoFCou, ICntrl=  3107 FMM=F I1Cent=   0 AccDes= 0.00D+00.
 Calling FoFCou, ICntrl=  3107 FMM=F I1Cent=   0 AccDes= 0.00D+00.
 Calling FoFCou, ICntrl=  3107 FMM=F I1Cent=   0 AccDes= 0.00D+00.
 Calling FoFCou, ICntrl=  3107 FMM=F I1Cent=   0 AccDes= 0.00D+00.
 Calling FoFCou, ICntrl=  3107 FMM=F I1Cent=   0 AccDes= 0.00D+00.
 Calling FoFCou, ICntrl=  3107 FMM=F I1Cent=   0 AccDes= 0.00D+00.
 Calling FoFCou, ICntrl=  3107 FMM=F I1Cent=   0 AccDes= 0.00D+00.
 Calling FoFCou, ICntrl=  3107 FMM=F I1Cent=   0 AccDes= 0.00D+00.
 Calling FoFCou, ICntrl=  3107 FMM=F I1Cent=   0 AccDes= 0.00D+00.
 Calling FoFCou, ICntrl=  3107 FMM=F I1Cent=   0 AccDes= 0.00D+00.
 Calling FoFCou, ICntrl=  3107 FMM=F I1Cent=   0 AccDes= 0.00D+00.
 End of G2Drv F.D. properties file   721 does not exist.
 End of G2Drv F.D. properties file   722 does not exist.
 End of G2Drv F.D. properties file   788 does not exist.
          IDoAtm=11111111111111111111111111111
          Differentiating once with respect to electric field.
                with respect to dipole field.
          Differentiating once with respect to nuclear coordinates.
 CalDSu exits because no D1Ps are significant.
          There are    90 degrees of freedom in the 1st order CPHF.  IDoFFX=6 NUNeed=     3.
     90 vectors produced by pass  0 Test12= 3.85D-14 1.11D-09 XBig12= 1.07D+03 2.62D+01.
 AX will form     6 AO Fock derivatives at one time.
     90 vectors produced by pass  1 Test12= 3.85D-14 1.11D-09 XBig12= 1.82D+02 1.69D+00.
     88 vectors produced by pass  2 Test12= 3.85D-14 1.11D-09 XBig12= 2.76D+00 2.05D-01.
slurmstepd: error: *** JOB 27446541 ON lewis4-r630-hpc4-node674 CANCELLED AT 2023-05-16T08:22:59 DUE TO TIME LIMIT ***
