### Starting Gaussian ###
 Entering Gaussian System, Link 0=g16
 Initial command:
 /cluster/software/gaussian/gaussian-16-A.03/avx2/g16/l1.exe "/local/scratch/linjian/Gau-20791.inp" -scrdir="/local/scratch/linjian/"
 Entering Link 1 = /cluster/software/gaussian/gaussian-16-A.03/avx2/g16/l1.exe PID=     20792.
  
 Copyright (c) 1988,1990,1992,1993,1995,1998,2003,2009,2016,
            Gaussian, Inc.  All Rights Reserved.
  
 This is part of the Gaussian(R) 16 program.  It is based on
 the Gaussian(R) 09 system (copyright 2009, Gaussian, Inc.),
 the Gaussian(R) 03 system (copyright 2003, Gaussian, Inc.),
 the Gaussian(R) 98 system (copyright 1998, Gaussian, Inc.),
 the Gaussian(R) 94 system (copyright 1995, Gaussian, Inc.),
 the Gaussian 92(TM) system (copyright 1992, Gaussian, Inc.),
 the Gaussian 90(TM) system (copyright 1990, Gaussian, Inc.),
 the Gaussian 88(TM) system (copyright 1988, Gaussian, Inc.),
 the Gaussian 86(TM) system (copyright 1986, Carnegie Mellon
 University), and the Gaussian 82(TM) system (copyright 1983,
 Carnegie Mellon University). Gaussian is a federally registered
 trademark of Gaussian, Inc.
  
 This software contains proprietary and confidential information,
 including trade secrets, belonging to Gaussian, Inc.
  
 This software is provided under written license and may be
 used, copied, transmitted, or stored only in accord with that
 written license.
  
 The following legend is applicable only to US Government
 contracts under FAR:
  
                    RESTRICTED RIGHTS LEGEND
  
 Use, reproduction and disclosure by the US Government is
 subject to restrictions as set forth in subparagraphs (a)
 and (c) of the Commercial Computer Software - Restricted
 Rights clause in FAR 52.227-19.
  
 Gaussian, Inc.
 340 Quinnipiac St., Bldg. 40, Wallingford CT 06492
  
  
 ---------------------------------------------------------------
 Warning -- This program may not be used in any manner that
 competes with the business of Gaussian, Inc. or will provide
 assistance to any competitor of Gaussian, Inc.  The licensee
 of this program is prohibited from giving any competitor of
 Gaussian, Inc. access to this program.  By using this program,
 the user acknowledges that Gaussian, Inc. is engaged in the
 business of creating and licensing software in the field of
 computational chemistry and represents and warrants to the
 licensee that it is not a competitor of Gaussian, Inc. and that
 it will not use this program in any manner prohibited above.
 ---------------------------------------------------------------
  

 Cite this work as:
 Gaussian 16, Revision A.03,
 M. J. Frisch, G. W. Trucks, H. B. Schlegel, G. E. Scuseria, 
 M. A. Robb, J. R. Cheeseman, G. Scalmani, V. Barone, 
 G. A. Petersson, H. Nakatsuji, X. Li, M. Caricato, A. V. Marenich, 
 J. Bloino, B. G. Janesko, R. Gomperts, B. Mennucci, H. P. Hratchian, 
 J. V. Ortiz, A. F. Izmaylov, J. L. Sonnenberg, D. Williams-Young, 
 F. Ding, F. Lipparini, F. Egidi, J. Goings, B. Peng, A. Petrone, 
 T. Henderson, D. Ranasinghe, V. G. Zakrzewski, J. Gao, N. Rega, 
 G. Zheng, W. Liang, M. Hada, M. Ehara, K. Toyota, R. Fukuda, 
 J. Hasegawa, M. Ishida, T. Nakajima, Y. Honda, O. Kitao, H. Nakai, 
 T. Vreven, K. Throssell, J. A. Montgomery, Jr., J. E. Peralta, 
 F. Ogliaro, M. J. Bearpark, J. J. Heyd, E. N. Brothers, K. N. Kudin, 
 V. N. Staroverov, T. A. Keith, R. Kobayashi, J. Normand, 
 K. Raghavachari, A. P. Rendell, J. C. Burant, S. S. Iyengar, 
 J. Tomasi, M. Cossi, J. M. Millam, M. Klene, C. Adamo, R. Cammi, 
 J. W. Ochterski, R. L. Martin, K. Morokuma, O. Farkas, 
 J. B. Foresman, and D. J. Fox, Gaussian, Inc., Wallingford CT, 2016.
 
 ******************************************
 Gaussian 16:  ES64L-G16RevA.03 25-Dec-2016
                16-May-2023 
 ******************************************
 %chk=NC1dCCqdSrCdCCdCCdCCdCCdC1.chk
 %NProcShared=20
 Will use up to   20 processors via shared memory.
 -----------------------------
 # opt freq b3lyp/6-31g(2df,p)
 -----------------------------
 1/18=20,19=15,26=3,38=1/1,3;
 2/9=110,12=2,17=6,18=5,40=1/2;
 3/5=1,6=6,7=104,11=2,25=1,30=1,71=1,74=-5/1,2,3;
 4//1;
 5/5=2,38=5/2;
 6/7=2,8=2,9=2,10=2,28=1/1;
 7//1,2,3,16;
 1/18=20,19=15,26=3/3(2);
 2/9=110/2;
 99//99;
 2/9=110/2;
 3/5=1,6=6,7=104,11=2,25=1,30=1,71=1,74=-5/1,2,3;
 4/5=5,16=3,69=1/1;
 5/5=2,38=5/2;
 7//1,2,3,16;
 1/18=20,19=15,26=3/3(-5);
 2/9=110/2;
 6/7=2,8=2,9=2,10=2,19=2,28=1/1;
 99/9=1/99;
 -------------------
 Title Card Required
 -------------------
 Symbolic Z-matrix:
 Charge =  0 Multiplicity = 1
 N                     3.06276  -0.5165    0.06221 
 C                     5.2729   -1.21086   0.20333 
 C                     3.38871  -1.2846    0.21833 
 C                     4.74308  -1.25311   0.21193 
 S                     5.96485   0.66954  -0.17886 
 C                     5.14066  -2.86974   0.54051 
 C                     6.2959   -2.83183   0.53281 
 C                     6.95728  -4.05196   0.7808 
 C                     8.0909   -3.76977   0.72345 
 C                     9.20581  -4.90835   0.95486 
 C                     10.99151  -3.95705   0.76151 
 C                     10.6153  -6.11552   1.20023 
 C                     11.18527  -4.813     0.93549 
 C                     9.54718  -3.28628   0.62517 
 C                     7.59905  -2.15735   0.39571 
 H                     1.41547  -0.72825   0.10525 
 H                     1.64786   0.34084  -0.11205 
 H                     2.59289  -2.10231   0.38453 
 H                     4.61687  -3.51468   0.6716 
 H                     7.13836  -1.11407   0.18366 
 H                     6.80808  -4.9306    0.95939 
 H                     8.98902  -2.17584   0.39947 
 H                     8.89699  -5.91002   1.15846 
 H                     11.99309  -3.61889   0.69278 
 H                     11.20801  -7.05114   1.39039 
 H                     12.83247  -5.21952   1.01811 
 H                     10.43519  -4.90589   0.95437 
 H                     6.16271  -1.27686   0.21675 
 
 Add virtual bond connecting atoms H17        and H16        Dist= 2.11D+00.
 Add virtual bond connecting atoms H16        and N1         Dist= 3.14D+00.
 Add virtual bond connecting atoms H17        and N1         Dist= 3.14D+00.
 Add virtual bond connecting atoms H26        and C13        Dist= 3.21D+00.
 Add virtual bond connecting atoms H26        and H24        Dist= 3.47D+00.

 GradGradGradGradGradGradGradGradGradGradGradGradGradGradGradGradGradGrad
 Berny optimization.
 Initialization pass.
                           ----------------------------
                           !    Initial Parameters    !
                           ! (Angstroms and Degrees)  !
 --------------------------                            --------------------------
 ! Name  Definition              Value          Derivative Info.                !
 --------------------------------------------------------------------------------
 ! R1    R(1,3)                  0.8489         estimate D2E/DX2                !
 ! R2    R(1,16)                 1.6614         estimate D2E/DX2                !
 ! R3    R(1,17)                 1.6635         estimate D2E/DX2                !
 ! R4    R(2,4)                  0.5316         estimate D2E/DX2                !
 ! R5    R(2,5)                  2.0398         estimate D2E/DX2                !
 ! R6    R(2,6)                  1.698          estimate D2E/DX2                !
 ! R7    R(2,28)                 0.8924         estimate D2E/DX2                !
 ! R8    R(3,4)                  1.3548         estimate D2E/DX2                !
 ! R9    R(3,18)                 1.1531         estimate D2E/DX2                !
 ! R10   R(4,6)                  1.6969         estimate D2E/DX2                !
 ! R11   R(6,7)                  1.1559         estimate D2E/DX2                !
 ! R12   R(6,19)                 0.8411         estimate D2E/DX2                !
 ! R13   R(7,8)                  1.4098         estimate D2E/DX2                !
 ! R14   R(7,15)                 1.4737         estimate D2E/DX2                !
 ! R15   R(8,9)                  1.1696         estimate D2E/DX2                !
 ! R16   R(8,21)                 0.9089         estimate D2E/DX2                !
 ! R17   R(9,10)                 1.6103         estimate D2E/DX2                !
 ! R18   R(9,14)                 1.5376         estimate D2E/DX2                !
 ! R19   R(9,15)                 1.7173         estimate D2E/DX2                !
 ! R20   R(10,14)                1.6901         estimate D2E/DX2                !
 ! R21   R(10,23)                1.0678         estimate D2E/DX2                !
 ! R22   R(10,27)                1.2294         estimate D2E/DX2                !
 ! R23   R(11,13)                0.8947         estimate D2E/DX2                !
 ! R24   R(11,14)                1.5983         estimate D2E/DX2                !
 ! R25   R(11,24)                1.0594         estimate D2E/DX2                !
 ! R26   R(11,27)                1.1167         estimate D2E/DX2                !
 ! R27   R(12,13)                1.4462         estimate D2E/DX2                !
 ! R28   R(12,25)                1.1238         estimate D2E/DX2                !
 ! R29   R(12,27)                1.2474         estimate D2E/DX2                !
 ! R30   R(13,26)                1.6986         estimate D2E/DX2                !
 ! R31   R(13,27)                0.756          estimate D2E/DX2                !
 ! R32   R(14,22)                1.2632         estimate D2E/DX2                !
 ! R33   R(15,20)                1.16           estimate D2E/DX2                !
 ! R34   R(16,17)                1.1154         estimate D2E/DX2                !
 ! R35   R(24,26)                1.8364         estimate D2E/DX2                !
 ! A1    A(3,1,16)             105.1073         estimate D2E/DX2                !
 ! A2    A(3,1,17)             144.3099         estimate D2E/DX2                !
 ! A3    A(4,2,5)              114.4821         estimate D2E/DX2                !
 ! A4    A(5,2,6)              164.6372         estimate D2E/DX2                !
 ! A5    A(5,2,28)              74.4988         estimate D2E/DX2                !
 ! A6    A(6,2,28)              90.1383         estimate D2E/DX2                !
 ! A7    A(1,3,4)              111.2211         estimate D2E/DX2                !
 ! A8    A(1,3,18)             113.7764         estimate D2E/DX2                !
 ! A9    A(4,3,18)             135.0025         estimate D2E/DX2                !
 ! A10   A(3,4,6)              102.191          estimate D2E/DX2                !
 ! A11   A(2,6,7)               83.6153         estimate D2E/DX2                !
 ! A12   A(2,6,19)             145.9513         estimate D2E/DX2                !
 ! A13   A(4,6,7)              101.6322         estimate D2E/DX2                !
 ! A14   A(4,6,19)             127.9344         estimate D2E/DX2                !
 ! A15   A(7,6,19)             130.4334         estimate D2E/DX2                !
 ! A16   A(6,7,8)              116.0592         estimate D2E/DX2                !
 ! A17   A(6,7,15)             154.0766         estimate D2E/DX2                !
 ! A18   A(8,7,15)              89.8642         estimate D2E/DX2                !
 ! A19   A(7,8,9)              103.7244         estimate D2E/DX2                !
 ! A20   A(7,8,21)             142.5752         estimate D2E/DX2                !
 ! A21   A(9,8,21)             113.7004         estimate D2E/DX2                !
 ! A22   A(8,9,10)             119.566          estimate D2E/DX2                !
 ! A23   A(8,9,15)              87.6099         estimate D2E/DX2                !
 ! A24   A(10,9,15)            152.8241         estimate D2E/DX2                !
 ! A25   A(14,9,15)             87.9267         estimate D2E/DX2                !
 ! A26   A(9,10,23)            119.3703         estimate D2E/DX2                !
 ! A27   A(9,10,27)            133.7018         estimate D2E/DX2                !
 ! A28   A(14,10,27)            78.23           estimate D2E/DX2                !
 ! A29   A(23,10,27)           106.9279         estimate D2E/DX2                !
 ! A30   A(13,11,14)           127.8644         estimate D2E/DX2                !
 ! A31   A(13,11,24)            96.5028         estimate D2E/DX2                !
 ! A32   A(14,11,24)           135.6328         estimate D2E/DX2                !
 ! A33   A(14,11,27)            85.4766         estimate D2E/DX2                !
 ! A34   A(24,11,27)           138.8906         estimate D2E/DX2                !
 ! A35   A(13,12,25)           124.9572         estimate D2E/DX2                !
 ! A36   A(25,12,27)           156.4695         estimate D2E/DX2                !
 ! A37   A(11,13,12)           144.2818         estimate D2E/DX2                !
 ! A38   A(11,13,26)           116.6429         estimate D2E/DX2                !
 ! A39   A(12,13,26)            99.0753         estimate D2E/DX2                !
 ! A40   A(26,13,27)           158.6622         estimate D2E/DX2                !
 ! A41   A(9,14,11)            135.9271         estimate D2E/DX2                !
 ! A42   A(9,14,22)             82.4923         estimate D2E/DX2                !
 ! A43   A(10,14,11)            76.2962         estimate D2E/DX2                !
 ! A44   A(10,14,22)           142.1232         estimate D2E/DX2                !
 ! A45   A(11,14,22)           141.5806         estimate D2E/DX2                !
 ! A46   A(7,15,9)              78.8015         estimate D2E/DX2                !
 ! A47   A(7,15,20)             94.4417         estimate D2E/DX2                !
 ! A48   A(11,24,26)            98.1882         estimate D2E/DX2                !
 ! A49   A(13,26,24)            48.666          estimate D2E/DX2                !
 ! A50   A(10,27,11)           119.9972         estimate D2E/DX2                !
 ! A51   A(10,27,12)            98.1847         estimate D2E/DX2                !
 ! A52   A(11,27,12)           141.8181         estimate D2E/DX2                !
 ! A53   L(4,2,28,5,-1)        188.981          estimate D2E/DX2                !
 ! A54   L(2,4,3,6,-1)         183.2933         estimate D2E/DX2                !
 ! A55   L(8,9,14,15,-1)       175.5366         estimate D2E/DX2                !
 ! A56   L(14,10,23,27,-1)     185.1579         estimate D2E/DX2                !
 ! A57   L(9,15,20,7,-1)       173.2432         estimate D2E/DX2                !
 ! A58   L(10,27,13,12,-1)     187.0855         estimate D2E/DX2                !
 ! A59   L(4,2,28,5,-2)        179.9982         estimate D2E/DX2                !
 ! A60   L(2,4,3,6,-2)         180.0014         estimate D2E/DX2                !
 ! A61   L(8,9,14,15,-2)       180.0006         estimate D2E/DX2                !
 ! A62   L(14,10,23,27,-2)     179.9995         estimate D2E/DX2                !
 ! A63   L(9,15,20,7,-2)       179.9997         estimate D2E/DX2                !
 ! A64   L(10,27,13,12,-2)     179.9995         estimate D2E/DX2                !
 ! D1    D(16,1,3,4)          -180.0            estimate D2E/DX2                !
 ! D2    D(16,1,3,18)            0.0002         estimate D2E/DX2                !
 ! D3    D(17,1,3,4)           179.9999         estimate D2E/DX2                !
 ! D4    D(17,1,3,18)            0.0001         estimate D2E/DX2                !
 ! D5    D(5,2,3,1)              0.0006         estimate D2E/DX2                !
 ! D6    D(5,2,3,18)           179.9998         estimate D2E/DX2                !
 ! D7    D(5,2,6,7)             -0.0014         estimate D2E/DX2                !
 ! D8    D(5,2,6,19)           179.9983         estimate D2E/DX2                !
 ! D9    D(28,2,6,7)             0.0            estimate D2E/DX2                !
 ! D10   D(28,2,6,19)          179.9996         estimate D2E/DX2                !
 ! D11   D(1,3,4,6)           -179.9997         estimate D2E/DX2                !
 ! D12   D(18,3,4,6)             0.0            estimate D2E/DX2                !
 ! D13   D(3,4,6,7)           -179.9998         estimate D2E/DX2                !
 ! D14   D(3,4,6,19)            -0.0005         estimate D2E/DX2                !
 ! D15   D(2,6,7,8)           -179.9994         estimate D2E/DX2                !
 ! D16   D(2,6,7,15)            -0.0011         estimate D2E/DX2                !
 ! D17   D(4,6,7,8)           -179.9999         estimate D2E/DX2                !
 ! D18   D(4,6,7,15)            -0.0016         estimate D2E/DX2                !
 ! D19   D(19,6,7,8)             0.0009         estimate D2E/DX2                !
 ! D20   D(19,6,7,15)          179.9992         estimate D2E/DX2                !
 ! D21   D(6,7,8,9)            180.0            estimate D2E/DX2                !
 ! D22   D(6,7,8,21)            -0.001          estimate D2E/DX2                !
 ! D23   D(15,7,8,9)             0.0007         estimate D2E/DX2                !
 ! D24   D(15,7,8,21)          179.9997         estimate D2E/DX2                !
 ! D25   D(6,7,15,9)          -179.9989         estimate D2E/DX2                !
 ! D26   D(6,7,15,20)            0.0014         estimate D2E/DX2                !
 ! D27   D(8,7,15,9)            -0.0005         estimate D2E/DX2                !
 ! D28   D(8,7,15,20)          179.9998         estimate D2E/DX2                !
 ! D29   D(7,8,9,10)          -179.9997         estimate D2E/DX2                !
 ! D30   D(7,8,9,15)            -0.0006         estimate D2E/DX2                !
 ! D31   D(21,8,9,10)            0.0009         estimate D2E/DX2                !
 ! D32   D(21,8,9,15)         -180.0            estimate D2E/DX2                !
 ! D33   D(7,8,14,11)          179.9995         estimate D2E/DX2                !
 ! D34   D(7,8,14,22)           -0.0002         estimate D2E/DX2                !
 ! D35   D(21,8,14,11)          -0.0001         estimate D2E/DX2                !
 ! D36   D(21,8,14,22)        -179.9998         estimate D2E/DX2                !
 ! D37   D(8,9,10,23)           -0.0012         estimate D2E/DX2                !
 ! D38   D(8,9,10,27)         -179.9996         estimate D2E/DX2                !
 ! D39   D(15,9,10,23)        -179.9992         estimate D2E/DX2                !
 ! D40   D(15,9,10,27)           0.0024         estimate D2E/DX2                !
 ! D41   D(15,9,14,11)         179.9998         estimate D2E/DX2                !
 ! D42   D(15,9,14,22)           0.0003         estimate D2E/DX2                !
 ! D43   D(8,9,15,7)             0.0006         estimate D2E/DX2                !
 ! D44   D(10,9,15,7)          179.9989         estimate D2E/DX2                !
 ! D45   D(14,9,15,7)          180.0            estimate D2E/DX2                !
 ! D46   D(9,10,13,26)        -179.999          estimate D2E/DX2                !
 ! D47   D(14,10,13,26)       -179.9983         estimate D2E/DX2                !
 ! D48   D(23,10,13,26)          0.0022         estimate D2E/DX2                !
 ! D49   D(27,10,14,11)          0.0003         estimate D2E/DX2                !
 ! D50   D(27,10,14,22)       -179.9995         estimate D2E/DX2                !
 ! D51   D(9,10,27,11)          -0.0015         estimate D2E/DX2                !
 ! D52   D(9,10,27,12)         179.9992         estimate D2E/DX2                !
 ! D53   D(14,10,27,11)         -0.0005         estimate D2E/DX2                !
 ! D54   D(14,10,27,12)       -179.9998         estimate D2E/DX2                !
 ! D55   D(23,10,27,11)        180.0            estimate D2E/DX2                !
 ! D56   D(23,10,27,12)          0.0007         estimate D2E/DX2                !
 ! D57   D(14,11,13,12)          0.0007         estimate D2E/DX2                !
 ! D58   D(14,11,13,26)        179.9997         estimate D2E/DX2                !
 ! D59   D(24,11,13,12)       -179.9996         estimate D2E/DX2                !
 ! D60   D(24,11,13,26)         -0.0006         estimate D2E/DX2                !
 ! D61   D(13,11,14,9)           0.0003         estimate D2E/DX2                !
 ! D62   D(13,11,14,10)         -0.0004         estimate D2E/DX2                !
 ! D63   D(13,11,14,22)        179.9995         estimate D2E/DX2                !
 ! D64   D(24,11,14,9)        -179.9994         estimate D2E/DX2                !
 ! D65   D(24,11,14,10)        180.0            estimate D2E/DX2                !
 ! D66   D(24,11,14,22)         -0.0002         estimate D2E/DX2                !
 ! D67   D(27,11,14,9)           0.0003         estimate D2E/DX2                !
 ! D68   D(27,11,14,10)         -0.0003         estimate D2E/DX2                !
 ! D69   D(27,11,14,22)        179.9995         estimate D2E/DX2                !
 ! D70   D(13,11,24,26)          0.0005         estimate D2E/DX2                !
 ! D71   D(14,11,24,26)       -179.9998         estimate D2E/DX2                !
 ! D72   D(27,11,24,26)          0.0006         estimate D2E/DX2                !
 ! D73   D(14,11,27,10)          0.0005         estimate D2E/DX2                !
 ! D74   D(14,11,27,12)        179.9994         estimate D2E/DX2                !
 ! D75   D(24,11,27,10)       -179.9998         estimate D2E/DX2                !
 ! D76   D(24,11,27,12)         -0.0009         estimate D2E/DX2                !
 ! D77   D(25,12,13,11)        179.9989         estimate D2E/DX2                !
 ! D78   D(25,12,13,26)         -0.0002         estimate D2E/DX2                !
 ! D79   D(25,12,27,10)        179.9987         estimate D2E/DX2                !
 ! D80   D(25,12,27,11)         -0.0004         estimate D2E/DX2                !
 ! D81   D(11,13,26,24)          0.0004         estimate D2E/DX2                !
 ! D82   D(12,13,26,24)        179.9999         estimate D2E/DX2                !
 ! D83   D(27,13,26,24)        179.9994         estimate D2E/DX2                !
 ! D84   D(11,24,26,13)         -0.0003         estimate D2E/DX2                !
 --------------------------------------------------------------------------------
 Trust Radius=3.00D-01 FncErr=1.00D-07 GrdErr=1.00D-06 EigMax=2.50D+02 EigMin=1.00D-04
 Number of steps in this run=    168 maximum allowed number of steps=    168.
 GradGradGradGradGradGradGradGradGradGradGradGradGradGradGradGradGradGrad

                          Input orientation:                          
 ---------------------------------------------------------------------
 Center     Atomic      Atomic             Coordinates (Angstroms)
 Number     Number       Type             X           Y           Z
 ---------------------------------------------------------------------
      1          7           0        3.062760   -0.516500    0.062210
      2          6           0        5.272900   -1.210860    0.203330
      3          6           0        3.388710   -1.284600    0.218330
      4          6           0        4.743080   -1.253110    0.211930
      5         16           0        5.964850    0.669540   -0.178860
      6          6           0        5.140660   -2.869740    0.540510
      7          6           0        6.295900   -2.831830    0.532810
      8          6           0        6.957280   -4.051960    0.780800
      9          6           0        8.090900   -3.769770    0.723450
     10          6           0        9.205810   -4.908350    0.954860
     11          6           0       10.991510   -3.957050    0.761510
     12          6           0       10.615300   -6.115520    1.200230
     13          6           0       11.185270   -4.813000    0.935490
     14          6           0        9.547180   -3.286280    0.625170
     15          6           0        7.599050   -2.157350    0.395710
     16          1           0        1.415470   -0.728250    0.105250
     17          1           0        1.647860    0.340840   -0.112050
     18          1           0        2.592890   -2.102310    0.384530
     19          1           0        4.616870   -3.514680    0.671600
     20          1           0        7.138360   -1.114070    0.183660
     21          1           0        6.808080   -4.930600    0.959390
     22          1           0        8.989020   -2.175840    0.399470
     23          1           0        8.896990   -5.910020    1.158460
     24          1           0       11.993090   -3.618890    0.692780
     25          1           0       11.208010   -7.051140    1.390390
     26          1           0       12.832470   -5.219520    1.018110
     27          1           0       10.435190   -4.905890    0.954370
     28          1           0        6.162710   -1.276860    0.216750
 ---------------------------------------------------------------------
                    Distance matrix (angstroms):
                    1          2          3          4          5
     1  N    0.000000
     2  C    2.320942   0.000000
     3  C    0.848878   1.885692   0.000000
     4  C    1.840784   0.531571   1.354751   0.000000
     5  S    3.144349   2.039796   3.257748   2.311281   0.000000
     6  C    3.175559   1.697958   2.384491   1.696917   3.704495
     7  C    4.004424   1.944898   3.308258   2.237537   3.588267
     8  C    5.308779   3.352977   4.550752   3.613842   4.919190
     9  C    6.025213   3.841831   5.342453   4.219375   5.004171
    10  C    7.604093   5.450139   6.892945   5.816243   6.549962
    11  C    8.671302   6.368330   8.077104   6.830535   6.896154
    12  C    9.470215   7.320569   8.747887   7.687830   8.340600
    13  C    9.230260   6.961867   8.587798   7.395821   7.651981
    14  C    7.073635   4.770198   6.488374   5.232965   5.397042
    15  C    4.835446   2.518696   4.303501   3.001331   3.315426
    16  H    1.661401   3.888740   2.053287   3.370437   4.767745
    17  H    1.663533   3.955775   2.404530   3.496574   4.330001
    18  H    1.685070   2.830189   1.153083   2.318243   4.401213
    19  H    3.431574   2.440746   2.585940   2.311260   4.477503
    20  H    4.120965   1.868073   3.753686   2.399479   2.165597
    21  H    5.858040   4.094493   5.053175   4.283323   5.776523
    22  H    6.163417   3.844373   5.673675   4.349093   4.192405
    23  H    8.020602   6.010691   7.253930   6.311711   7.326423
    24  H    9.474874   7.155356   8.928010   7.641386   7.449165
    25  H   10.526665   8.410916   9.786121   8.763632   9.463729
    26  H   10.884823   8.595366  10.261961   9.045472   9.125676
    27  H    8.626437   6.392695   7.956656   6.803979   7.235577
    28  H    3.195578   0.892355   2.774011   1.419837   1.996028
                    6          7          8          9         10
     6  C    0.000000
     7  C    1.155888   0.000000
     8  C    2.180709   1.409837   0.000000
     9  C    3.089893   2.034232   1.169622   0.000000
    10  C    4.566515   3.599672   2.412382   1.610261   0.000000
    11  C    5.955126   4.833961   4.035392   2.906899   2.032506
    12  C    6.398594   5.466744   4.220819   3.478859   1.871932
    13  C    6.361570   5.290853   4.298722   3.272372   1.981850
    14  C    4.426973   3.284186   2.705193   1.537587   1.690071
    15  C    2.563620   1.473743   2.037084   1.717332   3.234552
    16  H    4.318851   5.331646   6.497313   7.361683   8.881693
    17  H    4.788874   5.664447   6.948656   7.688169   9.263633
    18  H    2.665410   3.777098   4.796464   5.755294   7.206237
    19  H    0.841123   1.817880   2.403771   3.483769   4.804261
    20  H    2.683379   1.944825   3.003425   2.872533   4.389266
    21  H    2.683821   2.202075   0.908935   1.746087   2.397838
    22  H    3.912961   2.775067   2.791631   1.858008   2.796796
    23  H    4.871876   4.078279   2.712469   2.328022   1.067785
    24  H    6.894941   5.753523   5.055164   3.905226   3.082259
    25  H    7.417489   6.531986   5.237880   4.574776   2.964800
    26  H    8.056892   6.975910   5.994779   4.967000   3.640534
    27  H    5.687639   4.648996   3.585412   2.615299   1.229383
    28  H    1.920071   1.592346   2.941203   3.192062   4.795100
                   11         12         13         14         15
    11  C    0.000000
    12  C    2.234503   0.000000
    13  C    0.894686   1.446206   0.000000
    14  C    1.598315   3.078339   2.260644   0.000000
    15  C    3.857657   5.041044   4.494976   2.263260   0.000000
    16  H   10.127012  10.717207  10.621839   8.540406   6.353216
    17  H   10.321762  11.127517  10.891354   8.723460   6.474213
    18  H    8.609239   9.007235   9.026649   7.058459   5.006475
    19  H    6.390603   6.559343   6.700683   4.935816   3.288139
    20  H    4.823195   6.175518   5.533969   3.273506   1.160014
    21  H    4.299772   3.994617   4.378835   3.212189   2.938415
    22  H    2.704394   4.336713   3.473535   1.263155   1.390098
    23  H    2.891137   1.731059   2.547429   2.755205   4.043386
    24  H    1.059358   2.896372   1.461978   2.469347   4.640252
    25  H    3.164768   1.123766   2.284014   4.185462   6.161425
    26  H    2.246955   2.398297   1.698633   3.832095   6.095322
    27  H    1.116684   1.247434   0.756046   1.876185   3.988767
    28  H    5.549549   6.648716   6.184414   3.957172   1.694214
                   16         17         18         19         20
    16  H    0.000000
    17  H    1.115427   0.000000
    18  H    1.830944   2.666206   0.000000
    19  H    4.281811   4.928911   2.484692   0.000000
    20  H    5.736417   5.687688   4.655992   3.515526   0.000000
    21  H    6.889814   7.454122   5.108573   2.624701   3.908547
    22  H    7.716265   7.777401   6.396570   4.580638   2.144498
    23  H    9.161503   9.655948   7.405356   4.928906   5.200399
    24  H   10.981213  11.106349   9.526741   7.376986   5.486504
    25  H   11.727078  12.177650   9.986139   7.514408   7.298428
    26  H   12.302549  12.541546  10.722286   8.397775   7.069223
    27  H    9.976424  10.289927   8.347841   5.989013   5.083402
    28  H    4.780135   4.807175   3.667851   2.757598   0.989691
                   21         22         23         24         25
    21  H    0.000000
    22  H    3.557908   0.000000
    23  H    2.315694   3.811645   0.000000
    24  H    5.354997   3.345573   3.879687   0.000000
    25  H    4.903247   5.447420   2.587810   3.589338   0.000000
    26  H    6.031600   4.941539   3.998061   1.836414   2.476347
    27  H    3.627198   3.138868   1.848239   2.037609   2.321521
    28  H    3.783891   2.971461   5.461618   6.301194   7.757241
                   26         27         28
    26  H    0.000000
    27  H    2.418549   0.000000
    28  H    7.789252   5.654028   0.000000
 Stoichiometry    C13H13NS
 Framework group  C1[X(C13H13NS)]
 Deg. of freedom    78
 Full point group                 C1      NOp   1
 Largest Abelian subgroup         C1      NOp   1
 Largest concise Abelian subgroup C1      NOp   1
                         Standard orientation:                         
 ---------------------------------------------------------------------
 Center     Atomic      Atomic             Coordinates (Angstroms)
 Number     Number       Type             X           Y           Z
 ---------------------------------------------------------------------
      1          7           0        4.462973   -0.643753   -0.000002
      2          6           0        2.252686    0.064343    0.000008
      3          6           0        3.742148   -1.092090   -0.000003
      4          6           0        2.658749   -0.278704   -0.000004
      5         16           0        2.804978    2.027947   -0.000001
      6          6           0        1.376339   -1.389987    0.000002
      7          6           0        0.458783   -0.687017   -0.000004
      8          6           0       -0.803106   -1.315728    0.000002
      9          6           0       -1.558176   -0.422485   -0.000004
     10          6           0       -3.140739   -0.719861    0.000006
     11          6           0       -4.029542    1.108009   -0.000001
     12          6           0       -5.003694   -0.902968   -0.000003
     13          6           0       -4.694909    0.509888   -0.000005
     14          6           0       -2.456399    0.825461    0.000003
     15          6           0       -0.201551    0.630510    0.000005
     16          1           0        5.677807   -1.777082   -0.000002
     17          1           0        6.122830   -0.754276    0.000001
     18          1           0        3.904704   -2.233658    0.000000
     19          1           0        1.420015   -2.229976   -0.000001
     20          1           0        0.792135    1.229026    0.000004
     21          1           0       -1.202858   -2.132037   -0.000000
     22          1           0       -1.343564    1.423088    0.000002
     23          1           0       -3.483581   -1.731111   -0.000000
     24          1           0       -4.643970    1.970979   -0.000003
     25          1           0       -6.040949   -1.335348    0.000005
     26          1           0       -6.276391    1.129781    0.000001
     27          1           0       -4.139652   -0.003233   -0.000005
     28          1           0        1.489482    0.526747    0.000003
 ---------------------------------------------------------------------
 Rotational constants (GHZ):           1.7866541           0.2430804           0.2139692
 Standard basis: 6-31G(2df,p) (6D, 7F)
 There are   534 symmetry adapted cartesian basis functions of A   symmetry.
 There are   489 symmetry adapted basis functions of A   symmetry.
   489 basis functions,   775 primitive gaussians,   534 cartesian basis functions
    57 alpha electrons       57 beta electrons
       nuclear repulsion energy      1052.0077886080 Hartrees.
 NAtoms=   28 NActive=   28 NUniq=   28 SFac= 1.00D+00 NAtFMM=   60 NAOKFM=F Big=F
 Integral buffers will be    131072 words long.
 Raffenetti 2 integral format.
 Two-electron integral symmetry is turned on.
 One-electron integrals computed using PRISM.
 PrsmSu:  requested number of processors reduced to:  12 ShMem   1 Linda.
 NBasis=   489 RedAO= T EigKep=  4.44D-05  NBF=   489
 NBsUse=   488 1.00D-06 EigRej=  1.41D-07 NBFU=   488
 ExpMin= 1.17D-01 ExpMax= 2.19D+04 ExpMxC= 3.30D+03 IAcc=3 IRadAn=         5 AccDes= 0.00D+00
 Harris functional with IExCor=  402 and IRadAn=       5 diagonalized for initial guess.
 HarFok:  IExCor=  402 AccDes= 0.00D+00 IRadAn=         5 IDoV= 1 UseB2=F ITyADJ=14
 ICtDFT=  3500011 ScaDFX=  1.000000  1.000000  1.000000  1.000000
 FoFCou: FMM=F IPFlag=           0 FMFlag=      100000 FMFlg1=           0
         NFxFlg=           0 DoJE=T BraDBF=F KetDBF=T FulRan=T
         wScrn=  0.000000 ICntrl=       500 IOpCl=  0 I1Cent=   200000004 NGrid=           0
         NMat0=    1 NMatS0=      1 NMatT0=    0 NMatD0=    1 NMtDS0=    0 NMtDT0=    0
 Petite list used in FoFCou.
 Requested convergence on RMS density matrix=1.00D-08 within 128 cycles.
 Requested convergence on MAX density matrix=1.00D-06.
 Requested convergence on             energy=1.00D-06.
 No special actions if energy rises.
 Integral accuracy reduced to 1.0D-05 until final iterations.
 EnCoef did     5 forward-backward iterations
 EnCoef did     4 forward-backward iterations
 Problem detected with inexpensive integrals.
 Switching to full accuracy and repeating last cycle.
 EnCoef did     2 forward-backward iterations
 EnCoef did   100 forward-backward iterations
 EnCoef did   100 forward-backward iterations
 EnCoef did    12 forward-backward iterations
 EnCoef did     3 forward-backward iterations
 EnCoef did   100 forward-backward iterations
 EnCoef did     4 forward-backward iterations
 EnCoef did   100 forward-backward iterations
 EnCoef did     3 forward-backward iterations
 EnCoef did     2 forward-backward iterations
 EnCoef did     9 forward-backward iterations
 EnCoef did    16 forward-backward iterations
 EnCoef did     6 forward-backward iterations
 EnCoef did    22 forward-backward iterations
 EnCoef did    11 forward-backward iterations
 EnCoef did     7 forward-backward iterations
 EnCoef did     4 forward-backward iterations
 Restarting incremental Fock formation.
 Rare condition: small coef for last iteration:  0.000D+00
 EnCoef did   100 forward-backward iterations
 Restarting incremental Fock formation.
 SCF Done:  E(RB3LYP) =  -948.629481911     A.U. after   45 cycles
            NFock= 45  Conv=0.65D-08     -V/T= 1.9815

 **********************************************************************

            Population analysis using the SCF density.

 **********************************************************************

 Orbital symmetries:
       Occupied  (A) (A) (A) (A) (A) (A) (A) (A) (A) (A) (A) (A)
                 (A) (A) (A) (A) (A) (A) (A) (A) (A) (A) (A) (A)
                 (A) (A) (A) (A) (A) (A) (A) (A) (A) (A) (A) (A)
                 (A) (A) (A) (A) (A) (A) (A) (A) (A) (A) (A) (A)
                 (A) (A) (A) (A) (A) (A) (A) (A) (A)
       Virtual   (A) (A) (A) (A) (A) (A) (A) (A) (A) (A) (A) (A)
                 (A) (A) (A) (A) (A) (A) (A) (A) (A) (A) (A) (A)
                 (A) (A) (A) (A) (A) (A) (A) (A) (A) (A) (A) (A)
                 (A) (A) (A) (A) (A) (A) (A) (A) (A) (A) (A) (A)
                 (A) (A) (A) (A) (A) (A) (A) (A) (A) (A) (A) (A)
                 (A) (A) (A) (A) (A) (A) (A) (A) (A) (A) (A) (A)
                 (A) (A) (A) (A) (A) (A) (A) (A) (A) (A) (A) (A)
                 (A) (A) (A) (A) (A) (A) (A) (A) (A) (A) (A) (A)
                 (A) (A) (A) (A) (A) (A) (A) (A) (A) (A) (A) (A)
                 (A) (A) (A) (A) (A) (A) (A) (A) (A) (A) (A) (A)
                 (A) (A) (A) (A) (A) (A) (A) (A) (A) (A) (A) (A)
                 (A) (A) (A) (A) (A) (A) (A) (A) (A) (A) (A) (A)
                 (A) (A) (A) (A) (A) (A) (A) (A) (A) (A) (A) (A)
                 (A) (A) (A) (A) (A) (A) (A) (A) (A) (A) (A) (A)
                 (A) (A) (A) (A) (A) (A) (A) (A) (A) (A) (A) (A)
                 (A) (A) (A) (A) (A) (A) (A) (A) (A) (A) (A) (A)
                 (A) (A) (A) (A) (A) (A) (A) (A) (A) (A) (A) (A)
                 (A) (A) (A) (A) (A) (A) (A) (A) (A) (A) (A) (A)
                 (A) (A) (A) (A) (A) (A) (A) (A) (A) (A) (A) (A)
                 (A) (A) (A) (A) (A) (A) (A) (A) (A) (A) (A) (A)
                 (A) (A) (A) (A) (A) (A) (A) (A) (A) (A) (A) (A)
                 (A) (A) (A) (A) (A) (A) (A) (A) (A) (A) (A) (A)
                 (A) (A) (A) (A) (A) (A) (A) (A) (A) (A) (A) (A)
                 (A) (A) (A) (A) (A) (A) (A) (A) (A) (A) (A) (A)
                 (A) (A) (A) (A) (A) (A) (A) (A) (A) (A) (A) (A)
                 (A) (A) (A) (A) (A) (A) (A) (A) (A) (A) (A) (A)
                 (A) (A) (A) (A) (A) (A) (A) (A) (A) (A) (A) (A)
                 (A) (A) (A) (A) (A) (A) (A) (A) (A) (A) (A) (A)
                 (A) (A) (A) (A) (A) (A) (A) (A) (A) (A) (A) (A)
                 (A) (A) (A) (A) (A) (A) (A) (A) (A) (A) (A) (A)
                 (A) (A) (A) (A) (A) (A) (A) (A) (A) (A) (A) (A)
                 (A) (A) (A) (A) (A) (A) (A) (A) (A) (A) (A) (A)
                 (A) (A) (A) (A) (A) (A) (A) (A) (A) (A) (A) (A)
                 (A) (A) (A) (A) (A) (A) (A) (A) (A) (A) (A) (A)
                 (A) (A) (A) (A) (A) (A) (A) (A) (A) (A) (A) (A)
                 (A) (A) (A) (A) (A) (A) (A) (A) (A) (A) (A)
 The electronic state is 1-A.
 Alpha  occ. eigenvalues --  -88.82784 -14.32489 -11.27078 -10.48526 -10.24648
 Alpha  occ. eigenvalues --  -10.24341 -10.24314 -10.24015 -10.23939 -10.23396
 Alpha  occ. eigenvalues --  -10.22202 -10.21230 -10.20508 -10.19203 -10.16381
 Alpha  occ. eigenvalues --   -7.89381  -5.85979  -5.85328  -5.84864  -1.10811
 Alpha  occ. eigenvalues --   -1.10769  -1.02140  -0.93022  -0.85628  -0.82414
 Alpha  occ. eigenvalues --   -0.80098  -0.80078  -0.77312  -0.75686  -0.69667
 Alpha  occ. eigenvalues --   -0.65091  -0.64198  -0.60420  -0.59000  -0.57128
 Alpha  occ. eigenvalues --   -0.55280  -0.53076  -0.52604  -0.51732  -0.49052
 Alpha  occ. eigenvalues --   -0.48562  -0.47096  -0.46191  -0.44255  -0.41429
 Alpha  occ. eigenvalues --   -0.35372  -0.34936  -0.32358  -0.28781  -0.26280
 Alpha  occ. eigenvalues --   -0.23438  -0.22457  -0.21588  -0.21457  -0.20910
 Alpha  occ. eigenvalues --   -0.18330  -0.17395
 Alpha virt. eigenvalues --   -0.14616  -0.13353  -0.10101  -0.07696  -0.05656
 Alpha virt. eigenvalues --   -0.05570  -0.01315   0.00514   0.07433   0.07522
 Alpha virt. eigenvalues --    0.11583   0.12569   0.12813   0.13765   0.15042
 Alpha virt. eigenvalues --    0.16636   0.17980   0.18512   0.19626   0.21192
 Alpha virt. eigenvalues --    0.21357   0.23231   0.24521   0.25764   0.27671
 Alpha virt. eigenvalues --    0.28717   0.29738   0.30137   0.30157   0.31605
 Alpha virt. eigenvalues --    0.33141   0.33569   0.36127   0.37829   0.37893
 Alpha virt. eigenvalues --    0.39081   0.39987   0.40155   0.41292   0.43751
 Alpha virt. eigenvalues --    0.44894   0.45065   0.45366   0.46677   0.46773
 Alpha virt. eigenvalues --    0.47489   0.48601   0.49746   0.50711   0.50998
 Alpha virt. eigenvalues --    0.51684   0.53194   0.53535   0.53839   0.54137
 Alpha virt. eigenvalues --    0.54933   0.57762   0.58089   0.58624   0.60947
 Alpha virt. eigenvalues --    0.61930   0.63181   0.64224   0.64933   0.65341
 Alpha virt. eigenvalues --    0.66033   0.66219   0.66397   0.67594   0.67933
 Alpha virt. eigenvalues --    0.68999   0.69172   0.71096   0.72818   0.74554
 Alpha virt. eigenvalues --    0.75146   0.75645   0.76874   0.78163   0.79349
 Alpha virt. eigenvalues --    0.79800   0.81193   0.81239   0.82019   0.82670
 Alpha virt. eigenvalues --    0.84615   0.85849   0.87261   0.87772   0.88700
 Alpha virt. eigenvalues --    0.90942   0.91944   0.92755   0.93284   0.94574
 Alpha virt. eigenvalues --    0.95642   0.96483   0.97677   0.99115   0.99538
 Alpha virt. eigenvalues --    1.01100   1.01285   1.04093   1.06450   1.07423
 Alpha virt. eigenvalues --    1.09139   1.09391   1.09505   1.10775   1.11858
 Alpha virt. eigenvalues --    1.12960   1.13131   1.13627   1.16489   1.16843
 Alpha virt. eigenvalues --    1.17819   1.21100   1.22094   1.22280   1.24291
 Alpha virt. eigenvalues --    1.26300   1.27282   1.27288   1.27572   1.28212
 Alpha virt. eigenvalues --    1.30077   1.30608   1.31770   1.34384   1.35989
 Alpha virt. eigenvalues --    1.37333   1.39778   1.41089   1.42703   1.43794
 Alpha virt. eigenvalues --    1.44140   1.48673   1.50209   1.51553   1.51948
 Alpha virt. eigenvalues --    1.53481   1.56182   1.57136   1.58789   1.60070
 Alpha virt. eigenvalues --    1.61409   1.61875   1.63501   1.65483   1.65749
 Alpha virt. eigenvalues --    1.67625   1.70331   1.70419   1.70728   1.71317
 Alpha virt. eigenvalues --    1.73588   1.75276   1.76771   1.77362   1.78210
 Alpha virt. eigenvalues --    1.80560   1.81432   1.82067   1.83646   1.85079
 Alpha virt. eigenvalues --    1.86568   1.89954   1.90526   1.92970   1.93973
 Alpha virt. eigenvalues --    1.96023   1.96606   1.98503   1.98887   2.00331
 Alpha virt. eigenvalues --    2.02252   2.02433   2.05057   2.08760   2.08958
 Alpha virt. eigenvalues --    2.13211   2.16445   2.16559   2.17326   2.19695
 Alpha virt. eigenvalues --    2.22181   2.22545   2.23756   2.25067   2.25090
 Alpha virt. eigenvalues --    2.26505   2.26911   2.29026   2.32368   2.34763
 Alpha virt. eigenvalues --    2.35273   2.35699   2.37570   2.38739   2.42408
 Alpha virt. eigenvalues --    2.43538   2.44143   2.44977   2.47061   2.49889
 Alpha virt. eigenvalues --    2.50334   2.50773   2.52352   2.53573   2.58006
 Alpha virt. eigenvalues --    2.59427   2.61308   2.62090   2.62113   2.66434
 Alpha virt. eigenvalues --    2.68360   2.70594   2.70661   2.72418   2.75290
 Alpha virt. eigenvalues --    2.77521   2.77769   2.79707   2.81099   2.82031
 Alpha virt. eigenvalues --    2.85372   2.85976   2.88027   2.89331   2.90427
 Alpha virt. eigenvalues --    2.91367   2.91794   2.94511   2.97094   2.97144
 Alpha virt. eigenvalues --    2.98838   2.99457   2.99916   3.00603   3.01782
 Alpha virt. eigenvalues --    3.03769   3.04726   3.05225   3.05561   3.06313
 Alpha virt. eigenvalues --    3.07661   3.08306   3.09119   3.09606   3.11630
 Alpha virt. eigenvalues --    3.12457   3.12914   3.15688   3.15722   3.18262
 Alpha virt. eigenvalues --    3.19089   3.20828   3.22119   3.23572   3.24145
 Alpha virt. eigenvalues --    3.24716   3.27567   3.28077   3.28287   3.29154
 Alpha virt. eigenvalues --    3.30400   3.32619   3.33616   3.34866   3.36247
 Alpha virt. eigenvalues --    3.37379   3.40126   3.40168   3.41579   3.43114
 Alpha virt. eigenvalues --    3.44162   3.46413   3.49006   3.51165   3.52472
 Alpha virt. eigenvalues --    3.52489   3.55071   3.57809   3.57979   3.60331
 Alpha virt. eigenvalues --    3.60621   3.63054   3.64042   3.65248   3.66610
 Alpha virt. eigenvalues --    3.68067   3.69222   3.71211   3.75883   3.78283
 Alpha virt. eigenvalues --    3.79167   3.79687   3.81030   3.81853   3.82659
 Alpha virt. eigenvalues --    3.83506   3.86094   3.86864   3.87959   3.90164
 Alpha virt. eigenvalues --    3.92623   3.93616   3.95280   3.97079   3.99170
 Alpha virt. eigenvalues --    4.03140   4.05064   4.06601   4.08033   4.08342
 Alpha virt. eigenvalues --    4.08902   4.10949   4.11478   4.15829   4.17124
 Alpha virt. eigenvalues --    4.19486   4.23524   4.25276   4.26781   4.28886
 Alpha virt. eigenvalues --    4.31804   4.32208   4.35074   4.35377   4.39879
 Alpha virt. eigenvalues --    4.40252   4.42476   4.42807   4.44025   4.45215
 Alpha virt. eigenvalues --    4.46647   4.47948   4.48457   4.48477   4.49315
 Alpha virt. eigenvalues --    4.51399   4.54774   4.55748   4.57316   4.57421
 Alpha virt. eigenvalues --    4.59871   4.62739   4.62745   4.64789   4.64945
 Alpha virt. eigenvalues --    4.65417   4.67954   4.68344   4.71903   4.73726
 Alpha virt. eigenvalues --    4.75381   4.77647   4.78071   4.81619   4.82584
 Alpha virt. eigenvalues --    4.86153   4.87744   4.90264   4.93283   4.96727
 Alpha virt. eigenvalues --    4.97574   5.01271   5.04441   5.05266   5.08000
 Alpha virt. eigenvalues --    5.09601   5.13813   5.18922   5.22031   5.24115
 Alpha virt. eigenvalues --    5.25120   5.28189   5.30130   5.31310   5.31636
 Alpha virt. eigenvalues --    5.33351   5.35168   5.36975   5.39713   5.41349
 Alpha virt. eigenvalues --    5.46732   5.51219   5.54455   5.61158   5.68239
 Alpha virt. eigenvalues --    5.72102   5.76809   5.88181   5.93924   5.99277
 Alpha virt. eigenvalues --    6.09341   6.13493   6.16942   6.18520   6.19633
 Alpha virt. eigenvalues --    6.25988   6.41035   6.47486   6.64707   6.74690
 Alpha virt. eigenvalues --    6.76751   6.89422   7.07039   7.16493   7.32230
 Alpha virt. eigenvalues --    7.39996   7.68633   8.09775   8.17815   8.36495
 Alpha virt. eigenvalues --    9.72935  10.23115  10.53750  10.64807  10.87561
 Alpha virt. eigenvalues --   10.95143  11.36620  11.40279  11.74151  11.83418
 Alpha virt. eigenvalues --   12.12396  12.37244  12.60304  13.03147  20.81745
 Alpha virt. eigenvalues --   27.82440
          Condensed to atoms (all electrons):
               1          2          3          4          5          6
     1  N    6.645718  -0.139128   0.545331  -0.056983   0.024960  -0.037547
     2  C   -0.139128   6.891130  -0.373234   0.153011  -0.391566  -0.249757
     3  C    0.545331  -0.373234   6.814222  -0.713946   0.132491   0.125513
     4  C   -0.056983   0.153011  -0.713946   7.239596  -0.088393  -0.368781
     5  S    0.024960  -0.391566   0.132491  -0.088393  16.615255   0.069887
     6  C   -0.037547  -0.249757   0.125513  -0.368781   0.069887   6.962682
     7  C    0.005169   0.082820  -0.025305   0.045864  -0.017318  -0.305843
     8  C    0.000031  -0.007291  -0.000714   0.003386   0.000098   0.095042
     9  C   -0.000001  -0.011555  -0.000110   0.001609   0.000426  -0.060082
    10  C   -0.000000   0.000160  -0.000001  -0.000013  -0.000020  -0.001393
    11  C    0.000000   0.000012   0.000000   0.000000   0.000000   0.000032
    12  C   -0.000000  -0.000000   0.000000  -0.000000  -0.000000  -0.000003
    13  C    0.000000   0.000002  -0.000000  -0.000000  -0.000001   0.000001
    14  C    0.000000  -0.000159   0.000002   0.000088   0.000011  -0.000615
    15  C    0.000197   0.068879   0.002438  -0.004881  -0.036288  -0.131887
    16  H   -0.173510  -0.000048  -0.092682  -0.010712   0.001331  -0.000254
    17  H   -0.067839  -0.000121  -0.043149  -0.007568   0.001420  -0.000131
    18  H   -0.134824  -0.002580   0.369060  -0.243208   0.009131   0.025097
    19  H   -0.001228   0.011754  -0.014082  -0.008887   0.000001   0.276297
    20  H    0.000707  -0.024926   0.004948  -0.002944   0.083168   0.030777
    21  H    0.000001  -0.001291   0.000024   0.000541   0.000044  -0.007681
    22  H    0.000000   0.010212  -0.000016  -0.000522  -0.003377  -0.002798
    23  H    0.000000  -0.000008   0.000000   0.000001   0.000001   0.000016
    24  H   -0.000000   0.000000  -0.000000  -0.000000  -0.000000   0.000000
    25  H    0.000000   0.000000  -0.000000  -0.000000  -0.000000   0.000000
    26  H   -0.000000   0.000000  -0.000000   0.000000  -0.000000   0.000000
    27  H   -0.000000  -0.000006   0.000000   0.000000   0.000001  -0.000006
    28  H   -0.019404  -0.264223  -0.065328  -0.172034   0.131734  -0.043240
               7          8          9         10         11         12
     1  N    0.005169   0.000031  -0.000001  -0.000000   0.000000  -0.000000
     2  C    0.082820  -0.007291  -0.011555   0.000160   0.000012  -0.000000
     3  C   -0.025305  -0.000714  -0.000110  -0.000001   0.000000   0.000000
     4  C    0.045864   0.003386   0.001609  -0.000013   0.000000  -0.000000
     5  S   -0.017318   0.000098   0.000426  -0.000020   0.000000  -0.000000
     6  C   -0.305843   0.095042  -0.060082  -0.001393   0.000032  -0.000003
     7  C    5.143239   0.021619   0.058611   0.002522   0.000477   0.000023
     8  C    0.021619   6.090666   0.259693  -0.056227  -0.005274   0.000140
     9  C    0.058611   0.259693   4.501423   0.032619  -0.015632  -0.004140
    10  C    0.002522  -0.056227   0.032619   6.766624  -0.355116   0.291609
    11  C    0.000477  -0.005274  -0.015632  -0.355116   6.074601  -0.211667
    12  C    0.000023   0.000140  -0.004140   0.291609  -0.211667   5.679849
    13  C    0.000256   0.002808  -0.007530   0.668202  -0.566247   0.716850
    14  C   -0.003756  -0.085530   0.460735  -0.030970   0.218296  -0.028040
    15  C    0.428355  -0.004404   0.227824   0.002829   0.011042  -0.000444
    16  H   -0.000027  -0.000000  -0.000000  -0.000000   0.000000   0.000000
    17  H   -0.000001  -0.000000  -0.000000  -0.000000   0.000000   0.000000
    18  H    0.000326   0.000088   0.000008  -0.000000   0.000000   0.000000
    19  H    0.107671  -0.021305   0.004661   0.000047  -0.000000   0.000000
    20  H   -0.116100   0.023460  -0.013242  -0.001033  -0.000057   0.000000
    21  H   -0.006658   0.173530   0.078927  -0.006647   0.001259  -0.000995
    22  H    0.001617   0.031933  -0.134923   0.026357  -0.048691  -0.000205
    23  H   -0.001114  -0.021652  -0.017487   0.182655   0.034452  -0.006631
    24  H    0.000003  -0.000006  -0.001266   0.045316   0.028338   0.013439
    25  H   -0.000000   0.000016  -0.000347   0.001910   0.001527   0.326011
    26  H    0.000000   0.000006  -0.000070   0.012517  -0.044074  -0.006437
    27  H   -0.000987  -0.000647   0.021748  -1.183237   0.933295  -0.310189
    28  H    0.107235  -0.037162   0.023594  -0.000320  -0.000041   0.000001
              13         14         15         16         17         18
     1  N    0.000000   0.000000   0.000197  -0.173510  -0.067839  -0.134824
     2  C    0.000002  -0.000159   0.068879  -0.000048  -0.000121  -0.002580
     3  C   -0.000000   0.000002   0.002438  -0.092682  -0.043149   0.369060
     4  C   -0.000000   0.000088  -0.004881  -0.010712  -0.007568  -0.243208
     5  S   -0.000001   0.000011  -0.036288   0.001331   0.001420   0.009131
     6  C    0.000001  -0.000615  -0.131887  -0.000254  -0.000131   0.025097
     7  C    0.000256  -0.003756   0.428355  -0.000027  -0.000001   0.000326
     8  C    0.002808  -0.085530  -0.004404  -0.000000  -0.000000   0.000088
     9  C   -0.007530   0.460735   0.227824  -0.000000  -0.000000   0.000008
    10  C    0.668202  -0.030970   0.002829  -0.000000  -0.000000  -0.000000
    11  C   -0.566247   0.218296   0.011042   0.000000   0.000000   0.000000
    12  C    0.716850  -0.028040  -0.000444   0.000000   0.000000   0.000000
    13  C    6.311651  -0.225646   0.000803  -0.000000  -0.000000  -0.000000
    14  C   -0.225646   5.795424  -0.188111   0.000000   0.000000   0.000000
    15  C    0.000803  -0.188111   6.048822   0.000000   0.000000   0.000015
    16  H   -0.000000   0.000000   0.000000   0.967747   0.380647   0.028411
    17  H   -0.000000   0.000000   0.000000   0.380647   0.577364   0.003818
    18  H   -0.000000   0.000000   0.000015   0.028411   0.003818   0.846237
    19  H    0.000000  -0.000002   0.001956  -0.000004  -0.000005   0.003280
    20  H   -0.000009   0.000327   0.243672   0.000001   0.000002   0.000002
    21  H   -0.000418   0.004099   0.014851   0.000000   0.000000   0.000000
    22  H    0.004560   0.184897   0.009481  -0.000000  -0.000000  -0.000000
    23  H   -0.049460   0.010869   0.001204   0.000000   0.000000   0.000000
    24  H    0.320533  -0.053990   0.000235  -0.000000  -0.000000  -0.000000
    25  H   -0.029982   0.000159   0.000003  -0.000000  -0.000000  -0.000000
    26  H    0.223165   0.004498   0.000004  -0.000000  -0.000000  -0.000000
    27  H   -1.902632   0.137030  -0.002984   0.000000  -0.000000   0.000000
    28  H   -0.000008   0.000299  -0.140818  -0.000041  -0.000054   0.001742
              19         20         21         22         23         24
     1  N   -0.001228   0.000707   0.000001   0.000000   0.000000  -0.000000
     2  C    0.011754  -0.024926  -0.001291   0.010212  -0.000008   0.000000
     3  C   -0.014082   0.004948   0.000024  -0.000016   0.000000  -0.000000
     4  C   -0.008887  -0.002944   0.000541  -0.000522   0.000001  -0.000000
     5  S    0.000001   0.083168   0.000044  -0.003377   0.000001  -0.000000
     6  C    0.276297   0.030777  -0.007681  -0.002798   0.000016   0.000000
     7  C    0.107671  -0.116100  -0.006658   0.001617  -0.001114   0.000003
     8  C   -0.021305   0.023460   0.173530   0.031933  -0.021652  -0.000006
     9  C    0.004661  -0.013242   0.078927  -0.134923  -0.017487  -0.001266
    10  C    0.000047  -0.001033  -0.006647   0.026357   0.182655   0.045316
    11  C   -0.000000  -0.000057   0.001259  -0.048691   0.034452   0.028338
    12  C    0.000000   0.000000  -0.000995  -0.000205  -0.006631   0.013439
    13  C    0.000000  -0.000009  -0.000418   0.004560  -0.049460   0.320533
    14  C   -0.000002   0.000327   0.004099   0.184897   0.010869  -0.053990
    15  C    0.001956   0.243672   0.014851   0.009481   0.001204   0.000235
    16  H   -0.000004   0.000001   0.000000  -0.000000   0.000000  -0.000000
    17  H   -0.000005   0.000002   0.000000  -0.000000   0.000000  -0.000000
    18  H    0.003280   0.000002   0.000000  -0.000000   0.000000  -0.000000
    19  H    0.472394  -0.001202  -0.002819   0.000007  -0.000003   0.000000
    20  H   -0.001202   0.631439  -0.000816  -0.008813   0.000009  -0.000006
    21  H   -0.002819  -0.000816   0.627632  -0.003256   0.017865  -0.000004
    22  H    0.000007  -0.008813  -0.003256   0.793960  -0.001987   0.002254
    23  H   -0.000003   0.000009   0.017865  -0.001987   0.612236  -0.001738
    24  H    0.000000  -0.000006  -0.000004   0.002254  -0.001738   0.678217
    25  H   -0.000000  -0.000000   0.000004   0.000014  -0.005890   0.000443
    26  H   -0.000000  -0.000000  -0.000000   0.000019  -0.000143  -0.033911
    27  H   -0.000001   0.000021   0.000087   0.008050   0.065647  -0.181021
    28  H    0.004414  -0.025201   0.000769  -0.017405   0.000012  -0.000001
              25         26         27         28
     1  N    0.000000  -0.000000  -0.000000  -0.019404
     2  C    0.000000   0.000000  -0.000006  -0.264223
     3  C   -0.000000  -0.000000   0.000000  -0.065328
     4  C   -0.000000   0.000000   0.000000  -0.172034
     5  S   -0.000000  -0.000000   0.000001   0.131734
     6  C    0.000000   0.000000  -0.000006  -0.043240
     7  C   -0.000000   0.000000  -0.000987   0.107235
     8  C    0.000016   0.000006  -0.000647  -0.037162
     9  C   -0.000347  -0.000070   0.021748   0.023594
    10  C    0.001910   0.012517  -1.183237  -0.000320
    11  C    0.001527  -0.044074   0.933295  -0.000041
    12  C    0.326011  -0.006437  -0.310189   0.000001
    13  C   -0.029982   0.223165  -1.902632  -0.000008
    14  C    0.000159   0.004498   0.137030   0.000299
    15  C    0.000003   0.000004  -0.002984  -0.140818
    16  H   -0.000000  -0.000000   0.000000  -0.000041
    17  H   -0.000000  -0.000000  -0.000000  -0.000054
    18  H   -0.000000  -0.000000   0.000000   0.001742
    19  H   -0.000000  -0.000000  -0.000001   0.004414
    20  H   -0.000000  -0.000000   0.000021  -0.025201
    21  H    0.000004  -0.000000   0.000087   0.000769
    22  H    0.000014   0.000019   0.008050  -0.017405
    23  H   -0.005890  -0.000143   0.065647   0.000012
    24  H    0.000443  -0.033911  -0.181021  -0.000001
    25  H    0.526794   0.006114  -0.002124  -0.000000
    26  H    0.006114   0.934664  -0.035327   0.000000
    27  H   -0.002124  -0.035327   3.666952   0.000007
    28  H   -0.000000   0.000000   0.000007   1.318110
 Mulliken charges:
               1
     1  N    0.408350
     2  C    0.247910
     3  C   -0.665463
     4  C    0.234777
     5  S   -0.532995
     6  C   -0.375327
     7  C    0.471305
     8  C   -0.462304
     9  C    0.594506
    10  C   -0.398388
    11  C   -0.056532
    12  C   -0.459170
    13  C    0.533101
    14  C   -0.199915
    15  C   -0.552793
    16  H   -0.100861
    17  H    0.155618
    18  H    0.093397
    19  H    0.167056
    20  H    0.175816
    21  H    0.110952
    22  H    0.148632
    23  H    0.181145
    24  H    0.183166
    25  H    0.175350
    26  H   -0.061024
    27  H   -0.213675
    28  H    0.197364
 Sum of Mulliken charges =  -0.00000
 Mulliken charges with hydrogens summed into heavy atoms:
               1
     1  N    0.463107
     2  C    0.445274
     3  C   -0.572066
     4  C    0.234777
     5  S   -0.532995
     6  C   -0.208270
     7  C    0.471305
     8  C   -0.351352
     9  C    0.594506
    10  C   -0.217243
    11  C    0.126635
    12  C   -0.283820
    13  C    0.258402
    14  C   -0.051283
    15  C   -0.376977
 Electronic spatial extent (au):  <R**2>=           4880.5747
 Charge=             -0.0000 electrons
 Dipole moment (field-independent basis, Debye):
    X=             -2.1873    Y=             -6.1544    Z=             -0.0898  Tot=              6.5321
 Quadrupole moment (field-independent basis, Debye-Ang):
   XX=            -95.3011   YY=            -96.7549   ZZ=            -98.4117
   XY=            -14.3931   XZ=             -0.3369   YZ=             -0.5437
 Traceless Quadrupole moment (field-independent basis, Debye-Ang):
   XX=              1.5215   YY=              0.0677   ZZ=             -1.5891
   XY=            -14.3931   XZ=             -0.3369   YZ=             -0.5437
 Octapole moment (field-independent basis, Debye-Ang**2):
  XXX=            -77.3103  YYY=            -31.0818  ZZZ=             -0.1973  XYY=            -23.4780
  XXY=            -33.3749  XXZ=             -0.7987  XZZ=             16.9077  YZZ=             -4.0865
  YYZ=             -1.2246  XYZ=             -0.8548
 Hexadecapole moment (field-independent basis, Debye-Ang**3):
 XXXX=          -5880.8466 YYYY=           -892.1123 ZZZZ=           -102.3069 XXXY=             35.1787
 XXXZ=             -9.1075 YYYX=            -59.1324 YYYZ=             -3.8504 ZZZX=             -0.5657
 ZZZY=             -0.7303 XXYY=          -1142.3049 XXZZ=          -1048.8586 YYZZ=           -179.8408
 XXYZ=             -7.1113 YYXZ=             -3.5257 ZZXY=            -19.0435
 N-N= 1.052007788608D+03 E-N=-4.337122781756D+03  KE= 9.665388739677D+02
 PrsmSu:  requested number of processors reduced to:  13 ShMem   1 Linda.
 Calling FoFJK, ICntrl=      2127 FMM=F ISym2X=0 I1Cent= 0 IOpClX= 0 NMat=1 NMatS=1 NMatT=0.
 ***** Axes restored to original set *****
 -------------------------------------------------------------------
 Center     Atomic                   Forces (Hartrees/Bohr)
 Number     Number              X              Y              Z
 -------------------------------------------------------------------
      1        7          -0.808407428    2.061261029   -0.417419081
      2        6          11.257287439    0.926801721   -0.187213385
      3        6           0.739142438   -1.929493487    0.391057483
      4        6         -11.435006011   -0.969871751    0.196063135
      5       16           0.022867670    0.087682312   -0.024796722
      6        6          -0.027203367    0.171082237   -0.027776859
      7        6           0.289217082   -0.064200623   -0.022201054
      8        6          -0.215432772    0.025901931   -0.011549256
      9        6           0.324234251    0.080913155    0.019258147
     10        6          -0.133289497   -0.062826318    0.015054983
     11        6          -0.337364005    1.857998826   -0.375903704
     12        6           0.011595970    0.032315284    0.000297577
     13        6           1.184273647   -1.756647116    0.356958934
     14        6           0.066104358   -0.006557120   -0.003969676
     15        6          -0.051097059    0.033147618   -0.007207130
     16        1          -0.045351340    0.086613150   -0.017696627
     17        1          -0.041142825   -0.089963325    0.018157972
     18        1           0.023270615   -0.038993265    0.008629468
     19        1          -0.251319674   -0.240613737    0.045598583
     20        1           0.107160255    0.030598427    0.027738265
     21        1          -0.074904297   -0.191686413    0.038470654
     22        1           0.049537778   -0.003281082   -0.034592954
     23        1          -0.046599062   -0.021648063    0.004720833
     24        1           0.008645213    0.074550806   -0.012253164
     25        1          -0.023212630    0.012707575   -0.008737456
     26        1          -0.053310119   -0.001595536    0.000258044
     27        1          -0.655269069   -0.116638611    0.023174847
     28        1           0.115572439    0.012442377    0.005878143
 -------------------------------------------------------------------
 Cartesian Forces:  Max    11.435006011 RMS     1.819779785

 GradGradGradGradGradGradGradGradGradGradGradGradGradGradGradGradGradGrad
 Berny optimization.
 FormGI is forming the generalized inverse of G from B-inverse, IUseBI=4.
 Internal  Forces:  Max    10.150255580 RMS     0.826262318
 Search for a local minimum.
 Step number   1 out of a maximum of  168
 All quantities printed in internal units (Hartrees-Bohrs-Radians)
 Mixed Optimization -- RFO/linear search
 Second derivative matrix not updated -- first step.
 ITU=  0
     Eigenvalues ---    0.00230   0.00232   0.00232   0.00235   0.00240
     Eigenvalues ---    0.00283   0.00325   0.00475   0.00669   0.00794
     Eigenvalues ---    0.00829   0.00931   0.00952   0.01380   0.01670
     Eigenvalues ---    0.01753   0.02200   0.02407   0.02806   0.03372
     Eigenvalues ---    0.04363   0.04483   0.05318   0.05568   0.07736
     Eigenvalues ---    0.07985   0.08084   0.08375   0.08982   0.08982
     Eigenvalues ---    0.10195   0.10579   0.12005   0.13475   0.13661
     Eigenvalues ---    0.15458   0.16000   0.16000   0.16000   0.16000
     Eigenvalues ---    0.16000   0.16000   0.16000   0.16832   0.18148
     Eigenvalues ---    0.18604   0.19812   0.20575   0.21282   0.21671
     Eigenvalues ---    0.22000   0.22449   0.22599   0.22711   0.22750
     Eigenvalues ---    0.23264   0.23558   0.23705   0.25000   0.26845
     Eigenvalues ---    0.27830   0.28433   0.31185   0.32375   0.33290
     Eigenvalues ---    0.35778   0.37511   0.40232   0.54023   0.68083
     Eigenvalues ---    0.72993   0.78491   0.91500   1.08571   1.30523
     Eigenvalues ---    3.98403  12.39300  15.32736
 RFO step:  Lambda=-6.08190371D+00 EMin= 2.30000001D-03
 Linear search not attempted -- first point.
 Maximum step size (   0.300) exceeded in Quadratic search.
    -- Step size scaled by   0.537
 Iteration  1 RMS(Cart)=  0.04283269 RMS(Int)=  0.00384942
 Iteration  2 RMS(Cart)=  0.00648235 RMS(Int)=  0.00010925
 Iteration  3 RMS(Cart)=  0.00001938 RMS(Int)=  0.00010859
 Iteration  4 RMS(Cart)=  0.00000000 RMS(Int)=  0.00010859
 Variable       Old X    -DE/DX   Delta X   Delta X   Delta X     New X
                                 (Linear)    (Quad)   (Total)
    R1        1.60415   2.28239   0.00000   0.06638   0.06638   1.67052
    R2        3.13959   0.06535   0.00000   0.00570   0.00570   3.14529
    R3        3.14362   0.01893   0.00000   0.00165   0.00165   3.14527
    R4        1.00452  10.15026   0.00000   0.25473   0.25470   1.25922
    R5        3.85466   0.09323   0.00000   0.00806   0.00806   3.86271
    R6        3.20868   0.10674   0.00000   0.00800   0.00720   3.21588
    R7        1.68631   0.11441   0.00000   0.00902   0.00902   1.69533
    R8        2.56011   0.13029   0.00000   0.01057   0.01057   2.57068
    R9        2.17901   0.01284   0.00000   0.00108   0.00108   2.18010
   R10        3.20671   0.48328   0.00000   0.01698   0.01779   3.22449
   R11        2.18431   0.44745   0.00000   0.03254   0.03254   2.21686
   R12        1.58949   0.34810   0.00000   0.02673   0.02673   1.61622
   R13        2.66421   0.05526   0.00000   0.00471   0.00471   2.66891
   R14        2.78497   0.16856   0.00000   0.01364   0.01364   2.79861
   R15        2.21026   0.30179   0.00000   0.02262   0.02262   2.23289
   R16        1.71764   0.20515   0.00000   0.01630   0.01630   1.73394
   R17        3.04295  -0.01880   0.00000  -0.00194  -0.00193   3.04102
   R18        2.90562   0.09215   0.00000   0.00826   0.00826   2.91388
   R19        3.24529   0.04296   0.00000   0.00362   0.00362   3.24891
   R20        3.19377   0.16587   0.00000   0.01029   0.01028   3.20405
   R21        2.01782   0.03468   0.00000   0.00289   0.00289   2.02071
   R22        2.32320   0.09769   0.00000   0.00796   0.00798   2.33118
   R23        1.69071   0.97985   0.00000   0.05220   0.05233   1.74304
   R24        3.02038  -0.03880   0.00000  -0.00128  -0.00130   3.01908
   R25        2.00190   0.05577   0.00000   0.00380   0.00382   2.00572
   R26        2.11023   0.56448   0.00000   0.03357   0.03338   2.14361
   R27        2.73293  -0.10681   0.00000  -0.00385  -0.00390   2.72903
   R28        2.12361  -0.02430   0.00000  -0.00204  -0.00204   2.12157
   R29        2.35731   0.14650   0.00000   0.00622   0.00627   2.36358
   R30        3.20995  -0.26013   0.00000  -0.01596  -0.01598   3.19397
   R31        1.42872   0.42171   0.00000   0.03139   0.03154   1.46026
   R32        2.38702  -0.01859   0.00000  -0.00159  -0.00159   2.38543
   R33        2.19211  -0.02011   0.00000  -0.00170  -0.00170   2.19041
   R34        2.10785  -0.09551   0.00000  -0.00825  -0.00825   2.09960
   R35        3.47032   0.34646   0.00000   0.01936   0.01938   3.48969
    A1        1.83447   0.01105   0.00000   0.00096   0.00096   1.83543
    A2        2.51868  -0.03075   0.00000  -0.00266  -0.00266   2.51603
    A3        1.99809   0.58099   0.00000   0.01366   0.01399   2.01208
    A4        2.87346   0.61623   0.00000   0.01659   0.01692   2.89038
    A5        1.30025   0.00066   0.00000   0.00012   0.00012   1.30037
    A6        1.57321   0.61556   0.00000   0.01647   0.01680   1.59001
    A7        1.94117   0.06683   0.00000   0.00570   0.00570   1.94687
    A8        1.98577   0.01496   0.00000   0.00131   0.00131   1.98709
    A9        2.35624  -0.08179   0.00000  -0.00701  -0.00701   2.34922
   A10        1.78357   1.03512   0.00000   0.02802   0.02766   1.81123
   A11        1.45936  -1.40989   0.00000  -0.02446  -0.02443   1.43493
   A12        2.54733   1.50488   0.00000   0.03253   0.03250   2.57983
   A13        1.77382   1.76505   0.00000   0.05471   0.05468   1.82850
   A14        2.23288  -1.67006   0.00000  -0.04664  -0.04661   2.18627
   A15        2.27649  -0.09500   0.00000  -0.00807  -0.00807   2.26842
   A16        2.02562  -0.11927   0.00000  -0.00997  -0.00997   2.01565
   A17        2.68914   0.12922   0.00000   0.01112   0.01112   2.70026
   A18        1.56843  -0.00995   0.00000  -0.00115  -0.00115   1.56728
   A19        1.81033  -0.01329   0.00000  -0.00065  -0.00065   1.80968
   A20        2.48841  -0.02925   0.00000  -0.00276  -0.00276   2.48564
   A21        1.98445   0.04254   0.00000   0.00342   0.00341   1.98786
   A22        2.08682  -0.04562   0.00000  -0.00327  -0.00326   2.08356
   A23        1.52908  -0.03074   0.00000  -0.00230  -0.00230   1.52678
   A24        2.66728   0.07636   0.00000   0.00557   0.00556   2.67285
   A25        1.53461   0.02453   0.00000   0.00269   0.00270   1.53731
   A26        2.08341  -0.04120   0.00000  -0.00310  -0.00310   2.08031
   A27        2.33354   0.04061   0.00000   0.00123   0.00121   2.33474
   A28        1.36537   0.03471   0.00000  -0.00018  -0.00019   1.36518
   A29        1.86624   0.00059   0.00000   0.00188   0.00189   1.86813
   A30        2.23165  -0.01800   0.00000   0.00073   0.00066   2.23231
   A31        1.68429  -0.15930   0.00000  -0.00949  -0.00943   1.67486
   A32        2.36724   0.17730   0.00000   0.00876   0.00877   2.37601
   A33        1.49185  -0.01250   0.00000  -0.00302  -0.00301   1.48884
   A34        2.42410  -0.16479   0.00000  -0.00574  -0.00577   2.41833
   A35        2.18091  -0.08735   0.00000  -0.00593  -0.00594   2.17497
   A36        2.73091   0.11333   0.00000   0.00816   0.00818   2.73909
   A37        2.51819  -0.20216   0.00000  -0.01476  -0.01471   2.50349
   A38        2.03580  -0.04397   0.00000  -0.00052  -0.00063   2.03517
   A39        1.72919   0.24612   0.00000   0.01527   0.01534   1.74453
   A40        2.76918   0.40676   0.00000   0.02150   0.02133   2.79051
   A41        2.37238   0.07146   0.00000   0.00509   0.00506   2.37744
   A42        1.43976   0.03207   0.00000   0.00289   0.00289   1.44265
   A43        1.33162   0.12920   0.00000   0.00938   0.00933   1.34095
   A44        2.48052  -0.02566   0.00000  -0.00140  -0.00138   2.47914
   A45        2.47105  -0.10354   0.00000  -0.00798  -0.00795   2.46310
   A46        1.37535   0.05398   0.00000   0.00410   0.00410   1.37945
   A47        1.64832   0.09145   0.00000   0.00830   0.00830   1.65662
   A48        1.71371   0.05545   0.00000   0.00223   0.00229   1.71599
   A49        0.84938   0.14782   0.00000   0.00778   0.00778   0.85716
   A50        2.09435  -0.15140   0.00000  -0.00618  -0.00613   2.08822
   A51        1.71365   0.14442   0.00000   0.00927   0.00921   1.72285
   A52        2.47519   0.00698   0.00000  -0.00309  -0.00308   2.47211
   A53        3.29834   0.58166   0.00000   0.01378   0.01411   3.31245
   A54        3.19907  -0.94260   0.00000  -0.02091  -0.02054   3.17853
   A55        3.06369  -0.00621   0.00000   0.00039   0.00040   3.06409
   A56        3.23161   0.03529   0.00000   0.00170   0.00169   3.23331
   A57        3.02366   0.14543   0.00000   0.01240   0.01240   3.03607
   A58        3.26526  -0.21690   0.00000  -0.01105  -0.01091   3.25435
   A59        3.14156  -0.00415   0.00000  -0.00036  -0.00037   3.14119
   A60        3.14162  -0.00167   0.00000  -0.00015  -0.00014   3.14147
   A61        3.14160   0.01745   0.00000   0.00154   0.00154   3.14315
   A62        3.14158   0.00664   0.00000   0.00059   0.00059   3.14217
   A63        3.14159  -0.02503   0.00000  -0.00221  -0.00221   3.13938
   A64        3.14158  -0.00194   0.00000  -0.00017  -0.00017   3.14142
    D1       -3.14159   0.00009   0.00000   0.00001   0.00001  -3.14159
    D2        0.00000  -0.00036   0.00000  -0.00003  -0.00003  -0.00003
    D3        3.14159   0.00011   0.00000   0.00001   0.00001  -3.14159
    D4        0.00000  -0.00034   0.00000  -0.00003  -0.00003  -0.00003
    D5        0.00001  -0.00090   0.00000  -0.00008  -0.00008  -0.00007
    D6        3.14159   0.00026   0.00000   0.00003   0.00003  -3.14156
    D7       -0.00002   0.00186   0.00000   0.00017   0.00017   0.00014
    D8        3.14156   0.00511   0.00000   0.00045   0.00045  -3.14117
    D9       -0.00000  -0.00642   0.00000  -0.00057  -0.00056  -0.00057
   D10        3.14159  -0.00317   0.00000  -0.00028  -0.00028   3.14131
   D11       -3.14159  -0.00032   0.00000  -0.00003  -0.00003   3.14156
   D12        0.00000   0.00026   0.00000   0.00002   0.00001   0.00001
   D13       -3.14159  -0.00060   0.00000  -0.00005  -0.00005   3.14154
   D14       -0.00001   0.00233   0.00000   0.00021   0.00020   0.00019
   D15       -3.14158  -0.00151   0.00000  -0.00014  -0.00014   3.14146
   D16       -0.00002   0.00726   0.00000   0.00064   0.00063   0.00061
   D17       -3.14159  -0.00089   0.00000  -0.00008  -0.00007   3.14153
   D18       -0.00003   0.00788   0.00000   0.00070   0.00070   0.00067
   D19        0.00002  -0.00391   0.00000  -0.00034  -0.00034  -0.00033
   D20        3.14158   0.00486   0.00000   0.00043   0.00043  -3.14118
   D21        3.14159  -0.00026   0.00000  -0.00002  -0.00003   3.14156
   D22       -0.00002  -0.00197   0.00000  -0.00017  -0.00018  -0.00020
   D23        0.00001  -0.00410   0.00000  -0.00036  -0.00036  -0.00035
   D24        3.14159  -0.00581   0.00000  -0.00051  -0.00051   3.14108
   D25       -3.14157  -0.00511   0.00000  -0.00045  -0.00045   3.14116
   D26        0.00002   0.01991   0.00000   0.00176   0.00176   0.00178
   D27       -0.00001   0.00277   0.00000   0.00024   0.00024   0.00024
   D28        3.14159   0.02779   0.00000   0.00245   0.00245  -3.13914
   D29       -3.14159   0.00413   0.00000   0.00036   0.00036  -3.14123
   D30       -0.00001   0.00352   0.00000   0.00031   0.00031   0.00030
   D31        0.00002   0.00526   0.00000   0.00046   0.00046   0.00048
   D32       -3.14159   0.00465   0.00000   0.00041   0.00041  -3.14118
   D33        3.14158  -0.00157   0.00000  -0.00014  -0.00013   3.14145
   D34       -0.00000  -0.00919   0.00000  -0.00081  -0.00082  -0.00082
   D35       -0.00000  -0.00715   0.00000  -0.00063  -0.00063  -0.00063
   D36       -3.14159  -0.01478   0.00000  -0.00131  -0.00131   3.14029
   D37       -0.00002  -0.01145   0.00000  -0.00101  -0.00101  -0.00103
   D38       -3.14159  -0.01174   0.00000  -0.00104  -0.00104   3.14057
   D39       -3.14158  -0.01010   0.00000  -0.00089  -0.00089   3.14071
   D40        0.00004  -0.01040   0.00000  -0.00092  -0.00092  -0.00088
   D41        3.14159  -0.01485   0.00000  -0.00131  -0.00131   3.14028
   D42        0.00001  -0.01586   0.00000  -0.00140  -0.00140  -0.00139
   D43        0.00001  -0.00334   0.00000  -0.00029  -0.00029  -0.00028
   D44        3.14157  -0.00451   0.00000  -0.00040  -0.00039   3.14118
   D45        3.14159  -0.02079   0.00000  -0.00183  -0.00184   3.13976
   D46       -3.14158  -0.00147   0.00000  -0.00013  -0.00013   3.14148
   D47       -3.14156   0.00387   0.00000   0.00034   0.00035  -3.14122
   D48        0.00004  -0.00295   0.00000  -0.00026  -0.00026  -0.00022
   D49        0.00001   0.00085   0.00000   0.00007   0.00007   0.00008
   D50       -3.14158  -0.00675   0.00000  -0.00060  -0.00060   3.14100
   D51       -0.00003  -0.00773   0.00000  -0.00068  -0.00068  -0.00071
   D52        3.14158  -0.00515   0.00000  -0.00045  -0.00046   3.14112
   D53       -0.00001  -0.00135   0.00000  -0.00012  -0.00012  -0.00013
   D54       -3.14159   0.00122   0.00000   0.00011   0.00011  -3.14148
   D55        3.14159  -0.00800   0.00000  -0.00071  -0.00071   3.14089
   D56        0.00001  -0.00542   0.00000  -0.00048  -0.00048  -0.00047
   D57        0.00001   0.00112   0.00000   0.00010   0.00010   0.00011
   D58        3.14159  -0.00101   0.00000  -0.00009  -0.00009   3.14150
   D59       -3.14159   0.00216   0.00000   0.00019   0.00019  -3.14140
   D60       -0.00001   0.00002   0.00000   0.00000   0.00000  -0.00001
   D61        0.00001   0.00551   0.00000   0.00049   0.00049   0.00049
   D62       -0.00001  -0.00038   0.00000  -0.00003  -0.00003  -0.00004
   D63        3.14158   0.00713   0.00000   0.00063   0.00063  -3.14098
   D64       -3.14158   0.00405   0.00000   0.00036   0.00036  -3.14122
   D65        3.14159  -0.00184   0.00000  -0.00016  -0.00016   3.14143
   D66       -0.00000   0.00566   0.00000   0.00050   0.00050   0.00049
   D67        0.00001   0.00498   0.00000   0.00044   0.00044   0.00045
   D68       -0.00001  -0.00091   0.00000  -0.00008  -0.00008  -0.00009
   D69        3.14158   0.00659   0.00000   0.00058   0.00058  -3.14102
   D70        0.00001  -0.00002   0.00000  -0.00000  -0.00000   0.00000
   D71       -3.14159   0.00115   0.00000   0.00010   0.00010  -3.14149
   D72        0.00001  -0.00027   0.00000  -0.00002  -0.00003  -0.00001
   D73        0.00001   0.00141   0.00000   0.00012   0.00012   0.00013
   D74        3.14158  -0.00272   0.00000  -0.00024  -0.00024   3.14134
   D75       -3.14159   0.00240   0.00000   0.00021   0.00021  -3.14138
   D76       -0.00002  -0.00173   0.00000  -0.00015  -0.00015  -0.00017
   D77        3.14157  -0.00292   0.00000  -0.00026  -0.00025   3.14132
   D78       -0.00000  -0.00099   0.00000  -0.00009  -0.00009  -0.00009
   D79        3.14157  -0.00341   0.00000  -0.00030  -0.00030   3.14127
   D80       -0.00001   0.00020   0.00000   0.00002   0.00002   0.00001
   D81        0.00001  -0.00002   0.00000  -0.00000  -0.00000   0.00000
   D82        3.14159  -0.00128   0.00000  -0.00011  -0.00011   3.14148
   D83        3.14158  -0.00065   0.00000  -0.00006  -0.00005   3.14153
   D84       -0.00001   0.00001   0.00000   0.00000   0.00000  -0.00000
         Item               Value     Threshold  Converged?
 Maximum Force            ********     0.000450     NO 
 RMS     Force            0.826262     0.000300     NO 
 Maximum Displacement     0.279597     0.001800     NO 
 RMS     Displacement     0.047808     0.001200     NO 
 Predicted change in Energy=-2.663589D+00
 GradGradGradGradGradGradGradGradGradGradGradGradGradGradGradGradGradGrad

                          Input orientation:                          
 ---------------------------------------------------------------------
 Center     Atomic      Atomic             Coordinates (Angstroms)
 Number     Number       Type             X           Y           Z
 ---------------------------------------------------------------------
      1          7           0        2.943150   -0.503424    0.058998
      2          6           0        5.329460   -1.174001    0.196243
      3          6           0        3.306703   -1.293072    0.219453
      4          6           0        4.665497   -1.229313    0.207103
      5         16           0        6.043006    0.703231   -0.184587
      6          6           0        5.150460   -2.832524    0.532812
      7          6           0        6.323024   -2.797390    0.526134
      8          6           0        6.969361   -4.027968    0.776333
      9          6           0        8.118076   -3.756633    0.721635
     10          6           0        9.214070   -4.911397    0.956072
     11          6           0       11.023101   -3.971664    0.763248
     12          6           0       10.618763   -6.143320    1.206650
     13          6           0       11.216567   -4.855327    0.943497
     14          6           0        9.584662   -3.290338    0.625043
     15          6           0        7.642179   -2.137559    0.393107
     16          1           0        1.299782   -0.762148    0.110813
[...]
 Center     Atomic                   Forces (Hartrees/Bohr)
 Number     Number              X              Y              Z
 -------------------------------------------------------------------
      1        7           0.060554666   -0.030282421    0.011137776
      2        6           0.004089657    0.056362444   -0.015960378
      3        6          -0.071590980    0.073977847   -0.022663121
      4        6           0.088095634   -0.031373298    0.026559817
      5       16          -0.020682403   -0.020048245   -0.009016450
      6        6          -0.034067012   -0.050857267   -0.009829872
      7        6           0.003496604    0.008581046    0.009574045
      8        6          -0.007674128    0.015406719   -0.008662303
      9        6           0.097178417   -0.061852163   -0.000224535
     10        6          -0.060469669   -0.107313557    0.022812780
     11        6           0.010627609   -0.006746130    0.002764050
     12        6           0.030222144    0.045704187   -0.001251347
     13        6           0.057120816   -0.057602648    0.009628981
     14        6          -0.029112169    0.076678049   -0.015221212
     15        6          -0.023413958    0.047697895   -0.003122051
     16        1          -0.001145288   -0.005729835    0.001367780
     17        1           0.005514621   -0.001574458    0.000582955
     18        1          -0.000319936   -0.004555794   -0.000839997
     19        1          -0.011236126    0.017362306   -0.007679304
     20        1           0.012004785    0.011990507    0.003895141
     21        1           0.009844566    0.015117485    0.001041641
     22        1           0.006714917    0.000447966   -0.001102425
     23        1           0.016888406    0.013655625   -0.002938135
     24        1           0.001350217    0.033465577   -0.006613000
     25        1          -0.018926455   -0.003613866   -0.000739485
     26        1          -0.002248855   -0.005535416    0.000401691
     27        1          -0.102402369    0.019502841   -0.004156285
     28        1          -0.020413711   -0.048865396    0.020253242
 -------------------------------------------------------------------
 Cartesian Forces:  Max     0.107313557 RMS     0.034507642

 GradGradGradGradGradGradGradGradGradGradGradGradGradGradGradGradGradGrad
 Berny optimization.
 Using GEDIIS/GDIIS optimizer.
 FormGI is forming the generalized inverse of G from B-inverse, IUseBI=4.
 Internal  Forces:  Max     0.075972220 RMS     0.015759257
 Search for a local minimum.
 Step number  11 out of a maximum of  168
 All quantities printed in internal units (Hartrees-Bohrs-Radians)
 Mixed Optimization -- RFO/linear search
 Update second derivatives using D2CorX and points   10   11
 DE= -1.10D-01 DEPred=-1.10D-01 R= 1.01D+00
 TightC=F SS=  1.41D+00  RLast= 5.72D-01 DXNew= 2.4000D+00 1.7151D+00
 Trust test= 1.01D+00 RLast= 5.72D-01 DXMaxT set to 1.72D+00
 ITU=  1  0  1  1  0  0  0  0  0  1  0
 Use linear search instead of GDIIS.
     Eigenvalues ---    0.00230   0.00231   0.00237   0.00238   0.00244
     Eigenvalues ---    0.00247   0.00275   0.00297   0.00387   0.00691
     Eigenvalues ---    0.00771   0.00791   0.00963   0.01329   0.01703
     Eigenvalues ---    0.01810   0.02216   0.02556   0.03349   0.03408
     Eigenvalues ---    0.03593   0.04545   0.05183   0.05359   0.06611
     Eigenvalues ---    0.07662   0.08013   0.08752   0.08983   0.09033
     Eigenvalues ---    0.09657   0.09949   0.10666   0.10815   0.11836
     Eigenvalues ---    0.12670   0.13800   0.14448   0.15411   0.15854
     Eigenvalues ---    0.15916   0.15948   0.16143   0.16346   0.17050
     Eigenvalues ---    0.17698   0.18301   0.18696   0.19055   0.19784
     Eigenvalues ---    0.20721   0.21380   0.21982   0.22156   0.22966
     Eigenvalues ---    0.23415   0.24781   0.25252   0.27039   0.27754
     Eigenvalues ---    0.28967   0.31086   0.31663   0.33626   0.36588
     Eigenvalues ---    0.37293   0.40131   0.46810   0.55484   0.69042
     Eigenvalues ---    0.74475   0.83768   0.94291   1.09397   1.41504
     Eigenvalues ---    3.00104   4.71156   8.87681
 RFO step:  Lambda=-1.80154858D-01 EMin= 2.30045077D-03
 Quartic linear search produced a step of  1.31731.
 Iteration  1 RMS(Cart)=  0.02504456 RMS(Int)=  0.33774730
 Iteration  2 RMS(Cart)=  0.01043215 RMS(Int)=  0.33604621
 Iteration  3 RMS(Cart)=  0.01001711 RMS(Int)=  0.33441607
 Iteration  4 RMS(Cart)=  0.00960643 RMS(Int)=  0.52113132
 Iteration  5 RMS(Cart)=  0.03009290 RMS(Int)=  0.51711697
 Iteration  6 RMS(Cart)=  0.02495779 RMS(Int)=  0.51355784
 Iteration  7 RMS(Cart)=  0.02093846 RMS(Int)=  0.51004264
 Iteration  8 RMS(Cart)=  0.01757000 RMS(Int)=  0.50477978
 Iteration  9 RMS(Cart)=  0.00376540 RMS(Int)=  0.50376040
 New curvilinear step failed, DQL= 4.48D+00 SP=-2.42D-01.
 ITry= 1 IFail=1 DXMaxC= 8.33D-01 DCOld= 1.00D+10 DXMaxT= 1.72D+00 DXLimC= 3.00D+00 Rises=F
 Iteration  1 RMS(Cart)=  0.02498138 RMS(Int)=  0.33682598
 Iteration  2 RMS(Cart)=  0.01016340 RMS(Int)=  0.33519818
 Iteration  3 RMS(Cart)=  0.00974487 RMS(Int)=  0.33364194
 Iteration  4 RMS(Cart)=  0.00936969 RMS(Int)=  0.33214863
 Iteration  5 RMS(Cart)=  0.00902668 RMS(Int)=  0.51989884
 Iteration  6 RMS(Cart)=  0.02745098 RMS(Int)=  0.51613980
 Iteration  7 RMS(Cart)=  0.02249332 RMS(Int)=  0.51274194
 Iteration  8 RMS(Cart)=  0.01866585 RMS(Int)=  0.50906022
 Iteration  9 RMS(Cart)=  0.01565853 RMS(Int)=  0.50104392
 New curvilinear step failed, DQL= 4.48D+00 SP=-2.61D-01.
 ITry= 2 IFail=1 DXMaxC= 8.12D-01 DCOld= 1.00D+10 DXMaxT= 1.72D+00 DXLimC= 3.00D+00 Rises=F
 Iteration  1 RMS(Cart)=  0.02492688 RMS(Int)=  0.33597821
 Iteration  2 RMS(Cart)=  0.00989497 RMS(Int)=  0.33442723
 Iteration  3 RMS(Cart)=  0.00950596 RMS(Int)=  0.33294055
 Iteration  4 RMS(Cart)=  0.00912444 RMS(Int)=  0.33151368
 Iteration  5 RMS(Cart)=  0.00876419 RMS(Int)=  0.51959925
 Iteration  6 RMS(Cart)=  0.02593110 RMS(Int)=  0.51606021
 Iteration  7 RMS(Cart)=  0.02118825 RMS(Int)=  0.51281289
 Iteration  8 RMS(Cart)=  0.01744710 RMS(Int)=  0.50935192
 Iteration  9 RMS(Cart)=  0.01474550 RMS(Int)=  0.50123200
 New curvilinear step failed, DQL= 4.47D+00 SP=-2.78D-01.
 ITry= 3 IFail=1 DXMaxC= 7.86D-01 DCOld= 1.00D+10 DXMaxT= 1.72D+00 DXLimC= 3.00D+00 Rises=F
 Iteration  1 RMS(Cart)=  0.02489850 RMS(Int)=  0.33520765
 Iteration  2 RMS(Cart)=  0.00962812 RMS(Int)=  0.33372678
 Iteration  3 RMS(Cart)=  0.00923498 RMS(Int)=  0.33230677
 Iteration  4 RMS(Cart)=  0.00880781 RMS(Int)=  0.33094503
 Iteration  5 RMS(Cart)=  0.00834645 RMS(Int)=  0.32963880
 Iteration  6 RMS(Cart)=  0.00793211 RMS(Int)=  0.51859495
 Iteration  7 RMS(Cart)=  0.02286173 RMS(Int)=  0.51529704
 Iteration  8 RMS(Cart)=  0.01856842 RMS(Int)=  0.51214936
 Iteration  9 RMS(Cart)=  0.01559589 RMS(Int)=  0.50819637
 Iteration 10 RMS(Cart)=  0.01339138 RMS(Int)=  0.40023807
 Iteration 11 RMS(Cart)=  0.00655062 RMS(Int)=  0.51087506
 Iteration 12 RMS(Cart)=  0.01175199 RMS(Int)=  0.50779028
 Iteration 13 RMS(Cart)=  0.01042300 RMS(Int)=  0.50470804
 Iteration 14 RMS(Cart)=  0.00933295 RMS(Int)=  0.50149908
 Iteration 15 RMS(Cart)=  0.00841947 RMS(Int)=  0.49758910
 Iteration 16 RMS(Cart)=  0.00764155 RMS(Int)=  0.38927480
 Iteration 17 RMS(Cart)=  0.00080589 RMS(Int)=  0.49868532
 Iteration 18 RMS(Cart)=  0.00695726 RMS(Int)=  0.38685292
 Iteration 19 RMS(Cart)=  0.00169488 RMS(Int)=  0.50475054
 Iteration 20 RMS(Cart)=  0.00634834 RMS(Int)=  0.50161696
 Iteration 21 RMS(Cart)=  0.00580731 RMS(Int)=  0.49740552
 Iteration 22 RMS(Cart)=  0.00532784 RMS(Int)=  0.38085128
 Iteration 23 RMS(Cart)=  0.00226756 RMS(Int)=  0.49666657
 Iteration 24 RMS(Cart)=  0.00487091 RMS(Int)=  0.49388172
 Iteration 25 RMS(Cart)=  0.00447602 RMS(Int)=  0.49094643
 Iteration 26 RMS(Cart)=  0.00412375 RMS(Int)=  0.48744681
 Iteration 27 RMS(Cart)=  0.00380723 RMS(Int)=  0.37263938
 Iteration 28 RMS(Cart)=  0.00120139 RMS(Int)=  0.49241706
 Iteration 29 RMS(Cart)=  0.00351097 RMS(Int)=  0.48955708
 Iteration 30 RMS(Cart)=  0.00324359 RMS(Int)=  0.48631838
 Iteration 31 RMS(Cart)=  0.00300279 RMS(Int)=  0.47737830
 Iteration 32 RMS(Cart)=  0.00278487 RMS(Int)=  0.36545000
 Iteration 33 RMS(Cart)=  0.00020786 RMS(Int)=  0.36523180
 Iteration 34 RMS(Cart)=  0.00020853 RMS(Int)=  0.47673622
 Iteration 35 RMS(Cart)=  0.00257991 RMS(Int)=  0.36313377
 Iteration 36 RMS(Cart)=  0.00019641 RMS(Int)=  0.47723013
 Iteration 37 RMS(Cart)=  0.00239458 RMS(Int)=  0.36114217
 Iteration 38 RMS(Cart)=  0.00018576 RMS(Int)=  0.47650661
 Iteration 39 RMS(Cart)=  0.00222423 RMS(Int)=  0.35918790
 Iteration 40 RMS(Cart)=  0.00017541 RMS(Int)=  0.47516086
 Iteration 41 RMS(Cart)=  0.00206811 RMS(Int)=  0.35726216
 Iteration 42 RMS(Cart)=  0.00161528 RMS(Int)=  0.47282025
 Iteration 43 RMS(Cart)=  0.00191189 RMS(Int)=  0.47016339
 Iteration 44 RMS(Cart)=  0.00177201 RMS(Int)=  0.46746513
 Iteration 45 RMS(Cart)=  0.00164558 RMS(Int)=  0.46467639
 Iteration 46 RMS(Cart)=  0.00153085 RMS(Int)=  0.46165895
 Iteration 47 RMS(Cart)=  0.00142677 RMS(Int)=  0.45755937
 Iteration 48 RMS(Cart)=  0.00133143 RMS(Int)=  0.34553319
 Iteration 49 RMS(Cart)=  0.00011791 RMS(Int)=  0.45724230
 Iteration 50 RMS(Cart)=  0.00124379 RMS(Int)=  0.34353340
 Iteration 51 RMS(Cart)=  0.00011447 RMS(Int)=  0.45574881
 Iteration 52 RMS(Cart)=  0.00116296 RMS(Int)=  0.34161611
 Iteration 53 RMS(Cart)=  0.00011055 RMS(Int)=  0.34133900
 Iteration 54 RMS(Cart)=  0.00011229 RMS(Int)=  0.45527440
 Iteration 55 RMS(Cart)=  0.00108826 RMS(Int)=  0.33910503
 Iteration 56 RMS(Cart)=  0.00011011 RMS(Int)=  0.45621710
 Iteration 57 RMS(Cart)=  0.00101895 RMS(Int)=  0.33701153
 Iteration 58 RMS(Cart)=  0.00010842 RMS(Int)=  0.45590844
 Iteration 59 RMS(Cart)=  0.00095537 RMS(Int)=  0.33496162
 Iteration 60 RMS(Cart)=  0.00010698 RMS(Int)=  0.45511780
 Iteration 61 RMS(Cart)=  0.00089705 RMS(Int)=  0.33292924
 Iteration 62 RMS(Cart)=  0.00010536 RMS(Int)=  0.45407850
 Iteration 63 RMS(Cart)=  0.00084339 RMS(Int)=  0.33090369
 Iteration 64 RMS(Cart)=  0.00010453 RMS(Int)=  0.45290347
 Iteration 65 RMS(Cart)=  0.00079179 RMS(Int)=  0.32887823
 Iteration 66 RMS(Cart)=  0.00010316 RMS(Int)=  0.45167963
 Iteration 67 RMS(Cart)=  0.00074904 RMS(Int)=  0.32684441
 Iteration 68 RMS(Cart)=  0.00010241 RMS(Int)=  0.45045740
 Iteration 69 RMS(Cart)=  0.00070466 RMS(Int)=  0.32480304
 Iteration 70 RMS(Cart)=  0.00010208 RMS(Int)=  0.44929368
 Iteration 71 RMS(Cart)=  0.00066748 RMS(Int)=  0.32274521
 Iteration 72 RMS(Cart)=  0.00010207 RMS(Int)=  0.44824150
 Iteration 73 RMS(Cart)=  0.00063140 RMS(Int)=  0.32066722
 Iteration 74 RMS(Cart)=  0.00010250 RMS(Int)=  0.44736742
 Iteration 75 RMS(Cart)=  0.00059814 RMS(Int)=  0.31856280
 Iteration 76 RMS(Cart)=  0.00010341 RMS(Int)=  0.44677912
 Iteration 77 RMS(Cart)=  0.00056738 RMS(Int)=  0.31642278
 Iteration 78 RMS(Cart)=  0.00010502 RMS(Int)=  0.44669861
 Iteration 79 RMS(Cart)=  0.00053886 RMS(Int)=  0.31423107
 Iteration 80 RMS(Cart)=  0.00010779 RMS(Int)=  0.44777646
 Iteration 81 RMS(Cart)=  0.00051245 RMS(Int)=  0.31202404
 Iteration 82 RMS(Cart)=  0.00011243 RMS(Int)=  0.45116184
 Iteration 83 RMS(Cart)=  0.00048760 RMS(Int)=  0.44112535
 Iteration 84 RMS(Cart)=  0.00047331 RMS(Int)=  0.30835801
 Iteration 85 RMS(Cart)=  0.00011171 RMS(Int)=  0.43969392
 Iteration 86 RMS(Cart)=  0.00044116 RMS(Int)=  0.30618918
 Iteration 87 RMS(Cart)=  0.00011390 RMS(Int)=  0.43925107
 Iteration 88 RMS(Cart)=  0.00042306 RMS(Int)=  0.30382933
 Iteration 89 RMS(Cart)=  0.00011807 RMS(Int)=  0.44349915
 Iteration 90 RMS(Cart)=  0.00040678 RMS(Int)=  0.43533056
 Iteration 91 RMS(Cart)=  0.00038056 RMS(Int)=  0.30006834
 Iteration 92 RMS(Cart)=  0.00012107 RMS(Int)=  0.43401568
 Iteration 93 RMS(Cart)=  0.00037367 RMS(Int)=  0.29777100
 Iteration 94 RMS(Cart)=  0.00012527 RMS(Int)=  0.43484981
 Iteration 95 RMS(Cart)=  0.00036094 RMS(Int)=  0.42400178
 Iteration 96 RMS(Cart)=  0.00034462 RMS(Int)=  0.29442464
 Iteration 97 RMS(Cart)=  0.00012838 RMS(Int)=  0.42243592
 Iteration 98 RMS(Cart)=  0.00033476 RMS(Int)=  0.29200523
 Iteration 99 RMS(Cart)=  0.00013501 RMS(Int)=  0.42290951
 Iteration100 RMS(Cart)=  0.00032522 RMS(Int)=  0.41353909
 New curvilinear step not converged.
 ITry= 4 IFail=1 DXMaxC= 1.62D+00 DCOld= 1.00D+10 DXMaxT= 1.72D+00 DXLimC= 3.00D+00 Rises=F
 Iteration  1 RMS(Cart)=  0.02476614 RMS(Int)=  0.33451633
 Iteration  2 RMS(Cart)=  0.00932300 RMS(Int)=  0.33310529
 Iteration  3 RMS(Cart)=  0.00882809 RMS(Int)=  0.33175682
 Iteration  4 RMS(Cart)=  0.00836589 RMS(Int)=  0.33046353
 Iteration  5 RMS(Cart)=  0.00793735 RMS(Int)=  0.32922011
 Iteration  6 RMS(Cart)=  0.00757521 RMS(Int)=  0.32801539
 Iteration  7 RMS(Cart)=  0.00714154 RMS(Int)=  0.51772811
 Iteration  8 RMS(Cart)=  0.01984727 RMS(Int)=  0.51462228
 Iteration  9 RMS(Cart)=  0.01644288 RMS(Int)=  0.51139465
 Iteration 10 RMS(Cart)=  0.01387415 RMS(Int)=  0.50572048
 Iteration 11 RMS(Cart)=  0.01220846 RMS(Int)=  0.39940583
 Iteration 12 RMS(Cart)=  0.00189173 RMS(Int)=  0.50448256
 Iteration 13 RMS(Cart)=  0.01085097 RMS(Int)=  0.48825790
 New curvilinear step failed, DQL= 4.45D+00 SP=-3.54D-01.
 ITry= 5 IFail=1 DXMaxC= 8.41D-01 DCOld= 1.00D+10 DXMaxT= 1.72D+00 DXLimC= 3.00D+00 Rises=F
 SLEqS3 Cycle:   841 Max:0.644809E-04 RMS:0.103087E-04 Conv:0.164627E-05
 SLEqS3 Cycle:   841 Max:0.644809E-04 RMS:0.103087E-04 Conv:0.164627E-05
 Iteration  1 RMS(Cart)=  0.02453964 RMS(Int)=  0.33390080
 Iteration  2 RMS(Cart)=  0.00881936 RMS(Int)=  0.33257248
 Iteration  3 RMS(Cart)=  0.00836775 RMS(Int)=  0.33129411
 Iteration  4 RMS(Cart)=  0.00795386 RMS(Int)=  0.33006117
 Iteration  5 RMS(Cart)=  0.00754014 RMS(Int)=  0.32887392
 Iteration  6 RMS(Cart)=  0.00711924 RMS(Int)=  0.32772532
 Iteration  7 RMS(Cart)=  0.00671877 RMS(Int)=  0.32661247
 Iteration  8 RMS(Cart)=  0.00635596 RMS(Int)=  0.51697289
 Iteration  9 RMS(Cart)=  0.01736106 RMS(Int)=  0.51392559
 Iteration 10 RMS(Cart)=  0.01469101 RMS(Int)=  0.51013293
 Iteration 11 RMS(Cart)=  0.01271983 RMS(Int)=  0.40204298
 Iteration 12 RMS(Cart)=  0.00463790 RMS(Int)=  0.51462992
 Iteration 13 RMS(Cart)=  0.01109140 RMS(Int)=  0.51158619
 Iteration 14 RMS(Cart)=  0.00989972 RMS(Int)=  0.50839608
 Iteration 15 RMS(Cart)=  0.00890852 RMS(Int)=  0.50448246
 Iteration 16 RMS(Cart)=  0.00806170 RMS(Int)=  0.39361271
 Iteration 17 RMS(Cart)=  0.00408331 RMS(Int)=  0.50510017
 Iteration 18 RMS(Cart)=  0.00726551 RMS(Int)=  0.50232017
 Iteration 19 RMS(Cart)=  0.00660751 RMS(Int)=  0.49948571
 Iteration 20 RMS(Cart)=  0.00603472 RMS(Int)=  0.49646909
 Iteration 21 RMS(Cart)=  0.00553070 RMS(Int)=  0.49257778
 Iteration 22 RMS(Cart)=  0.00508302 RMS(Int)=  0.38365328
 Iteration 23 RMS(Cart)=  0.00418032 RMS(Int)=  0.49153102
 Iteration 24 RMS(Cart)=  0.00459205 RMS(Int)=  0.48889755
 Iteration 25 RMS(Cart)=  0.00421073 RMS(Int)=  0.48625202
 Iteration 26 RMS(Cart)=  0.00387191 RMS(Int)=  0.48356491
 Iteration 27 RMS(Cart)=  0.00356835 RMS(Int)=  0.48077340
 Iteration 28 RMS(Cart)=  0.00329636 RMS(Int)=  0.47767364
 Iteration 29 RMS(Cart)=  0.00304871 RMS(Int)=  0.47170233
 Iteration 30 RMS(Cart)=  0.00283175 RMS(Int)=  0.37069389
 Iteration 31 RMS(Cart)=  0.00019681 RMS(Int)=  0.37050889
 Iteration 32 RMS(Cart)=  0.00019624 RMS(Int)=  0.47068084
 Iteration 33 RMS(Cart)=  0.00260993 RMS(Int)=  0.36850603
 Iteration 34 RMS(Cart)=  0.00018317 RMS(Int)=  0.46888283
 New curvilinear step failed, DQL= 4.45D+00 SP=-5.51D-01.
 ITry= 6 IFail=1 DXMaxC= 1.32D+00 DCOld= 1.00D+10 DXMaxT= 1.72D+00 DXLimC= 3.00D+00 Rises=F
 SLEqS3 Cycle:   841 Max:0.683819E-04 RMS:0.101244E-04 Conv:0.146685E-05
 SLEqS3 Cycle:   841 Max:0.683819E-04 RMS:0.101244E-04 Conv:0.146685E-05
 Iteration  1 RMS(Cart)=  0.02426526 RMS(Int)=  0.33335263
 Iteration  2 RMS(Cart)=  0.00831324 RMS(Int)=  0.33210029
 Iteration  3 RMS(Cart)=  0.00789981 RMS(Int)=  0.33089077
 Iteration  4 RMS(Cart)=  0.00747991 RMS(Int)=  0.32972066
 Iteration  5 RMS(Cart)=  0.00706673 RMS(Int)=  0.32858553
 Iteration  6 RMS(Cart)=  0.00669966 RMS(Int)=  0.32747927
 Iteration  7 RMS(Cart)=  0.00634437 RMS(Int)=  0.32640024
 Iteration  8 RMS(Cart)=  0.00601700 RMS(Int)=  0.32534274
 Iteration  9 RMS(Cart)=  0.00571832 RMS(Int)=  0.32429909
 Iteration 10 RMS(Cart)=  0.00544360 RMS(Int)=  0.51562160
 Iteration 11 RMS(Cart)=  0.01457315 RMS(Int)=  0.51172847
 Iteration 12 RMS(Cart)=  0.01260848 RMS(Int)=  0.40266922
 New curvilinear step failed, DQL= 4.42D+00 SP=-2.01D-02.
 ITry= 7 IFail=1 DXMaxC= 6.44D-01 DCOld= 1.00D+10 DXMaxT= 1.72D+00 DXLimC= 3.00D+00 Rises=F
 SLEqS3 Cycle:   841 Max:0.577397E-04 RMS:0.925325E-05 Conv:0.128742E-05
 SLEqS3 Cycle:   841 Max:0.577397E-04 RMS:0.925325E-05 Conv:0.128742E-05
 Iteration  1 RMS(Cart)=  0.02366248 RMS(Int)=  0.33286614
 Iteration  2 RMS(Cart)=  0.00782818 RMS(Int)=  0.33167891
 Iteration  3 RMS(Cart)=  0.00739106 RMS(Int)=  0.33052802
 Iteration  4 RMS(Cart)=  0.00699455 RMS(Int)=  0.32940780
 Iteration  5 RMS(Cart)=  0.00663994 RMS(Int)=  0.32831142
 Iteration  6 RMS(Cart)=  0.00630726 RMS(Int)=  0.32723484
 Iteration  7 RMS(Cart)=  0.00599865 RMS(Int)=  0.32617214
 Iteration  8 RMS(Cart)=  0.00571390 RMS(Int)=  0.32511598
 Iteration  9 RMS(Cart)=  0.00544754 RMS(Int)=  0.32405499
 Iteration 10 RMS(Cart)=  0.00519496 RMS(Int)=  0.32297118
 Iteration 11 RMS(Cart)=  0.00496072 RMS(Int)=  0.32182286
 Iteration 12 RMS(Cart)=  0.00474479 RMS(Int)=  0.32048529
 Iteration 13 RMS(Cart)=  0.00453855 RMS(Int)=  0.31795983
 Iteration 14 RMS(Cart)=  0.00437077 RMS(Int)=  0.03961148
 Iteration 15 RMS(Cart)=  0.00061708 RMS(Int)=  0.51269550
 Iteration 16 RMS(Cart)=  0.01139466 RMS(Int)=  0.40312866
 New curvilinear step failed, DQL= 4.41D+00 SP=-1.70D-01.
 ITry= 8 IFail=1 DXMaxC= 6.44D-01 DCOld= 1.00D+10 DXMaxT= 1.72D+00 DXLimC= 3.00D+00 Rises=F
 SLEqS3 Cycle:   841 Max:0.609820E-04 RMS:0.926806E-05 Conv:0.110800E-05
 SLEqS3 Cycle:   841 Max:0.609820E-04 RMS:0.926806E-05 Conv:0.110800E-05
 Iteration  1 RMS(Cart)=  0.02304201 RMS(Int)=  0.33241644
 Iteration  2 RMS(Cart)=  0.00728408 RMS(Int)=  0.33127428
 Iteration  3 RMS(Cart)=  0.00690115 RMS(Int)=  0.33015641
 Iteration  4 RMS(Cart)=  0.00655618 RMS(Int)=  0.32905612
 Iteration  5 RMS(Cart)=  0.00623655 RMS(Int)=  0.32796600
 Iteration  6 RMS(Cart)=  0.00594394 RMS(Int)=  0.32687573
 Iteration  7 RMS(Cart)=  0.00567104 RMS(Int)=  0.32577048
 Iteration  8 RMS(Cart)=  0.00541738 RMS(Int)=  0.32462247
 Iteration  9 RMS(Cart)=  0.00518031 RMS(Int)=  0.32336357
 Iteration 10 RMS(Cart)=  0.00495718 RMS(Int)=  0.32170895
 Iteration 11 RMS(Cart)=  0.00474915 RMS(Int)=  0.03985982
 Iteration 12 RMS(Cart)=  0.00044948 RMS(Int)=  0.32891694
 New curvilinear step failed, DQL= 7.01D+00 SP=-2.31D-01.
 ITry= 9 IFail=1 DXMaxC= 4.74D-01 DCOld= 1.00D+10 DXMaxT= 1.72D+00 DXLimC= 3.00D+00 Rises=F
 SLEqS3 Cycle:   841 Max:0.642633E-04 RMS:0.962134E-05 Conv:0.928580E-06
 SLEqS3 Cycle:   841 Max:0.642633E-04 RMS:0.962134E-05 Conv:0.928580E-06
 Iteration  1 RMS(Cart)=  0.02235268 RMS(Int)=  0.33188979
 Iteration  2 RMS(Cart)=  0.00679208 RMS(Int)=  0.33071905
 Iteration  3 RMS(Cart)=  0.00645908 RMS(Int)=  0.32953343
 Iteration  4 RMS(Cart)=  0.00615290 RMS(Int)=  0.32829951
 Iteration  5 RMS(Cart)=  0.00586991 RMS(Int)=  0.32693493
 Iteration  6 RMS(Cart)=  0.00560700 RMS(Int)=  0.32507527
 Iteration  7 RMS(Cart)=  0.00536250 RMS(Int)=  0.04366727
 Iteration  8 RMS(Cart)=  0.00132995 RMS(Int)=  0.32961873
 Iteration  9 RMS(Cart)=  0.00507141 RMS(Int)=  0.32829296
 Iteration 10 RMS(Cart)=  0.00486095 RMS(Int)=  0.32626978
 Iteration 11 RMS(Cart)=  0.00466447 RMS(Int)=  0.03964813
 Iteration 12 RMS(Cart)=  0.00130903 RMS(Int)=  0.32768983
 Iteration 13 RMS(Cart)=  0.00442438 RMS(Int)=  0.32651098
 Iteration 14 RMS(Cart)=  0.00425884 RMS(Int)=  0.32491017
 Iteration 15 RMS(Cart)=  0.00409488 RMS(Int)=  0.03581201
 Iteration 16 RMS(Cart)=  0.00054246 RMS(Int)=  0.33012815
slurmstepd: error: *** JOB 27446563 ON lewis4-r630-hpc4-node224 CANCELLED AT 2023-05-16T12:10:54 DUE TO TIME LIMIT ***
