### Starting Gaussian ###
 Entering Gaussian System, Link 0=g16
 Initial command:
 /cluster/software/gaussian/gaussian-16-A.03/avx2/g16/l1.exe "/local/scratch/linjian/Gau-25889.inp" -scrdir="/local/scratch/linjian/"
 Entering Link 1 = /cluster/software/gaussian/gaussian-16-A.03/avx2/g16/l1.exe PID=     25890.
  
 Copyright (c) 1988,1990,1992,1993,1995,1998,2003,2009,2016,
            Gaussian, Inc.  All Rights Reserved.
  
 This is part of the Gaussian(R) 16 program.  It is based on
 the Gaussian(R) 09 system (copyright 2009, Gaussian, Inc.),
 the Gaussian(R) 03 system (copyright 2003, Gaussian, Inc.),
 the Gaussian(R) 98 system (copyright 1998, Gaussian, Inc.),
 the Gaussian(R) 94 system (copyright 1995, Gaussian, Inc.),
 the Gaussian 92(TM) system (copyright 1992, Gaussian, Inc.),
 the Gaussian 90(TM) system (copyright 1990, Gaussian, Inc.),
 the Gaussian 88(TM) system (copyright 1988, Gaussian, Inc.),
 the Gaussian 86(TM) system (copyright 1986, Carnegie Mellon
 University), and the Gaussian 82(TM) system (copyright 1983,
 Carnegie Mellon University). Gaussian is a federally registered
 trademark of Gaussian, Inc.
  
 This software contains proprietary and confidential information,
 including trade secrets, belonging to Gaussian, Inc.
  
 This software is provided under written license and may be
 used, copied, transmitted, or stored only in accord with that
 written license.
  
 The following legend is applicable only to US Government
 contracts under FAR:
  
                    RESTRICTED RIGHTS LEGEND
  
 Use, reproduction and disclosure by the US Government is
 subject to restrictions as set forth in subparagraphs (a)
 and (c) of the Commercial Computer Software - Restricted
 Rights clause in FAR 52.227-19.
  
 Gaussian, Inc.
 340 Quinnipiac St., Bldg. 40, Wallingford CT 06492
  
  
 ---------------------------------------------------------------
 Warning -- This program may not be used in any manner that
 competes with the business of Gaussian, Inc. or will provide
 assistance to any competitor of Gaussian, Inc.  The licensee
 of this program is prohibited from giving any competitor of
 Gaussian, Inc. access to this program.  By using this program,
 the user acknowledges that Gaussian, Inc. is engaged in the
 business of creating and licensing software in the field of
 computational chemistry and represents and warrants to the
 licensee that it is not a competitor of Gaussian, Inc. and that
 it will not use this program in any manner prohibited above.
 ---------------------------------------------------------------
  

 Cite this work as:
 Gaussian 16, Revision A.03,
 M. J. Frisch, G. W. Trucks, H. B. Schlegel, G. E. Scuseria, 
 M. A. Robb, J. R. Cheeseman, G. Scalmani, V. Barone, 
 G. A. Petersson, H. Nakatsuji, X. Li, M. Caricato, A. V. Marenich, 
 J. Bloino, B. G. Janesko, R. Gomperts, B. Mennucci, H. P. Hratchian, 
 J. V. Ortiz, A. F. Izmaylov, J. L. Sonnenberg, D. Williams-Young, 
 F. Ding, F. Lipparini, F. Egidi, J. Goings, B. Peng, A. Petrone, 
 T. Henderson, D. Ranasinghe, V. G. Zakrzewski, J. Gao, N. Rega, 
 G. Zheng, W. Liang, M. Hada, M. Ehara, K. Toyota, R. Fukuda, 
 J. Hasegawa, M. Ishida, T. Nakajima, Y. Honda, O. Kitao, H. Nakai, 
 T. Vreven, K. Throssell, J. A. Montgomery, Jr., J. E. Peralta, 
 F. Ogliaro, M. J. Bearpark, J. J. Heyd, E. N. Brothers, K. N. Kudin, 
 V. N. Staroverov, T. A. Keith, R. Kobayashi, J. Normand, 
 K. Raghavachari, A. P. Rendell, J. C. Burant, S. S. Iyengar, 
 J. Tomasi, M. Cossi, J. M. Millam, M. Klene, C. Adamo, R. Cammi, 
 J. W. Ochterski, R. L. Martin, K. Morokuma, O. Farkas, 
 J. B. Foresman, and D. J. Fox, Gaussian, Inc., Wallingford CT, 2016.
 
 ******************************************
 Gaussian 16:  ES64L-G16RevA.03 25-Dec-2016
                17-May-2023 
 ******************************************
 %chk=NCC1CCCCSC[C]C1dCCdS.chk
 %NProcShared=20
 Will use up to   20 processors via shared memory.
 -----------------------------
 # opt freq b3lyp/6-31g(2df,p)
 -----------------------------
 1/18=20,19=15,26=3,38=1/1,3;
 2/9=110,12=2,17=6,18=5,40=1/2;
 3/5=1,6=6,7=104,11=2,25=1,30=1,71=1,74=-5/1,2,3;
 4//1;
 5/5=2,38=5/2;
 6/7=2,8=2,9=2,10=2,28=1/1;
 7//1,2,3,16;
 1/18=20,19=15,26=3/3(2);
 2/9=110/2;
 99//99;
 2/9=110/2;
 3/5=1,6=6,7=104,11=2,25=1,30=1,71=1,74=-5/1,2,3;
 4/5=5,16=3,69=1/1;
 5/5=2,38=5/2;
 7//1,2,3,16;
 1/18=20,19=15,26=3/3(-5);
 2/9=110/2;
 6/7=2,8=2,9=2,10=2,19=2,28=1/1;
 99/9=1/99;
 -------------------
 Title Card Required
 -------------------
 Symbolic Z-matrix:
 Charge =  0 Multiplicity = 1
 N                     0.60303  -0.3665    0.15072 
 C                     2.04882  -0.44017   0.18077 
 C                     2.84829  -1.48142  -0.64258 
 C                     2.33869  -1.4891   -2.11431 
 C                     2.74289  -0.31116  -3.02352 
 C                     2.15573   1.05433  -2.66728 
 C                     3.15454   2.21689  -2.52445 
 S                     4.7735    2.21274  -1.6425 
 C                     4.35665   1.64294   0.03904 
 C                     4.61787   0.19188   0.01431 
 C                     4.36337  -1.13705  -0.5118 
 C                     5.38249  -1.79576  -1.06474 
 C                     5.22023  -3.01369  -1.90996 
 S                     6.42945  -3.73557  -2.81499 
 H                     0.35517   0.55876   0.51609 
 H                     0.2067   -1.04274   0.79131 
 H                     2.40935  -0.36131   1.2132 
 H                     2.29668   0.49167  -0.28544 
 H                     2.66987  -2.46427  -0.18501 
 H                     1.24736  -1.58994  -2.11405 
 H                     2.67712  -2.39779  -2.62134 
 H                     2.37477  -0.56391  -4.02868 
 H                     3.8297   -0.26162  -3.13062 
 H                     1.4618    1.02975  -1.83105 
 H                     1.46095   1.33141  -3.47507 
 H                     2.61003   3.08384  -2.14074 
 H                     3.4557    2.45798  -3.5481 
 H                     3.30935   1.9028    0.23028 
 H                     4.88695   2.18774   0.82504 
 H                     6.40634  -1.41207  -1.00421 
 H                     4.20806  -3.43569  -1.94439 
 

 GradGradGradGradGradGradGradGradGradGradGradGradGradGradGradGradGradGrad
 Berny optimization.
 Initialization pass.
                           ----------------------------
                           !    Initial Parameters    !
                           ! (Angstroms and Degrees)  !
 --------------------------                            --------------------------
 ! Name  Definition              Value          Derivative Info.                !
 --------------------------------------------------------------------------------
 ! R1    R(1,2)                  1.448          estimate D2E/DX2                !
 ! R2    R(1,15)                 1.0252         estimate D2E/DX2                !
 ! R3    R(1,16)                 1.0123         estimate D2E/DX2                !
 ! R4    R(2,3)                  1.5496         estimate D2E/DX2                !
 ! R5    R(2,17)                 1.0964         estimate D2E/DX2                !
 ! R6    R(2,18)                 1.071          estimate D2E/DX2                !
 ! R7    R(3,4)                  1.5575         estimate D2E/DX2                !
 ! R8    R(3,11)                 1.5592         estimate D2E/DX2                !
 ! R9    R(3,19)                 1.0987         estimate D2E/DX2                !
 ! R10   R(4,5)                  1.5419         estimate D2E/DX2                !
 ! R11   R(4,20)                 1.096          estimate D2E/DX2                !
 ! R12   R(4,21)                 1.0942         estimate D2E/DX2                !
 ! R13   R(5,6)                  1.5285         estimate D2E/DX2                !
 ! R14   R(5,22)                 1.0999         estimate D2E/DX2                !
 ! R15   R(5,23)                 1.0932         estimate D2E/DX2                !
 ! R16   R(6,7)                  1.5393         estimate D2E/DX2                !
 ! R17   R(6,24)                 1.0869         estimate D2E/DX2                !
 ! R18   R(6,25)                 1.1009         estimate D2E/DX2                !
 ! R19   R(7,8)                  1.8436         estimate D2E/DX2                !
 ! R20   R(7,26)                 1.0933         estimate D2E/DX2                !
 ! R21   R(7,27)                 1.0939         estimate D2E/DX2                !
 ! R22   R(8,9)                  1.8237         estimate D2E/DX2                !
 ! R23   R(9,10)                 1.4746         estimate D2E/DX2                !
 ! R24   R(9,28)                 1.0959         estimate D2E/DX2                !
 ! R25   R(9,29)                 1.0935         estimate D2E/DX2                !
 ! R26   R(10,11)                1.4518         estimate D2E/DX2                !
 ! R27   R(11,12)                1.3335         estimate D2E/DX2                !
 ! R28   R(12,13)                1.4913         estimate D2E/DX2                !
 ! R29   R(12,30)                1.0951         estimate D2E/DX2                !
 ! R30   R(13,14)                1.674          estimate D2E/DX2                !
 ! R31   R(13,31)                1.0972         estimate D2E/DX2                !
 ! A1    A(2,1,15)             106.2557         estimate D2E/DX2                !
 ! A2    A(2,1,16)             110.1089         estimate D2E/DX2                !
 ! A3    A(15,1,16)            106.4228         estimate D2E/DX2                !
 ! A4    A(1,2,3)              122.5681         estimate D2E/DX2                !
 ! A5    A(1,2,17)             110.1338         estimate D2E/DX2                !
 ! A6    A(1,2,18)             100.24           estimate D2E/DX2                !
 ! A7    A(3,2,17)             112.2722         estimate D2E/DX2                !
 ! A8    A(3,2,18)             103.5293         estimate D2E/DX2                !
 ! A9    A(17,2,18)            105.7365         estimate D2E/DX2                !
 ! A10   A(2,3,4)              109.6689         estimate D2E/DX2                !
 ! A11   A(2,3,11)             107.9594         estimate D2E/DX2                !
 ! A12   A(2,3,19)             107.2191         estimate D2E/DX2                !
 ! A13   A(4,3,11)             113.4707         estimate D2E/DX2                !
 ! A14   A(4,3,19)             109.6323         estimate D2E/DX2                !
 ! A15   A(11,3,19)            108.6889         estimate D2E/DX2                !
 ! A16   A(3,4,5)              117.882          estimate D2E/DX2                !
 ! A17   A(3,4,20)             109.0284         estimate D2E/DX2                !
 ! A18   A(3,4,21)             109.9229         estimate D2E/DX2                !
 ! A19   A(5,4,20)             109.357          estimate D2E/DX2                !
 ! A20   A(5,4,21)             106.2661         estimate D2E/DX2                !
 ! A21   A(20,4,21)            103.3958         estimate D2E/DX2                !
 ! A22   A(4,5,6)              116.3814         estimate D2E/DX2                !
 ! A23   A(4,5,22)             105.997          estimate D2E/DX2                !
 ! A24   A(4,5,23)             110.6704         estimate D2E/DX2                !
 ! A25   A(6,5,22)             106.8412         estimate D2E/DX2                !
 ! A26   A(6,5,23)             111.3616         estimate D2E/DX2                !
 ! A27   A(22,5,23)            104.6916         estimate D2E/DX2                !
 ! A28   A(5,6,7)              116.5559         estimate D2E/DX2                !
 ! A29   A(5,6,24)             113.851          estimate D2E/DX2                !
 ! A30   A(5,6,25)             107.2334         estimate D2E/DX2                !
 ! A31   A(7,6,24)             111.0967         estimate D2E/DX2                !
 ! A32   A(7,6,25)             106.7078         estimate D2E/DX2                !
 ! A33   A(24,6,25)             99.6302         estimate D2E/DX2                !
 ! A34   A(6,7,8)              127.769          estimate D2E/DX2                !
 ! A35   A(6,7,26)             107.9555         estimate D2E/DX2                !
 ! A36   A(6,7,27)             104.9663         estimate D2E/DX2                !
 ! A37   A(8,7,26)             105.7382         estimate D2E/DX2                !
 ! A38   A(8,7,27)             101.9109         estimate D2E/DX2                !
 ! A39   A(26,7,27)            106.9038         estimate D2E/DX2                !
 ! A40   A(7,8,9)              103.9497         estimate D2E/DX2                !
 ! A41   A(8,9,10)             104.5661         estimate D2E/DX2                !
 ! A42   A(8,9,28)             107.7735         estimate D2E/DX2                !
 ! A43   A(8,9,29)             113.3426         estimate D2E/DX2                !
 ! A44   A(10,9,28)            113.9265         estimate D2E/DX2                !
 ! A45   A(10,9,29)            114.6074         estimate D2E/DX2                !
 ! A46   A(28,9,29)            102.7019         estimate D2E/DX2                !
 ! A47   A(9,10,11)            151.1404         estimate D2E/DX2                !
 ! A48   A(3,11,10)            113.7603         estimate D2E/DX2                !
 ! A49   A(3,11,12)            126.7789         estimate D2E/DX2                !
 ! A50   A(10,11,12)           117.9347         estimate D2E/DX2                !
 ! A51   A(11,12,13)           123.7288         estimate D2E/DX2                !
 ! A52   A(11,12,30)           121.2347         estimate D2E/DX2                !
 ! A53   A(13,12,30)           114.7843         estimate D2E/DX2                !
 ! A54   A(12,13,14)           125.4489         estimate D2E/DX2                !
 ! A55   A(12,13,31)           115.612          estimate D2E/DX2                !
 ! A56   A(14,13,31)           118.918          estimate D2E/DX2                !
 ! D1    D(15,1,2,3)          -162.0897         estimate D2E/DX2                !
 ! D2    D(15,1,2,17)           62.4168         estimate D2E/DX2                !
 ! D3    D(15,1,2,18)          -48.6693         estimate D2E/DX2                !
 ! D4    D(16,1,2,3)            83.0523         estimate D2E/DX2                !
 ! D5    D(16,1,2,17)          -52.4411         estimate D2E/DX2                !
 ! D6    D(16,1,2,18)         -163.5272         estimate D2E/DX2                !
 ! D7    D(1,2,3,4)             48.3647         estimate D2E/DX2                !
 ! D8    D(1,2,3,11)           172.4538         estimate D2E/DX2                !
 ! D9    D(1,2,3,19)           -70.6033         estimate D2E/DX2                !
 ! D10   D(17,2,3,4)          -176.9692         estimate D2E/DX2                !
 ! D11   D(17,2,3,11)          -52.8801         estimate D2E/DX2                !
 ! D12   D(17,2,3,19)           64.0629         estimate D2E/DX2                !
 ! D13   D(18,2,3,4)           -63.3915         estimate D2E/DX2                !
 ! D14   D(18,2,3,11)           60.6976         estimate D2E/DX2                !
 ! D15   D(18,2,3,19)          177.6406         estimate D2E/DX2                !
 ! D16   D(2,3,4,5)             74.5177         estimate D2E/DX2                !
 ! D17   D(2,3,4,20)           -50.8714         estimate D2E/DX2                !
 ! D18   D(2,3,4,21)          -163.5567         estimate D2E/DX2                !
 ! D19   D(11,3,4,5)           -46.2918         estimate D2E/DX2                !
 ! D20   D(11,3,4,20)         -171.6809         estimate D2E/DX2                !
 ! D21   D(11,3,4,21)           75.6337         estimate D2E/DX2                !
 ! D22   D(19,3,4,5)          -168.0127         estimate D2E/DX2                !
 ! D23   D(19,3,4,20)           66.5982         estimate D2E/DX2                !
 ! D24   D(19,3,4,21)          -46.0871         estimate D2E/DX2                !
 ! D25   D(2,3,11,10)          -14.8827         estimate D2E/DX2                !
 ! D26   D(2,3,11,12)          179.6215         estimate D2E/DX2                !
 ! D27   D(4,3,11,10)          106.8853         estimate D2E/DX2                !
 ! D28   D(4,3,11,12)          -58.6105         estimate D2E/DX2                !
 ! D29   D(19,3,11,10)        -130.8689         estimate D2E/DX2                !
 ! D30   D(19,3,11,12)          63.6353         estimate D2E/DX2                !
 ! D31   D(3,4,5,6)            -67.2085         estimate D2E/DX2                !
 ! D32   D(3,4,5,22)           174.1958         estimate D2E/DX2                !
 ! D33   D(3,4,5,23)            61.2322         estimate D2E/DX2                !
 ! D34   D(20,4,5,6)            58.0191         estimate D2E/DX2                !
 ! D35   D(20,4,5,22)          -60.5766         estimate D2E/DX2                !
 ! D36   D(20,4,5,23)         -173.5402         estimate D2E/DX2                !
 ! D37   D(21,4,5,6)           169.0151         estimate D2E/DX2                !
 ! D38   D(21,4,5,22)           50.4194         estimate D2E/DX2                !
 ! D39   D(21,4,5,23)          -62.5442         estimate D2E/DX2                !
 ! D40   D(4,5,6,7)            128.0287         estimate D2E/DX2                !
 ! D41   D(4,5,6,24)            -3.3429         estimate D2E/DX2                !
 ! D42   D(4,5,6,25)          -112.5295         estimate D2E/DX2                !
 ! D43   D(22,5,6,7)          -113.8364         estimate D2E/DX2                !
 ! D44   D(22,5,6,24)          114.7921         estimate D2E/DX2                !
 ! D45   D(22,5,6,25)            5.6055         estimate D2E/DX2                !
 ! D46   D(23,5,6,7)            -0.0754         estimate D2E/DX2                !
 ! D47   D(23,5,6,24)         -131.447          estimate D2E/DX2                !
 ! D48   D(23,5,6,25)          119.3664         estimate D2E/DX2                !
 ! D49   D(5,6,7,8)            -44.8063         estimate D2E/DX2                !
 ! D50   D(5,6,7,26)          -172.5251         estimate D2E/DX2                !
 ! D51   D(5,6,7,27)            73.7083         estimate D2E/DX2                !
 ! D52   D(24,6,7,8)            87.8308         estimate D2E/DX2                !
 ! D53   D(24,6,7,26)          -39.8881         estimate D2E/DX2                !
 ! D54   D(24,6,7,27)         -153.6547         estimate D2E/DX2                !
 ! D55   D(25,6,7,8)          -164.5306         estimate D2E/DX2                !
 ! D56   D(25,6,7,26)           67.7505         estimate D2E/DX2                !
 ! D57   D(25,6,7,27)          -46.0161         estimate D2E/DX2                !
 ! D58   D(6,7,8,9)            -54.4203         estimate D2E/DX2                !
 ! D59   D(26,7,8,9)            74.1535         estimate D2E/DX2                !
 ! D60   D(27,7,8,9)          -174.2431         estimate D2E/DX2                !
 ! D61   D(7,8,9,10)            95.4446         estimate D2E/DX2                !
 ! D62   D(7,8,9,28)           -26.1113         estimate D2E/DX2                !
 ! D63   D(7,8,9,29)          -139.0544         estimate D2E/DX2                !
 ! D64   D(8,9,10,11)          -60.7402         estimate D2E/DX2                !
 ! D65   D(28,9,10,11)          56.6685         estimate D2E/DX2                !
 ! D66   D(29,9,10,11)         174.5591         estimate D2E/DX2                !
 ! D67   D(9,10,11,3)          -46.1093         estimate D2E/DX2                !
 ! D68   D(9,10,11,12)         120.7669         estimate D2E/DX2                !
 ! D69   D(3,11,12,13)          -0.7091         estimate D2E/DX2                !
 ! D70   D(3,11,12,30)         173.2172         estimate D2E/DX2                !
 ! D71   D(10,11,12,13)       -165.6715         estimate D2E/DX2                !
 ! D72   D(10,11,12,30)          8.2549         estimate D2E/DX2                !
 ! D73   D(11,12,13,14)        169.9815         estimate D2E/DX2                !
 ! D74   D(11,12,13,31)         -8.3221         estimate D2E/DX2                !
 ! D75   D(30,12,13,14)         -4.2996         estimate D2E/DX2                !
 ! D76   D(30,12,13,31)        177.3968         estimate D2E/DX2                !
 --------------------------------------------------------------------------------
 Trust Radius=3.00D-01 FncErr=1.00D-07 GrdErr=1.00D-06 EigMax=2.50D+02 EigMin=1.00D-04
 Number of steps in this run=    173 maximum allowed number of steps=    186.
 GradGradGradGradGradGradGradGradGradGradGradGradGradGradGradGradGradGrad

                          Input orientation:                          
 ---------------------------------------------------------------------
 Center     Atomic      Atomic             Coordinates (Angstroms)
 Number     Number       Type             X           Y           Z
 ---------------------------------------------------------------------
      1          7           0        0.603030   -0.366500    0.150720
      2          6           0        2.048820   -0.440170    0.180770
      3          6           0        2.848290   -1.481420   -0.642580
      4          6           0        2.338690   -1.489100   -2.114310
      5          6           0        2.742890   -0.311160   -3.023520
      6          6           0        2.155730    1.054330   -2.667280
      7          6           0        3.154540    2.216890   -2.524450
      8         16           0        4.773500    2.212740   -1.642500
      9          6           0        4.356650    1.642940    0.039040
     10          6           0        4.617870    0.191880    0.014310
     11          6           0        4.363370   -1.137050   -0.511800
     12          6           0        5.382490   -1.795760   -1.064740
     13          6           0        5.220230   -3.013690   -1.909960
     14         16           0        6.429450   -3.735570   -2.814990
     15          1           0        0.355170    0.558760    0.516090
     16          1           0        0.206700   -1.042740    0.791310
     17          1           0        2.409350   -0.361310    1.213200
     18          1           0        2.296680    0.491670   -0.285440
     19          1           0        2.669870   -2.464270   -0.185010
     20          1           0        1.247360   -1.589940   -2.114050
     21          1           0        2.677120   -2.397790   -2.621340
     22          1           0        2.374770   -0.563910   -4.028680
     23          1           0        3.829700   -0.261620   -3.130620
     24          1           0        1.461800    1.029750   -1.831050
     25          1           0        1.460950    1.331410   -3.475070
     26          1           0        2.610030    3.083840   -2.140740
     27          1           0        3.455700    2.457980   -3.548100
     28          1           0        3.309350    1.902800    0.230280
     29          1           0        4.886950    2.187740    0.825040
     30          1           0        6.406340   -1.412070   -1.004210
     31          1           0        4.208060   -3.435690   -1.944390
 ---------------------------------------------------------------------
                    Distance matrix (angstroms):
                    1          2          3          4          5
     1  N    0.000000
     2  C    1.447978   0.000000
     3  C    2.629366   1.549600   0.000000
     4  C    3.066449   2.540014   1.557479   0.000000
     5  C    3.828559   3.281136   2.655088   1.541941   0.000000
     6  C    3.517209   3.218128   3.317993   2.609269   1.528472
     7  C    4.510060   3.949785   4.160856   3.816830   2.609514
     8  S    5.221201   4.217360   4.284051   4.455842   3.521458
     9  C    4.259106   3.112156   3.535729   4.303342   3.975173
    10  C    4.055778   2.650889   2.522469   3.542792   3.605137
    11  C    3.895233   2.514446   1.559218   2.606014   3.101094
    12  C    5.134527   3.808185   2.588281   3.234247   3.606708
    13  C    5.707237   4.588246   3.095190   3.266406   3.831566
    14  S    7.354811   6.246932   4.756602   4.719311   5.035950
    15  H    1.025200   1.994681   3.423521   3.879057   4.357385
    16  H    1.012291   2.032057   3.037512   3.631425   4.639008
    17  H    2.095634   1.096409   2.211613   3.514147   4.250125
    18  H    1.948112   1.071033   2.079641   2.696290   2.888031
    19  H    2.963981   2.148599   1.098726   2.186969   3.563475
    20  H    2.653516   2.688960   2.177149   1.095979   2.167723
    21  H    4.014014   3.475465   2.187356   1.094227   2.126052
    22  H    4.543723   4.223864   3.540017   2.126521   1.099883
    23  H    4.603215   3.764136   2.939629   2.182362   1.093197
    24  H    2.571850   2.559820   3.104962   2.682122   2.204817
    25  H    4.094542   4.104784   4.226077   3.252287   2.131972
    26  H    4.602574   4.257113   4.810702   4.581059   3.510410
    27  H    5.458634   4.927784   4.932531   4.345447   2.907132
    28  H    3.532736   2.660995   3.525253   4.236068   3.976143
    29  H    5.032973   3.921221   4.446659   5.352809   5.064870
    30  H    6.008784   4.619172   3.577053   4.217112   4.325561
    31  H    5.177418   4.260489   2.713458   2.704187   3.615789
                    6          7          8          9         10
     6  C    0.000000
     7  C    1.539340   0.000000
     8  S    3.040528   1.843606   0.000000
     9  C    3.537609   2.888939   1.823736   0.000000
    10  C    3.741240   3.561924   2.617846   1.474592   0.000000
    11  C    3.784431   4.094013   3.559183   2.834046   1.451763
    12  C    4.593814   4.816210   4.095455   3.754376   2.387406
    13  C    5.149124   5.657176   5.252302   5.121384   3.786995
    14  S    6.421031   6.800090   6.284846   6.431979   5.168329
    15  H    3.690725   4.453173   5.188140   4.173112   4.307783
    16  H    4.489796   5.505380   6.113693   5.000087   4.646121
    17  H    4.138416   4.601353   4.513309   3.031113   2.573114
    18  H    2.451452   2.953891   3.307315   2.382055   2.359586
    19  H    4.336652   5.255582   5.331412   4.445739   3.299934
    20  H    2.850151   4.277583   5.207341   4.975439   4.366364
    21  H    3.491574   4.640322   5.158481   5.121127   4.173674
    22  H    2.126050   3.256317   4.376933   5.034320   4.684921
    23  H    2.179125   2.639374   3.037716   3.735207   3.273753
    24  H    1.086933   2.180705   3.521700   3.500485   3.750754
    25  H    1.100917   2.134479   3.886907   4.564110   4.841533
    26  H    2.145354   1.093310   2.384882   3.142979   4.127844
    27  H    2.106181   1.093929   2.329818   3.787291   4.379111
    28  H    3.232119   2.776897   2.397312   1.095873   2.164744
    29  H    4.576077   3.771098   2.470273   1.093536   2.170978
    30  H    5.188123   5.104379   4.026516   3.823962   2.609342
    31  H    4.989480   5.779103   5.684683   5.454224   4.142911
                   11         12         13         14         15
    11  C    0.000000
    12  C    1.333509   0.000000
    13  C    2.492155   1.491335   0.000000
    14  S    4.040505   2.814669   1.674038   0.000000
    15  H    4.471912   5.772065   6.505146   8.150720   0.000000
    16  H    4.357166   5.549843   6.026358   7.679801   1.631745
    17  H    2.719484   4.010763   4.968933   6.616128   2.356299
    18  H    2.641056   3.919422   4.844973   6.430239   2.101526
    19  H    2.176292   2.929017   3.127563   4.761034   3.871445
    20  H    3.532964   4.271149   4.225212   5.652354   3.511488
    21  H    2.980447   3.178753   2.711605   3.988375   4.896540
    22  H    4.080621   4.398724   4.311269   5.288941   5.098442
    23  H    2.812365   3.005429   3.316244   4.350477   5.103320
    24  H    3.854160   4.893112   5.520999   6.953701   2.637333
    25  H    4.826832   5.564832   5.954968   7.127130   4.212968
    26  H    4.852171   5.714438   6.636737   7.845185   4.303390
    27  H    4.792413   5.289036   5.977980   6.909465   5.453253
    28  H    3.301867   4.433321   5.692448   7.127406   3.258115
    29  H    3.621534   4.436789   5.886100   7.121427   4.825563
    30  H    2.119394   1.095057   2.189161   2.945863   6.543099
    31  H    2.712965   2.200555   1.097159   2.404672   6.070779
                   16         17         18         19         20
    16  H    0.000000
    17  H    2.343929   0.000000
    18  H    2.807458   1.728060   0.000000
    19  H    3.006851   2.538760   2.981097   0.000000
    20  H    3.134249   3.732338   2.962767   2.551310   0.000000
    21  H    4.425530   4.350017   3.734989   2.437248   1.718772
    22  H    5.306798   5.245908   3.890012   4.297936   2.447366
    23  H    5.396092   4.571226   3.318531   3.856617   3.076740
    24  H    3.570331   3.478557   1.837244   4.046858   2.643643
    25  H    5.041005   5.073918   3.402550   5.166543   3.229904
    26  H    5.603711   4.812301   3.203072   5.883025   4.868450
    27  H    6.453024   5.631449   3.981790   6.013023   4.828967
    28  H    4.314788   2.627228   1.811838   4.433137   4.684754
    29  H    5.686992   3.575867   3.289273   5.251366   6.012964
    30  H    6.464970   4.690089   4.585865   3.967294   5.280005
    31  H    5.405659   4.759994   4.672221   2.530831   3.493039
                   21         22         23         24         25
    21  H    0.000000
    22  H    2.331338   0.000000
    23  H    2.480127   1.736293   0.000000
    24  H    3.721504   2.864061   2.993905   0.000000
    25  H    4.014331   2.175727   2.875303   1.671467   0.000000
    26  H    5.503067   4.114091   3.695884   2.373526   2.484317
    27  H    5.004355   3.245179   2.776759   2.993950   2.292056
    28  H    5.198704   5.009674   4.031269   2.902540   4.180034
    29  H    6.147192   6.118923   4.771204   4.486358   5.564326
    30  H    4.182563   5.110807   3.533303   5.576255   6.171605
    31  H    1.969588   3.994038   3.409548   5.243562   5.710940
                   26         27         28         29         30
    26  H    0.000000
    27  H    1.757134   0.000000
    28  H    2.739642   3.821753   0.000000
    29  H    3.844894   4.609323   1.709898   0.000000
    30  H    5.993069   5.491351   4.701455   4.314317   0.000000
    31  H    6.715395   6.154127   5.834068   6.305046   3.132317
                   31
    31  H    0.000000
 Stoichiometry    C11H17NS2
 Framework group  C1[X(C11H17NS2)]
 Deg. of freedom    87
 Full point group                 C1      NOp   1
 Largest Abelian subgroup         C1      NOp   1
 Largest concise Abelian subgroup C1      NOp   1
                         Standard orientation:                         
 ---------------------------------------------------------------------
 Center     Atomic      Atomic             Coordinates (Angstroms)
 Number     Number       Type             X           Y           Z
 ---------------------------------------------------------------------
      1          7           0       -2.124868    2.864383   -0.407904
      2          6           0       -1.295874    1.800778   -0.935304
      3          6           0        0.156952    1.558717   -0.453679
      4          6           0        0.199065    1.553299    1.103221
      5          6           0       -0.356462    0.315140    1.835298
      6          6           0       -1.862499    0.079195    1.723913
      7          6           0       -2.307587   -1.320589    1.263402
      8         16           0       -1.621476   -2.324637   -0.122247
      9          6           0       -1.732134   -1.215478   -1.565692
     10          6           0       -0.400472   -0.588413   -1.654497
     11          6           0        0.660139    0.228666   -1.093154
     12          6           0        1.861160   -0.328873   -0.935216
     13          6           0        2.947466    0.265946   -0.104428
     14         16           0        4.375977   -0.498049    0.317556
     15          1           0       -3.090983    2.622818   -0.651431
     16          1           0       -1.918926    3.734251   -0.882933
     17          1           0       -1.383859    1.759949   -2.027414
     18          1           0       -1.827010    0.945923   -0.568932
     19          1           0        0.768836    2.387052   -0.836637
     20          1           0       -0.303588    2.452461    1.477409
     21          1           0        1.229929    1.676778    1.448769
     22          1           0       -0.136093    0.469359    2.901786
     23          1           0        0.208146   -0.580239    1.562175
     24          1           0       -2.389994    0.856871    1.177660
     25          1           0       -2.291898    0.234209    2.725714
     26          1           0       -3.388907   -1.294958    1.103971
     27          1           0       -2.128324   -1.971446    2.124175
     28          1           0       -2.546203   -0.505606   -1.380463
     29          1           0       -2.058332   -1.722719   -2.477900
     30          1           0        2.083606   -1.322194   -1.338925
     31          1           0        2.757125    1.279455    0.270176
 ---------------------------------------------------------------------
 Rotational constants (GHZ):           0.6698680           0.3587874           0.3084406
 Standard basis: 6-31G(2df,p) (6D, 7F)
 There are   527 symmetry adapted cartesian basis functions of A   symmetry.
 There are   485 symmetry adapted basis functions of A   symmetry.
   485 basis functions,   783 primitive gaussians,   527 cartesian basis functions
    61 alpha electrons       61 beta electrons
       nuclear repulsion energy      1121.0721125989 Hartrees.
 NAtoms=   31 NActive=   31 NUniq=   31 SFac= 1.00D+00 NAtFMM=   60 NAOKFM=F Big=F
 Integral buffers will be    131072 words long.
 Raffenetti 2 integral format.
 Two-electron integral symmetry is turned on.
 One-electron integrals computed using PRISM.
 PrsmSu:  requested number of processors reduced to:  12 ShMem   1 Linda.
 NBasis=   485 RedAO= T EigKep=  3.74D-04  NBF=   485
 NBsUse=   485 1.00D-06 EigRej= -1.00D+00 NBFU=   485
 ExpMin= 1.17D-01 ExpMax= 2.19D+04 ExpMxC= 3.30D+03 IAcc=3 IRadAn=         5 AccDes= 0.00D+00
 Harris functional with IExCor=  402 and IRadAn=       5 diagonalized for initial guess.
 HarFok:  IExCor=  402 AccDes= 0.00D+00 IRadAn=         5 IDoV= 1 UseB2=F ITyADJ=14
 ICtDFT=  3500011 ScaDFX=  1.000000  1.000000  1.000000  1.000000
 FoFCou: FMM=F IPFlag=           0 FMFlag=      100000 FMFlg1=           0
         NFxFlg=           0 DoJE=T BraDBF=F KetDBF=T FulRan=T
         wScrn=  0.000000 ICntrl=       500 IOpCl=  0 I1Cent=   200000004 NGrid=           0
         NMat0=    1 NMatS0=      1 NMatT0=    0 NMatD0=    1 NMtDS0=    0 NMtDT0=    0
 Petite list used in FoFCou.
 Requested convergence on RMS density matrix=1.00D-08 within 128 cycles.
 Requested convergence on MAX density matrix=1.00D-06.
 Requested convergence on             energy=1.00D-06.
 No special actions if energy rises.
 Integral accuracy reduced to 1.0D-05 until final iterations.
 EnCoef did     5 forward-backward iterations
 Initial convergence to 1.0D-05 achieved.  Increase integral accuracy.
 SCF Done:  E(RB3LYP) =  -1280.35942756     A.U. after   19 cycles
            NFock= 19  Conv=0.22D-08     -V/T= 2.0052

 **********************************************************************

            Population analysis using the SCF density.

 **********************************************************************

 Orbital symmetries:
       Occupied  (A) (A) (A) (A) (A) (A) (A) (A) (A) (A) (A) (A)
                 (A) (A) (A) (A) (A) (A) (A) (A) (A) (A) (A) (A)
                 (A) (A) (A) (A) (A) (A) (A) (A) (A) (A) (A) (A)
                 (A) (A) (A) (A) (A) (A) (A) (A) (A) (A) (A) (A)
                 (A) (A) (A) (A) (A) (A) (A) (A) (A) (A) (A) (A)
                 (A)
       Virtual   (A) (A) (A) (A) (A) (A) (A) (A) (A) (A) (A) (A)
                 (A) (A) (A) (A) (A) (A) (A) (A) (A) (A) (A) (A)
                 (A) (A) (A) (A) (A) (A) (A) (A) (A) (A) (A) (A)
                 (A) (A) (A) (A) (A) (A) (A) (A) (A) (A) (A) (A)
                 (A) (A) (A) (A) (A) (A) (A) (A) (A) (A) (A) (A)
                 (A) (A) (A) (A) (A) (A) (A) (A) (A) (A) (A) (A)
                 (A) (A) (A) (A) (A) (A) (A) (A) (A) (A) (A) (A)
                 (A) (A) (A) (A) (A) (A) (A) (A) (A) (A) (A) (A)
                 (A) (A) (A) (A) (A) (A) (A) (A) (A) (A) (A) (A)
                 (A) (A) (A) (A) (A) (A) (A) (A) (A) (A) (A) (A)
                 (A) (A) (A) (A) (A) (A) (A) (A) (A) (A) (A) (A)
                 (A) (A) (A) (A) (A) (A) (A) (A) (A) (A) (A) (A)
                 (A) (A) (A) (A) (A) (A) (A) (A) (A) (A) (A) (A)
                 (A) (A) (A) (A) (A) (A) (A) (A) (A) (A) (A) (A)
                 (A) (A) (A) (A) (A) (A) (A) (A) (A) (A) (A) (A)
                 (A) (A) (A) (A) (A) (A) (A) (A) (A) (A) (A) (A)
                 (A) (A) (A) (A) (A) (A) (A) (A) (A) (A) (A) (A)
                 (A) (A) (A) (A) (A) (A) (A) (A) (A) (A) (A) (A)
                 (A) (A) (A) (A) (A) (A) (A) (A) (A) (A) (A) (A)
                 (A) (A) (A) (A) (A) (A) (A) (A) (A) (A) (A) (A)
                 (A) (A) (A) (A) (A) (A) (A) (A) (A) (A) (A) (A)
                 (A) (A) (A) (A) (A) (A) (A) (A) (A) (A) (A) (A)
                 (A) (A) (A) (A) (A) (A) (A) (A) (A) (A) (A) (A)
                 (A) (A) (A) (A) (A) (A) (A) (A) (A) (A) (A) (A)
                 (A) (A) (A) (A) (A) (A) (A) (A) (A) (A) (A) (A)
                 (A) (A) (A) (A) (A) (A) (A) (A) (A) (A) (A) (A)
                 (A) (A) (A) (A) (A) (A) (A) (A) (A) (A) (A) (A)
                 (A) (A) (A) (A) (A) (A) (A) (A) (A) (A) (A) (A)
                 (A) (A) (A) (A) (A) (A) (A) (A) (A) (A) (A) (A)
                 (A) (A) (A) (A) (A) (A) (A) (A) (A) (A) (A) (A)
                 (A) (A) (A) (A) (A) (A) (A) (A) (A) (A) (A) (A)
                 (A) (A) (A) (A) (A) (A) (A) (A) (A) (A) (A) (A)
                 (A) (A) (A) (A) (A) (A) (A) (A) (A) (A) (A) (A)
                 (A) (A) (A) (A) (A) (A) (A) (A) (A) (A) (A) (A)
                 (A) (A) (A) (A) (A) (A) (A) (A) (A) (A) (A) (A)
                 (A) (A) (A) (A)
 The electronic state is 1-A.
 Alpha  occ. eigenvalues --  -88.90251 -88.83218 -14.33096 -10.25506 -10.24421
 Alpha  occ. eigenvalues --  -10.23396 -10.23324 -10.23100 -10.21706 -10.21643
 Alpha  occ. eigenvalues --  -10.19912 -10.19767 -10.19028 -10.18791  -7.96454
 Alpha  occ. eigenvalues --   -7.89639  -5.92963  -5.92568  -5.91983  -5.85953
 Alpha  occ. eigenvalues --   -5.85920  -5.85166  -0.90744  -0.85605  -0.82857
 Alpha  occ. eigenvalues --   -0.80823  -0.77701  -0.73982  -0.72554  -0.69777
 Alpha  occ. eigenvalues --   -0.63781  -0.63094  -0.60322  -0.57532  -0.55096
 Alpha  occ. eigenvalues --   -0.53324  -0.50445  -0.48960  -0.47946  -0.46917
 Alpha  occ. eigenvalues --   -0.45976  -0.45550  -0.44818  -0.43844  -0.41940
 Alpha  occ. eigenvalues --   -0.41085  -0.39508  -0.37972  -0.36830  -0.35781
 Alpha  occ. eigenvalues --   -0.35138  -0.34434  -0.33448  -0.33110  -0.32241
 Alpha  occ. eigenvalues --   -0.30701  -0.27258  -0.25763  -0.24698  -0.19899
 Alpha  occ. eigenvalues --   -0.18024
 Alpha virt. eigenvalues --   -0.11842  -0.05141   0.01697   0.03790   0.04768
 Alpha virt. eigenvalues --    0.06432   0.07060   0.08317   0.09511   0.10834
 Alpha virt. eigenvalues --    0.11521   0.12398   0.13145   0.13262   0.13429
 Alpha virt. eigenvalues --    0.15496   0.15559   0.16149   0.16670   0.17314
 Alpha virt. eigenvalues --    0.18231   0.18363   0.19603   0.21689   0.22496
 Alpha virt. eigenvalues --    0.22858   0.23051   0.23793   0.25392   0.26178
 Alpha virt. eigenvalues --    0.26870   0.27562   0.29261   0.32209   0.32689
 Alpha virt. eigenvalues --    0.33241   0.35102   0.36171   0.37591   0.37874
 Alpha virt. eigenvalues --    0.39135   0.39811   0.40493   0.42672   0.42819
 Alpha virt. eigenvalues --    0.43703   0.44489   0.44895   0.46675   0.47360
 Alpha virt. eigenvalues --    0.47566   0.48645   0.49050   0.50184   0.51326
 Alpha virt. eigenvalues --    0.52771   0.53219   0.53595   0.53669   0.54636
 Alpha virt. eigenvalues --    0.56286   0.57042   0.57773   0.58581   0.58805
 Alpha virt. eigenvalues --    0.60372   0.61347   0.62770   0.63899   0.64718
 Alpha virt. eigenvalues --    0.64791   0.66417   0.66949   0.68366   0.69220
 Alpha virt. eigenvalues --    0.69763   0.71267   0.71410   0.72550   0.72997
 Alpha virt. eigenvalues --    0.73396   0.73846   0.74718   0.75621   0.76402
 Alpha virt. eigenvalues --    0.76943   0.77645   0.77846   0.79314   0.79596
 Alpha virt. eigenvalues --    0.80528   0.81282   0.81749   0.82163   0.82515
 Alpha virt. eigenvalues --    0.83222   0.84582   0.85457   0.86117   0.86538
 Alpha virt. eigenvalues --    0.87541   0.88816   0.91326   0.91724   0.92599
 Alpha virt. eigenvalues --    0.94751   0.95996   0.96569   0.97368   0.99583
 Alpha virt. eigenvalues --    1.01600   1.02500   1.03152   1.04523   1.04726
 Alpha virt. eigenvalues --    1.08789   1.10692   1.12605   1.14206   1.15341
 Alpha virt. eigenvalues --    1.15909   1.17749   1.21501   1.23321   1.24072
 Alpha virt. eigenvalues --    1.25526   1.26263   1.27380   1.28915   1.31021
 Alpha virt. eigenvalues --    1.31252   1.32469   1.33954   1.36336   1.37991
 Alpha virt. eigenvalues --    1.39460   1.40148   1.42047   1.42774   1.43647
 Alpha virt. eigenvalues --    1.44206   1.46448   1.46842   1.48383   1.48954
 Alpha virt. eigenvalues --    1.51158   1.51845   1.52164   1.52752   1.54376
 Alpha virt. eigenvalues --    1.55649   1.57482   1.58591   1.59336   1.60115
 Alpha virt. eigenvalues --    1.62010   1.63371   1.64588   1.65379   1.68027
 Alpha virt. eigenvalues --    1.68955   1.69566   1.70178   1.72121   1.72911
 Alpha virt. eigenvalues --    1.73684   1.76107   1.76557   1.77068   1.79201
 Alpha virt. eigenvalues --    1.79739   1.79803   1.80737   1.83478   1.85490
 Alpha virt. eigenvalues --    1.86632   1.87559   1.88151   1.89128   1.91194
 Alpha virt. eigenvalues --    1.93544   1.95162   1.95522   1.96489   1.97806
 Alpha virt. eigenvalues --    2.00438   2.02264   2.02745   2.04078   2.06948
 Alpha virt. eigenvalues --    2.09766   2.12578   2.14531   2.15905   2.17267
 Alpha virt. eigenvalues --    2.19060   2.20366   2.21285   2.21668   2.22550
 Alpha virt. eigenvalues --    2.23699   2.24987   2.28134   2.29050   2.30784
 Alpha virt. eigenvalues --    2.31406   2.32954   2.34152   2.35731   2.36502
 Alpha virt. eigenvalues --    2.37022   2.38630   2.38672   2.43634   2.44714
 Alpha virt. eigenvalues --    2.44878   2.47690   2.48027   2.50075   2.50727
 Alpha virt. eigenvalues --    2.51069   2.53324   2.54649   2.55473   2.57549
 Alpha virt. eigenvalues --    2.58753   2.60679   2.62902   2.64449   2.67433
 Alpha virt. eigenvalues --    2.68487   2.70080   2.71121   2.72552   2.73915
 Alpha virt. eigenvalues --    2.75696   2.77438   2.78128   2.79311   2.82363
 Alpha virt. eigenvalues --    2.83049   2.83778   2.84988   2.86819   2.87366
 Alpha virt. eigenvalues --    2.88275   2.90101   2.90680   2.91924   2.93145
 Alpha virt. eigenvalues --    2.93869   2.94685   2.95598   2.96945   2.98416
 Alpha virt. eigenvalues --    2.99951   3.00399   3.02077   3.03230   3.04259
 Alpha virt. eigenvalues --    3.06058   3.06605   3.10324   3.13196   3.14252
 Alpha virt. eigenvalues --    3.15227   3.16905   3.17841   3.18979   3.19382
 Alpha virt. eigenvalues --    3.20485   3.22868   3.24983   3.28498   3.29375
 Alpha virt. eigenvalues --    3.31448   3.32345   3.33130   3.35003   3.36295
 Alpha virt. eigenvalues --    3.36802   3.38692   3.39453   3.40827   3.41207
 Alpha virt. eigenvalues --    3.41999   3.43975   3.45068   3.45842   3.47114
 Alpha virt. eigenvalues --    3.49099   3.50882   3.52291   3.53284   3.55884
 Alpha virt. eigenvalues --    3.57784   3.59693   3.61450   3.61961   3.63050
 Alpha virt. eigenvalues --    3.64704   3.66410   3.69240   3.70352   3.72541
 Alpha virt. eigenvalues --    3.73685   3.75899   3.77344   3.77863   3.80286
 Alpha virt. eigenvalues --    3.82373   3.83062   3.85300   3.86502   3.89016
 Alpha virt. eigenvalues --    3.90529   3.95072   3.97144   3.99655   4.02662
 Alpha virt. eigenvalues --    4.04208   4.05812   4.06924   4.12364   4.14138
 Alpha virt. eigenvalues --    4.16272   4.19722   4.21517   4.24555   4.25618
 Alpha virt. eigenvalues --    4.27349   4.28561   4.30789   4.32004   4.32868
 Alpha virt. eigenvalues --    4.34465   4.37367   4.38237   4.38965   4.41725
 Alpha virt. eigenvalues --    4.41787   4.44829   4.45739   4.47114   4.49005
 Alpha virt. eigenvalues --    4.50104   4.50935   4.52151   4.53668   4.55378
 Alpha virt. eigenvalues --    4.55813   4.57195   4.59326   4.60293   4.61330
 Alpha virt. eigenvalues --    4.62803   4.63589   4.64604   4.64932   4.65333
 Alpha virt. eigenvalues --    4.65923   4.68179   4.68946   4.69525   4.72565
 Alpha virt. eigenvalues --    4.73442   4.74224   4.75281   4.76783   4.78037
 Alpha virt. eigenvalues --    4.78879   4.80327   4.81171   4.81955   4.82522
 Alpha virt. eigenvalues --    4.84124   4.85635   4.86718   4.88013   4.89089
 Alpha virt. eigenvalues --    4.91437   4.94069   4.96760   4.97045   4.99147
 Alpha virt. eigenvalues --    5.00776   5.00987   5.02460   5.06270   5.10186
 Alpha virt. eigenvalues --    5.13074   5.17869   5.18783   5.26806   5.28047
 Alpha virt. eigenvalues --    5.32790   5.35871   5.39648   5.41210   5.42833
 Alpha virt. eigenvalues --    5.46370   5.47135   5.50047   5.55858   5.60735
 Alpha virt. eigenvalues --    5.69954   5.75438   5.84665   6.08341   6.46732
 Alpha virt. eigenvalues --    6.66433  10.37687  10.77989  11.11251  11.23895
 Alpha virt. eigenvalues --   11.36062  11.62463  11.79441  11.96393  12.20508
 Alpha virt. eigenvalues --   12.52337  12.69743  12.80847  13.50760
          Condensed to atoms (all electrons):
               1          2          3          4          5          6
     1  N    6.555429   0.374951  -0.023935  -0.008503  -0.000019  -0.005992
     2  C    0.374951   4.912690   0.355994  -0.016925  -0.006033  -0.005596
     3  C   -0.023935   0.355994   4.944435   0.377564  -0.024680  -0.002836
     4  C   -0.008503  -0.016925   0.377564   4.906756   0.402726  -0.025162
     5  C   -0.000019  -0.006033  -0.024680   0.402726   4.837245   0.411368
     6  C   -0.005992  -0.005596  -0.002836  -0.025162   0.411368   4.900243
     7  C    0.000157  -0.000694   0.000271   0.002315  -0.032643   0.389729
     8  S   -0.000040   0.001376   0.000490   0.000833  -0.002668  -0.035684
     9  C    0.000217  -0.009113  -0.001809   0.000470   0.000027  -0.002236
    10  C    0.000422  -0.020392  -0.061927  -0.008410   0.007377   0.000621
    11  C    0.000433  -0.022785   0.383744  -0.018502  -0.002802   0.000059
    12  C   -0.000047   0.003729  -0.024690  -0.002803  -0.006168   0.000232
    13  C   -0.000002   0.000276  -0.011941  -0.001619  -0.000785   0.000017
    14  S    0.000000  -0.000012   0.000106   0.000128   0.000205   0.000000
    15  H    0.346484  -0.046972   0.004942   0.000241  -0.000031   0.000521
    16  H    0.342165  -0.053585   0.000448  -0.000031  -0.000004   0.000099
    17  H   -0.051093   0.394579  -0.052905   0.005590  -0.000055  -0.000191
    18  H   -0.035259   0.340576  -0.015374  -0.013738   0.001174   0.009551
    19  H   -0.000677  -0.048565   0.345327  -0.040596   0.004900  -0.000078
    20  H    0.012876  -0.006901  -0.029727   0.358523  -0.030855  -0.006812
    21  H    0.000180   0.004693  -0.031873   0.361347  -0.031422   0.004174
    22  H   -0.000027  -0.000039   0.004010  -0.027977   0.365112  -0.034749
    23  H   -0.000025  -0.000148  -0.005998  -0.030378   0.375268  -0.040717
    24  H    0.013738  -0.006146  -0.005300  -0.007596  -0.035754   0.367052
    25  H    0.000060   0.000456   0.000066   0.003149  -0.030889   0.353944
    26  H   -0.000008   0.000077   0.000001  -0.000155   0.004382  -0.036884
    27  H   -0.000002  -0.000013  -0.000004  -0.000008  -0.001778  -0.028933
    28  H    0.000031  -0.003225  -0.000640   0.000340  -0.000190  -0.002185
    29  H   -0.000010   0.000660  -0.000002  -0.000018   0.000021   0.000017
    30  H    0.000000  -0.000068   0.005850  -0.000017  -0.000146  -0.000004
    31  H   -0.000002   0.000075   0.007549  -0.004498  -0.000266  -0.000002
               7          8          9         10         11         12
     1  N    0.000157  -0.000040   0.000217   0.000422   0.000433  -0.000047
     2  C   -0.000694   0.001376  -0.009113  -0.020392  -0.022785   0.003729
     3  C    0.000271   0.000490  -0.001809  -0.061927   0.383744  -0.024690
     4  C    0.002315   0.000833   0.000470  -0.008410  -0.018502  -0.002803
     5  C   -0.032643  -0.002668   0.000027   0.007377  -0.002802  -0.006168
     6  C    0.389729  -0.035684  -0.002236   0.000621   0.000059   0.000232
     7  C    4.907837   0.293841  -0.009110  -0.000414   0.000356  -0.000063
     8  S    0.293841  15.769502   0.228120  -0.028803  -0.006215   0.002765
     9  C   -0.009110   0.228120   4.957367   0.444151  -0.031602  -0.001984
    10  C   -0.000414  -0.028803   0.444151   5.273934   0.514638  -0.044462
    11  C    0.000356  -0.006215  -0.031602   0.514638   4.480334   0.546907
    12  C   -0.000063   0.002765  -0.001984  -0.044462   0.546907   4.940373
    13  C   -0.000003   0.000224  -0.000090   0.003145  -0.014032   0.477543
    14  S    0.000000  -0.000029   0.000008  -0.000200   0.002561  -0.045597
    15  H   -0.000037  -0.000026   0.000024  -0.000111  -0.000132   0.000002
    16  H   -0.000003   0.000000  -0.000021  -0.000041  -0.000154  -0.000001
    17  H    0.000053   0.000422   0.000897   0.004731   0.003834   0.000366
    18  H    0.000245  -0.001628  -0.005375   0.008774  -0.014902  -0.000528
    19  H    0.000002  -0.000068  -0.000061   0.007810  -0.024269  -0.009688
    20  H    0.000068   0.000048  -0.000017  -0.000258   0.002823   0.000470
    21  H   -0.000147   0.000006  -0.000005  -0.000325  -0.003899   0.001234
    22  H    0.003449  -0.000437   0.000008   0.000081   0.000232  -0.000057
    23  H   -0.012097   0.008310  -0.000423  -0.002486   0.002560   0.005616
    24  H   -0.037635  -0.001391   0.000028  -0.001121   0.000764   0.000053
    25  H   -0.024878   0.004725  -0.000016   0.000004  -0.000007  -0.000004
    26  H    0.367095  -0.056151  -0.002800  -0.000082  -0.000015   0.000001
    27  H    0.368628  -0.044585   0.002053  -0.000053  -0.000028   0.000008
    28  H   -0.005007  -0.014418   0.316593  -0.043858   0.002583   0.000577
    29  H    0.001347  -0.044703   0.391461  -0.047465  -0.000521  -0.000235
    30  H    0.000001   0.001237  -0.000074  -0.008379  -0.045339   0.362336
    31  H   -0.000000  -0.000005  -0.000001  -0.000022  -0.014558  -0.039611
              13         14         15         16         17         18
     1  N   -0.000002   0.000000   0.346484   0.342165  -0.051093  -0.035259
     2  C    0.000276  -0.000012  -0.046972  -0.053585   0.394579   0.340576
     3  C   -0.011941   0.000106   0.004942   0.000448  -0.052905  -0.015374
     4  C   -0.001619   0.000128   0.000241  -0.000031   0.005590  -0.013738
     5  C   -0.000785   0.000205  -0.000031  -0.000004  -0.000055   0.001174
     6  C    0.000017   0.000000   0.000521   0.000099  -0.000191   0.009551
     7  C   -0.000003   0.000000  -0.000037  -0.000003   0.000053   0.000245
     8  S    0.000224  -0.000029  -0.000026   0.000000   0.000422  -0.001628
     9  C   -0.000090   0.000008   0.000024  -0.000021   0.000897  -0.005375
    10  C    0.003145  -0.000200  -0.000111  -0.000041   0.004731   0.008774
    11  C   -0.014032   0.002561  -0.000132  -0.000154   0.003834  -0.014902
    12  C    0.477543  -0.045597   0.000002  -0.000001   0.000366  -0.000528
    13  C    4.816132   0.464781   0.000000   0.000000   0.000017   0.000014
    14  S    0.464781  15.955775  -0.000000   0.000000  -0.000000   0.000001
    15  H    0.000000  -0.000000   0.506718  -0.032472  -0.001641  -0.009527
    16  H    0.000000   0.000000  -0.032472   0.512562  -0.007596   0.009257
    17  H    0.000017  -0.000000  -0.001641  -0.007596   0.678529  -0.060010
    18  H    0.000014   0.000001  -0.009527   0.009257  -0.060010   0.673799
    19  H    0.001621  -0.000032  -0.000201   0.001878  -0.005922   0.007334
    20  H    0.000050  -0.000021  -0.000311  -0.000253   0.000519  -0.000990
    21  H   -0.000381   0.000356   0.000004  -0.000019  -0.000155   0.000076
    22  H   -0.000040   0.000009   0.000001  -0.000000   0.000005   0.000067
    23  H    0.001806  -0.000016   0.000003   0.000001  -0.000007  -0.000222
    24  H    0.000002  -0.000000  -0.000179  -0.000475   0.001460  -0.002111
    25  H    0.000000   0.000000  -0.000024   0.000004  -0.000011  -0.000738
    26  H   -0.000000   0.000000   0.000014  -0.000000  -0.000003  -0.000270
    27  H    0.000001  -0.000000   0.000001   0.000000   0.000001   0.000083
    28  H    0.000008  -0.000000   0.000628   0.000002   0.002634   0.003052
    29  H   -0.000001   0.000000  -0.000009   0.000001  -0.000198   0.000054
    30  H   -0.044199   0.006388  -0.000000  -0.000000   0.000009  -0.000019
    31  H    0.352297  -0.060309  -0.000000  -0.000000   0.000004   0.000006
              19         20         21         22         23         24
     1  N   -0.000677   0.012876   0.000180  -0.000027  -0.000025   0.013738
     2  C   -0.048565  -0.006901   0.004693  -0.000039  -0.000148  -0.006146
     3  C    0.345327  -0.029727  -0.031873   0.004010  -0.005998  -0.005300
     4  C   -0.040596   0.358523   0.361347  -0.027977  -0.030378  -0.007596
     5  C    0.004900  -0.030855  -0.031422   0.365112   0.375268  -0.035754
     6  C   -0.000078  -0.006812   0.004174  -0.034749  -0.040717   0.367052
     7  C    0.000002   0.000068  -0.000147   0.003449  -0.012097  -0.037635
     8  S   -0.000068   0.000048   0.000006  -0.000437   0.008310  -0.001391
     9  C   -0.000061  -0.000017  -0.000005   0.000008  -0.000423   0.000028
    10  C    0.007810  -0.000258  -0.000325   0.000081  -0.002486  -0.001121
    11  C   -0.024269   0.002823  -0.003899   0.000232   0.002560   0.000764
    12  C   -0.009688   0.000470   0.001234  -0.000057   0.005616   0.000053
    13  C    0.001621   0.000050  -0.000381  -0.000040   0.001806   0.000002
    14  S   -0.000032  -0.000021   0.000356   0.000009  -0.000016  -0.000000
    15  H   -0.000201  -0.000311   0.000004   0.000001   0.000003  -0.000179
    16  H    0.001878  -0.000253  -0.000019  -0.000000   0.000001  -0.000475
    17  H   -0.005922   0.000519  -0.000155   0.000005  -0.000007   0.001460
    18  H    0.007334  -0.000990   0.000076   0.000067  -0.000222  -0.002111
    19  H    0.678819  -0.000765  -0.007754  -0.000153  -0.000032  -0.000182
    20  H   -0.000765   0.609547  -0.036322  -0.003089   0.005355   0.003693
    21  H   -0.007754  -0.036322   0.634959  -0.004513  -0.002343   0.000140
    22  H   -0.000153  -0.003089  -0.004513   0.642872  -0.035483   0.004558
    23  H   -0.000032   0.005355  -0.002343  -0.035483   0.590948   0.003880
    24  H   -0.000182   0.003693   0.000140   0.004558   0.003880   0.611522
    25  H    0.000008   0.000503  -0.000246  -0.017745   0.004272  -0.039333
    26  H   -0.000000   0.000003   0.000003  -0.000177   0.000334  -0.004988
    27  H   -0.000000   0.000001   0.000005   0.000491   0.001236   0.005586
    28  H   -0.000090   0.000015  -0.000002  -0.000002   0.000162   0.000743
    29  H    0.000013  -0.000000  -0.000000   0.000000  -0.000004  -0.000030
    30  H   -0.000271   0.000008   0.000014  -0.000000   0.000263   0.000001
    31  H    0.001790   0.000222   0.004304   0.000011   0.000001  -0.000001
              25         26         27         28         29         30
     1  N    0.000060  -0.000008  -0.000002   0.000031  -0.000010   0.000000
     2  C    0.000456   0.000077  -0.000013  -0.003225   0.000660  -0.000068
     3  C    0.000066   0.000001  -0.000004  -0.000640  -0.000002   0.005850
     4  C    0.003149  -0.000155  -0.000008   0.000340  -0.000018  -0.000017
     5  C   -0.030889   0.004382  -0.001778  -0.000190   0.000021  -0.000146
     6  C    0.353944  -0.036884  -0.028933  -0.002185   0.000017  -0.000004
     7  C   -0.024878   0.367095   0.368628  -0.005007   0.001347   0.000001
     8  S    0.004725  -0.056151  -0.044585  -0.014418  -0.044703   0.001237
     9  C   -0.000016  -0.002800   0.002053   0.316593   0.391461  -0.000074
    10  C    0.000004  -0.000082  -0.000053  -0.043858  -0.047465  -0.008379
    11  C   -0.000007  -0.000015  -0.000028   0.002583  -0.000521  -0.045339
    12  C   -0.000004   0.000001   0.000008   0.000577  -0.000235   0.362336
    13  C    0.000000  -0.000000   0.000001   0.000008  -0.000001  -0.044199
    14  S    0.000000   0.000000  -0.000000  -0.000000   0.000000   0.006388
    15  H   -0.000024   0.000014   0.000001   0.000628  -0.000009  -0.000000
    16  H    0.000004  -0.000000   0.000000   0.000002   0.000001  -0.000000
    17  H   -0.000011  -0.000003   0.000001   0.002634  -0.000198   0.000009
    18  H   -0.000738  -0.000270   0.000083   0.003052   0.000054  -0.000019
    19  H    0.000008  -0.000000  -0.000000  -0.000090   0.000013  -0.000271
    20  H    0.000503   0.000003   0.000001   0.000015  -0.000000   0.000008
    21  H   -0.000246   0.000003   0.000005  -0.000002  -0.000000   0.000014
    22  H   -0.017745  -0.000177   0.000491  -0.000002   0.000000  -0.000000
    23  H    0.004272   0.000334   0.001236   0.000162  -0.000004   0.000263
    24  H   -0.039333  -0.004988   0.005586   0.000743  -0.000030   0.000001
    25  H    0.650028   0.000539  -0.010970  -0.000040   0.000002  -0.000000
    26  H    0.000539   0.622535  -0.028697   0.005064   0.000047   0.000000
    27  H   -0.010970  -0.028697   0.588994   0.000171  -0.000076   0.000001
    28  H   -0.000040   0.005064   0.000171   0.638746  -0.050077   0.000037
    29  H    0.000002   0.000047  -0.000076  -0.050077   0.597770  -0.000096
    30  H   -0.000000   0.000000   0.000001   0.000037  -0.000096   0.597120
    31  H   -0.000000   0.000000  -0.000000   0.000000   0.000000   0.005443
              31
     1  N   -0.000002
     2  C    0.000075
     3  C    0.007549
     4  C   -0.004498
     5  C   -0.000266
     6  C   -0.000002
     7  C   -0.000000
     8  S   -0.000005
     9  C   -0.000001
    10  C   -0.000022
    11  C   -0.014558
    12  C   -0.039611
    13  C    0.352297
    14  S   -0.060309
    15  H   -0.000000
    16  H   -0.000000
    17  H    0.000004
    18  H    0.000006
    19  H    0.001790
    20  H    0.000222
    21  H    0.004304
    22  H    0.000011
    23  H    0.000001
    24  H   -0.000001
    25  H   -0.000000
    26  H    0.000000
    27  H   -0.000000
    28  H    0.000000
    29  H    0.000000
    30  H    0.005443
    31  H    0.623145
 Mulliken charges:
               1
     1  N   -0.521504
     2  C   -0.142918
     3  C   -0.137155
     4  C   -0.213045
     5  C   -0.202619
     6  C   -0.209564
     7  C   -0.212662
     8  S   -0.075052
     9  C   -0.276690
    10  C    0.003122
    11  C    0.257933
    12  C   -0.166274
    13  C   -0.044841
    14  S   -0.324101
    15  H    0.232091
    16  H    0.228239
    17  H    0.086139
    18  H    0.106631
    19  H    0.089904
    20  H    0.121598
    21  H    0.107910
    22  H    0.103579
    23  H    0.130366
    24  H    0.129019
    25  H    0.107140
    26  H    0.130135
    27  H    0.147889
    28  H    0.148347
    29  H    0.152052
    30  H    0.119904
    31  H    0.124427
 Sum of Mulliken charges =  -0.00000
 Mulliken charges with hydrogens summed into heavy atoms:
               1
     1  N   -0.061175
     2  C    0.049852
     3  C   -0.047250
     4  C    0.016463
     5  C    0.031326
     6  C    0.026595
     7  C    0.065362
     8  S   -0.075052
     9  C    0.023709
    10  C    0.003122
    11  C    0.257933
    12  C   -0.046370
    13  C    0.079586
    14  S   -0.324101
 Electronic spatial extent (au):  <R**2>=           3929.9027
 Charge=             -0.0000 electrons
 Dipole moment (field-independent basis, Debye):
    X=             -7.5924    Y=              2.4450    Z=             -0.6222  Tot=              8.0006
 Quadrupole moment (field-independent basis, Debye-Ang):
   XX=           -115.6094   YY=            -99.3144   ZZ=            -96.9249
   XY=              1.7656   XZ=              1.1013   YZ=             -4.5109
 Traceless Quadrupole moment (field-independent basis, Debye-Ang):
   XX=            -11.6598   YY=              4.6352   ZZ=              7.0246
   XY=              1.7656   XZ=              1.1013   YZ=             -4.5109
 Octapole moment (field-independent basis, Debye-Ang**2):
  XXX=           -151.8045  YYY=             34.0405  ZZZ=             14.8422  XYY=             -7.6289
  XXY=             19.7917  XXZ=            -16.1811  XZZ=            -21.4777  YZZ=             -1.5290
  YYZ=            -12.7682  XYZ=             10.1938
 Hexadecapole moment (field-independent basis, Debye-Ang**3):
 XXXX=          -3503.1211 YYYY=          -1353.4623 ZZZZ=           -860.8512 XXXY=            -21.8236
 XXXZ=            -18.0993 YYYX=            -47.8643 YYYZ=            -63.3280 ZZZX=              5.8680
 ZZZY=             -7.2985 XXYY=           -753.8818 XXZZ=           -647.4204 YYZZ=           -348.9458
 XXYZ=            -32.7914 YYXZ=             28.4744 ZZXY=              5.7217
 N-N= 1.121072112599D+03 E-N=-5.255234339505D+03  KE= 1.273770062989D+03
 PrsmSu:  requested number of processors reduced to:  13 ShMem   1 Linda.
 Calling FoFJK, ICntrl=      2127 FMM=F ISym2X=0 I1Cent= 0 IOpClX= 0 NMat=1 NMatS=1 NMatT=0.
 ***** Axes restored to original set *****
 -------------------------------------------------------------------
 Center     Atomic                   Forces (Hartrees/Bohr)
 Number     Number              X              Y              Z
 -------------------------------------------------------------------
      1        7          -0.011663109   -0.009711242   -0.001294206
      2        6           0.009026601    0.017634712    0.002459184
      3        6          -0.011609322   -0.006374157    0.008530974
      4        6           0.003350097   -0.005762550   -0.005149521
      5        6          -0.003887384   -0.010165006   -0.004519483
      6        6          -0.004433993    0.003935623    0.000211284
      7        6          -0.008871621    0.009575313   -0.007432388
      8       16           0.003907739   -0.002747881   -0.008130051
      9        6          -0.011795444   -0.021638345    0.002617077
     10        6           0.010023673   -0.039161748   -0.003226049
     11        6          -0.054158291    0.098128937    0.025472278
     12        6           0.040984345   -0.062700892   -0.046080519
     13        6           0.012236215    0.025475493    0.011676837
     14       16          -0.012645686    0.007989614    0.011849608
     15        1          -0.001769458   -0.009341634   -0.002900597
     16        1          -0.005303751   -0.002217410    0.000984243
     17        1           0.008788189   -0.006952125    0.003189555
     18        1           0.007417391    0.006897576    0.000684252
     19        1           0.001663719   -0.003401165   -0.005039995
     20        1          -0.000277277    0.004553727    0.005152791
     21        1           0.002561560    0.000100361    0.002421339
     22        1           0.002551818   -0.002027165    0.002249104
     23        1           0.001313269    0.000604552    0.003374348
     24        1           0.003072933   -0.004465237    0.006115980
     25        1           0.006150101    0.006377939   -0.001362861
     26        1           0.000274349    0.002111235   -0.000657918
     27        1           0.006813290    0.004361310    0.001393613
     28        1          -0.003864934   -0.000915295   -0.001867141
     29        1           0.010285767    0.001467080   -0.005582554
     30        1          -0.007025259   -0.001720346    0.002572857
     31        1           0.006884475    0.000088726    0.002287961
 -------------------------------------------------------------------
 Cartesian Forces:  Max     0.098128937 RMS     0.017017310

 GradGradGradGradGradGradGradGradGradGradGradGradGradGradGradGradGradGrad
 Berny optimization.
 FormGI is forming the generalized inverse of G from B-inverse, IUseBI=4.
 Internal  Forces:  Max     0.053486894 RMS     0.009746604
 Search for a local minimum.
 Step number   1 out of a maximum of  173
 All quantities printed in internal units (Hartrees-Bohrs-Radians)
 Mixed Optimization -- RFO/linear search
 Second derivative matrix not updated -- first step.
 ITU=  0
     Eigenvalues ---    0.00230   0.00236   0.00266   0.00850   0.00881
     Eigenvalues ---    0.00884   0.00902   0.01057   0.01135   0.01752
     Eigenvalues ---    0.02007   0.02340   0.02471   0.02955   0.02968
     Eigenvalues ---    0.02984   0.03014   0.03890   0.04085   0.04509
     Eigenvalues ---    0.04708   0.04738   0.04929   0.05424   0.05507
     Eigenvalues ---    0.05828   0.06072   0.06616   0.08128   0.09000
     Eigenvalues ---    0.09234   0.09261   0.09874   0.10272   0.11022
     Eigenvalues ---    0.11431   0.12165   0.12839   0.13054   0.13365
     Eigenvalues ---    0.14060   0.14483   0.14996   0.15957   0.16000
     Eigenvalues ---    0.16000   0.16000   0.17767   0.19160   0.21386
     Eigenvalues ---    0.22001   0.22013   0.22120   0.22529   0.22807
     Eigenvalues ---    0.23574   0.24289   0.24591   0.26616   0.26867
     Eigenvalues ---    0.27685   0.28119   0.28445   0.29132   0.33304
     Eigenvalues ---    0.33581   0.33695   0.33823   0.33998   0.34082
     Eigenvalues ---    0.34131   0.34143   0.34235   0.34329   0.34362
     Eigenvalues ---    0.34407   0.34433   0.34446   0.34662   0.35169
     Eigenvalues ---    0.37100   0.37555   0.38511   0.39206   0.43519
     Eigenvalues ---    0.45591   0.58684
 RFO step:  Lambda=-5.46027221D-02 EMin= 2.30000000D-03
 Linear search not attempted -- first point.
 Maximum step size (   0.300) exceeded in Quadratic search.
    -- Step size scaled by   0.808
 Iteration  1 RMS(Cart)=  0.15911983 RMS(Int)=  0.00622598
 Iteration  2 RMS(Cart)=  0.01193202 RMS(Int)=  0.00079121
 Iteration  3 RMS(Cart)=  0.00010135 RMS(Int)=  0.00078977
 Iteration  4 RMS(Cart)=  0.00000029 RMS(Int)=  0.00078977
 Variable       Old X    -DE/DX   Delta X   Delta X   Delta X     New X
                                 (Linear)    (Quad)   (Total)
    R1        2.73628   0.01769   0.00000   0.03252   0.03252   2.76880
    R2        1.93735  -0.00904   0.00000  -0.01491  -0.01491   1.92243
    R3        1.91295   0.00418   0.00000   0.00662   0.00662   1.91957
    R4        2.92832  -0.00417   0.00000  -0.01018  -0.01018   2.91814
    R5        2.07191   0.00539   0.00000   0.01102   0.01102   2.08294
    R6        2.02396   0.00742   0.00000   0.01409   0.01409   2.03805
    R7        2.94321  -0.00247   0.00000  -0.00511  -0.00478   2.93843
    R8        2.94650  -0.00385   0.00000  -0.00613  -0.00576   2.94074
    R9        2.07629   0.00067   0.00000   0.00139   0.00139   2.07768
   R10        2.91385   0.00367   0.00000   0.01182   0.01176   2.92561
   R11        2.07110  -0.00014   0.00000  -0.00029  -0.00029   2.07081
   R12        2.06779  -0.00041   0.00000  -0.00084  -0.00084   2.06695
   R13        2.88839   0.00827   0.00000   0.02634   0.02628   2.91467
   R14        2.07848  -0.00244   0.00000  -0.00505  -0.00505   2.07343
   R15        2.06584   0.00100   0.00000   0.00203   0.00203   2.06787
   R16        2.90893   0.00380   0.00000   0.01053   0.01019   2.91912
   R17        2.05401   0.00284   0.00000   0.00566   0.00566   2.05967
   R18        2.08043  -0.00128   0.00000  -0.00264  -0.00264   2.07779
   R19        3.48391   0.00001   0.00000  -0.00475  -0.00515   3.47877
   R20        2.06606   0.00131   0.00000   0.00265   0.00265   2.06871
   R21        2.06723   0.00153   0.00000   0.00311   0.00311   2.07033
   R22        3.44636   0.00772   0.00000   0.02070   0.02060   3.46696
   R23        2.78658  -0.01369   0.00000  -0.03297  -0.03288   2.75370
   R24        2.07090   0.00315   0.00000   0.00643   0.00643   2.07733
   R25        2.06648   0.00171   0.00000   0.00346   0.00346   2.06994
   R26        2.74344  -0.05255   0.00000  -0.10158  -0.10128   2.64215
   R27        2.51997   0.05349   0.00000   0.06740   0.06740   2.58737
   R28        2.81821  -0.04273   0.00000  -0.08910  -0.08910   2.72911
   R29        2.06936  -0.00703   0.00000  -0.01432  -0.01432   2.05504
   R30        3.16347  -0.01899   0.00000  -0.03436  -0.03436   3.12912
   R31        2.07333  -0.00646   0.00000  -0.01322  -0.01322   2.06011
    A1        1.85451   0.00616   0.00000   0.02554   0.02528   1.87979
    A2        1.92176   0.00607   0.00000   0.02498   0.02474   1.94650
    A3        1.85743  -0.00363   0.00000  -0.00862  -0.00916   1.84827
    A4        2.13922  -0.03495   0.00000  -0.10595  -0.10659   2.03262
    A5        1.92220   0.01971   0.00000   0.05108   0.04607   1.96827
    A6        1.74952   0.01344   0.00000   0.06584   0.06727   1.81679
    A7        1.95952   0.00151   0.00000  -0.02374  -0.02511   1.93441
    A8        1.80693   0.00833   0.00000   0.03867   0.04197   1.84890
    A9        1.84545  -0.00373   0.00000   0.00046  -0.00114   1.84431
   A10        1.91408   0.00784   0.00000   0.03560   0.03582   1.94991
   A11        1.88425   0.00711   0.00000   0.04573   0.04579   1.93004
   A12        1.87133  -0.00769   0.00000  -0.03526  -0.03475   1.83657
   A13        1.98044  -0.01074   0.00000  -0.03652  -0.03710   1.94334
   A14        1.91345   0.00048   0.00000  -0.00926  -0.00972   1.90373
   A15        1.89698   0.00308   0.00000  -0.00028  -0.00064   1.89634
   A16        2.05743   0.00387   0.00000   0.01841   0.01997   2.07740
   A17        1.90290  -0.00725   0.00000  -0.01943  -0.02021   1.88270
   A18        1.91852   0.00075   0.00000  -0.01549  -0.01602   1.90250
   A19        1.90864   0.00554   0.00000   0.02252   0.02200   1.93064
   A20        1.85469  -0.00593   0.00000  -0.02421  -0.02447   1.83022
   A21        1.80460   0.00313   0.00000   0.01872   0.01897   1.82357
   A22        2.03124   0.01441   0.00000   0.05325   0.05358   2.08482
   A23        1.85000  -0.00628   0.00000  -0.01683  -0.01784   1.83216
   A24        1.93156  -0.00439   0.00000  -0.02325  -0.02304   1.90852
   A25        1.86473   0.00225   0.00000   0.01089   0.01052   1.87525
   A26        1.94363  -0.00906   0.00000  -0.02955  -0.02918   1.91444
   A27        1.82721   0.00242   0.00000   0.00296   0.00284   1.83005
   A28        2.03428  -0.00472   0.00000  -0.00343  -0.00384   2.03045
   A29        1.98708  -0.00421   0.00000  -0.01822  -0.01808   1.96899
   A30        1.87158   0.00832   0.00000   0.02455   0.02456   1.89614
   A31        1.93900   0.00547   0.00000   0.01005   0.01021   1.94921
   A32        1.86240  -0.00616   0.00000  -0.03434  -0.03421   1.82819
   A33        1.73887   0.00246   0.00000   0.02521   0.02534   1.76422
   A34        2.22999  -0.01322   0.00000  -0.04184  -0.04208   2.18791
   A35        1.88418   0.00367   0.00000   0.01865   0.01868   1.90286
   A36        1.83201   0.01172   0.00000   0.03955   0.03916   1.87117
   A37        1.84548   0.00618   0.00000   0.01413   0.01450   1.85998
   A38        1.77868  -0.00496   0.00000  -0.02288  -0.02242   1.75626
   A39        1.86582  -0.00311   0.00000  -0.00640  -0.00701   1.85881
   A40        1.81426   0.00958   0.00000   0.00637   0.00619   1.82045
   A41        1.82502   0.00406   0.00000   0.00305   0.00322   1.82824
   A42        1.88100   0.00066   0.00000   0.00906   0.00911   1.89011
   A43        1.97820  -0.01045   0.00000  -0.04862  -0.04949   1.92871
   A44        1.98839   0.00352   0.00000   0.01750   0.01723   2.00562
   A45        2.00028  -0.00457   0.00000  -0.01611  -0.01691   1.98337
   A46        1.79249   0.00655   0.00000   0.03494   0.03504   1.82753
   A47        2.63790  -0.01163   0.00000  -0.04370  -0.04197   2.59593
   A48        1.98549   0.02816   0.00000   0.08542   0.08600   2.07149
   A49        2.21271  -0.00797   0.00000  -0.02244  -0.02300   2.18971
   A50        2.05835  -0.01935   0.00000  -0.05378  -0.05448   2.00387
   A51        2.15948   0.00865   0.00000   0.02596   0.02578   2.18525
   A52        2.11595  -0.00673   0.00000  -0.02101  -0.02119   2.09475
   A53        2.00336  -0.00163   0.00000  -0.00193  -0.00210   2.00126
   A54        2.18950  -0.00268   0.00000  -0.00759  -0.00817   2.18132
   A55        2.01781   0.00218   0.00000   0.00752   0.00693   2.02474
   A56        2.07551   0.00063   0.00000   0.00168   0.00109   2.07660
    D1       -2.82900  -0.00541   0.00000  -0.04831  -0.04795  -2.87695
    D2        1.08938   0.00775   0.00000   0.04998   0.05180   1.14118
    D3       -0.84944  -0.00091   0.00000   0.00190   0.00016  -0.84928
    D4        1.44954  -0.00745   0.00000  -0.06422  -0.06415   1.38538
    D5       -0.91527   0.00570   0.00000   0.03407   0.03560  -0.87967
    D6       -2.85409  -0.00295   0.00000  -0.01401  -0.01605  -2.87013
    D7        0.84412   0.00656   0.00000   0.05105   0.04841   0.89254
    D8        3.00989   0.00287   0.00000   0.05821   0.05768   3.06757
    D9       -1.23226   0.00611   0.00000   0.06293   0.06126  -1.17100
   D10       -3.08870  -0.00030   0.00000  -0.02133  -0.02089  -3.10958
   D11       -0.92293  -0.00399   0.00000  -0.01417  -0.01162  -0.93455
   D12        1.11811  -0.00074   0.00000  -0.00945  -0.00804   1.11007
   D13       -1.10639   0.00061   0.00000  -0.00993  -0.01081  -1.11720
   D14        1.05937  -0.00308   0.00000  -0.00278  -0.00155   1.05783
   D15        3.10041   0.00016   0.00000   0.00195   0.00203   3.10245
   D16        1.30058   0.01227   0.00000   0.10487   0.10452   1.40510
   D17       -0.88787   0.00799   0.00000   0.07634   0.07612  -0.81176
   D18       -2.85460   0.00776   0.00000   0.07271   0.07254  -2.78206
   D19       -0.80794   0.00477   0.00000   0.04530   0.04545  -0.76249
   D20       -2.99640   0.00048   0.00000   0.01677   0.01705  -2.97935
   D21        1.32006   0.00026   0.00000   0.01314   0.01347   1.33353
   D22       -2.93237   0.00783   0.00000   0.07756   0.07726  -2.85512
   D23        1.16236   0.00355   0.00000   0.04903   0.04886   1.21122
   D24       -0.80437   0.00333   0.00000   0.04539   0.04528  -0.75909
   D25       -0.25975  -0.00690   0.00000  -0.06717  -0.06587  -0.32562
   D26        3.13499  -0.00870   0.00000  -0.10442  -0.10458   3.03041
   D27        1.86550   0.00112   0.00000  -0.01320  -0.01235   1.85315
   D28       -1.02295  -0.00068   0.00000  -0.05045  -0.05106  -1.07401
   D29       -2.28409  -0.00326   0.00000  -0.04988  -0.04895  -2.33305
   D30        1.11065  -0.00506   0.00000  -0.08713  -0.08766   1.02298
   D31       -1.17301   0.00649   0.00000   0.01378   0.01339  -1.15962
   D32        3.04029  -0.00043   0.00000  -0.01964  -0.01969   3.02060
   D33        1.06870   0.00215   0.00000  -0.00321  -0.00350   1.06520
   D34        1.01263   0.00451   0.00000   0.02179   0.02187   1.03450
   D35       -1.05726  -0.00241   0.00000  -0.01163  -0.01120  -1.06846
   D36       -3.02885   0.00017   0.00000   0.00480   0.00498  -3.02387
   D37        2.94987   0.00769   0.00000   0.04158   0.04123   2.99110
   D38        0.87998   0.00077   0.00000   0.00815   0.00816   0.88814
   D39       -1.09160   0.00336   0.00000   0.02459   0.02434  -1.06726
   D40        2.23452   0.00090   0.00000   0.00492   0.00496   2.23948
   D41       -0.05834   0.00189   0.00000   0.01240   0.01224  -0.04611
   D42       -1.96401  -0.00381   0.00000  -0.02309  -0.02329  -1.98730
   D43       -1.98682   0.00332   0.00000   0.02381   0.02426  -1.96256
   D44        2.00350   0.00431   0.00000   0.03129   0.03153   2.03503
   D45        0.09783  -0.00140   0.00000  -0.00419  -0.00399   0.09385
   D46       -0.00132   0.00289   0.00000   0.01857   0.01872   0.01740
   D47       -2.29418   0.00388   0.00000   0.02605   0.02600  -2.26818
   D48        2.08334  -0.00183   0.00000  -0.00944  -0.00952   2.07382
   D49       -0.78202   0.00639   0.00000   0.01924   0.01940  -0.76261
   D50       -3.01113   0.00520   0.00000   0.01564   0.01591  -2.99522
   D51        1.28645   0.00161   0.00000  -0.00385  -0.00422   1.28223
   D52        1.53294   0.00113   0.00000  -0.00088  -0.00072   1.53221
   D53       -0.69618  -0.00006   0.00000  -0.00448  -0.00422  -0.70040
   D54       -2.68178  -0.00365   0.00000  -0.02396  -0.02435  -2.70613
   D55       -2.87160   0.00329   0.00000   0.01553   0.01563  -2.85597
   D56        1.18247   0.00210   0.00000   0.01193   0.01213   1.19460
   D57       -0.80313  -0.00149   0.00000  -0.00755  -0.00800  -0.81113
   D58       -0.94981   0.00352   0.00000  -0.00404  -0.00391  -0.95372
   D59        1.29422   0.00398   0.00000   0.00204   0.00202   1.29624
   D60       -3.04112   0.00076   0.00000  -0.00903  -0.00960  -3.05071
   D61        1.66582   0.00975   0.00000   0.05364   0.05338   1.71920
   D62       -0.45573   0.00315   0.00000   0.02710   0.02673  -0.42900
   D63       -2.42696   0.00036   0.00000   0.00510   0.00559  -2.42137
   D64       -1.06012  -0.00436   0.00000  -0.01038  -0.01096  -1.07108
   D65        0.98905   0.00085   0.00000   0.01169   0.01156   1.00062
   D66        3.04663   0.00880   0.00000   0.05927   0.05870   3.10534
   D67       -0.80476  -0.00307   0.00000  -0.04566  -0.04639  -0.85115
   D68        2.10778  -0.00044   0.00000  -0.00936  -0.00947   2.09831
   D69       -0.01238   0.00058   0.00000  -0.00567  -0.00614  -0.01851
   D70        3.02321   0.00407   0.00000   0.03040   0.02973   3.05294
   D71       -2.89151  -0.00738   0.00000  -0.06212  -0.06145  -2.95296
   D72        0.14407  -0.00389   0.00000  -0.02605  -0.02558   0.11849
   D73        2.96674   0.00354   0.00000   0.04274   0.04284   3.00958
   D74       -0.14525  -0.00152   0.00000  -0.02192  -0.02180  -0.16704
   D75       -0.07504   0.00059   0.00000   0.00997   0.00985  -0.06520
   D76        3.09616  -0.00448   0.00000  -0.05469  -0.05479   3.04137
         Item               Value     Threshold  Converged?
 Maximum Force            0.053487     0.000450     NO 
 RMS     Force            0.009747     0.000300     NO 
 Maximum Displacement     0.822531     0.001800     NO 
 RMS     Displacement     0.163111     0.001200     NO 
 Predicted change in Energy=-3.174244D-02
 GradGradGradGradGradGradGradGradGradGradGradGradGradGradGradGradGradGrad

                          Input orientation:                          
 ---------------------------------------------------------------------
 Center     Atomic      Atomic             Coordinates (Angstroms)
 Number     Number       Type             X           Y           Z
 ---------------------------------------------------------------------
      1          7           0        0.499062   -0.683244    0.233495
      2          6           0        1.951706   -0.501131    0.292130
      3          6           0        2.798354   -1.429559   -0.605536
      4          6           0        2.296906   -1.420925   -2.077386
      5          6           0        2.716760   -0.256448   -3.007191
      6          6           0        2.203458    1.168729   -2.716810
      7          6           0        3.272898    2.281156   -2.646123
      8         16           0        4.893491    2.147618   -1.783165
      9          6           0        4.455796    1.658784   -0.069878
     10          6           0        4.651470    0.215222   -0.034474
     11          6           0        4.305003   -1.050016   -0.518208
     12          6           0        5.334460   -1.748044   -1.090585
     13          6           0        5.191876   -2.966214   -1.853083
     14         16           0        6.411191   -3.709887   -2.690988
[...]
 610,0.00002066,-0.00000762,-0.00006396,0.00007142,-0.00000395,-0.00002
 637,0.00037767,-0.00015186,0.00086334,-0.00050544,-0.00157649,-0.00021
 030,-0.01867678,0.02274736,0.00237951,-0.01205446,0.01492779,0.0505320
 9,0.00004153,-0.00006367,0.00005918,0.00007384,-0.00004195,-0.00001563
 ,-0.00028791,0.00006701,0.00014447,-0.00097229,-0.00065739,-0.00088566
 ,-0.00079073,0.00006136,0.00475831,-0.01019067,-0.01896497,-0.00573227
 ,-0.09602848,-0.10438782,-0.02941392,-0.00079400,0.02516200,0.00650119
 ,0.00179082,-0.00075617,0.00205494,-0.00000210,-0.00017823,-0.00010791
 ,-0.00021539,-0.00006907,-0.00012434,0.00009864,0.00007394,-0.00014811
 ,0.00003770,-0.00001011,0.00005670,-0.00000894,0.00000154,-0.00003077,
 0.00001717,-0.00001140,0.00000630,-0.00000248,0.00000639,-0.00000490,0
 .00000833,-0.00007786,0.00005801,-0.00001134,0.00000903,-0.00001898,0.
 00000942,-0.00001322,-0.00000586,0.00004392,0.00001882,0.00005275,-0.0
 0001150,-0.00030194,0.00041678,-0.00013432,-0.00000663,-0.00012976,0.0
 0012846,0.00032950,0.00004922,0.00088546,0.00043954,0.00031617,0.00022
 451,0.00032041,-0.00051862,0.11194645,-0.00002079,-0.00002038,0.000019
 09,0.00002253,0.00001704,-0.00001886,-0.00003714,-0.00001923,0.0000064
 8,-0.00030544,-0.00007667,-0.00028711,-0.00053408,0.00123409,0.0011962
 8,-0.00363168,-0.00548431,-0.00233934,-0.11252535,-0.23963775,-0.04956
 624,0.00356496,-0.01828494,-0.00663000,-0.00127166,0.00106506,-0.00044
 236,-0.00000384,-0.00001135,0.00013513,0.00002692,0.00007820,-0.000125
 93,0.00006659,-0.00013067,0.00011246,-0.00009690,0.00008922,-0.0000736
 4,0.00005379,-0.00001939,0.00008501,0.00000927,-0.00001048,0.00000184,
 0.00000560,0.00000617,-0.00000386,-0.00000419,-0.00000942,0.00000716,-
 0.00000870,0.00000009,0.00000962,0.00003788,0.00003544,0.00000875,-0.0
 0001104,0.00000572,0.00002125,0.00001106,-0.00008492,0.00011696,-0.000
 23260,-0.00020121,0.00004450,0.00038572,0.00017058,0.00006985,0.000464
 09,0.00001506,0.00010541,-0.00045143,0.00070829,0.00024654,0.11276731,
 0.25662375,-0.00004630,0.00002717,-0.00003448,-0.00002612,0.00004056,-
 0.00000855,0.00014433,-0.00003734,-0.00004963,0.00083719,0.00071312,0.
 00053746,0.00240610,-0.00055964,-0.00331416,0.01258738,0.02135946,0.00
 512111,-0.02850125,-0.05039342,-0.06179548,-0.00066374,-0.00315017,-0.
 00033639,0.00091293,0.00175717,0.00063548,-0.00000733,0.00002201,-0.00
 035031,0.00006586,-0.00000353,0.00005877,-0.00005237,-0.00006083,0.000
 05984,-0.00006020,0.00005129,-0.00005109,0.00002360,-0.00002259,0.0000
 4433,-0.00000903,0.00000240,-0.00000389,0.00000302,-0.00000276,0.00000
 347,-0.00000670,0.00004154,-0.00003247,0.00000768,-0.00000482,0.000008
 12,-0.00002403,-0.00000416,0.00000664,-0.00004862,-0.00002863,0.000003
 23,0.00001915,0.00024585,-0.00033393,0.00045065,0.00044045,0.00007154,
 -0.00019480,0.00007768,-0.00003985,-0.00096683,0.00000259,0.00083357,-
 0.00058415,-0.00046087,0.00088084,0.02590128,0.05530753,0.06416414,0.0
 0004378,0.00000567,-0.00000332,-0.00002605,-0.00000080,0.00003761,-0.0
 0000287,0.00009982,-0.00005701,-0.00013149,0.00018826,0.00014974,0.001
 32671,0.00069362,-0.00024604,0.01020768,-0.00300815,0.02248850,-0.0930
 1448,0.00861188,-0.10472241,-0.00920943,0.00311345,-0.01611586,-0.0039
 1799,0.00331371,0.00205910,-0.00017331,-0.00026622,0.00038415,0.000111
 09,0.00002342,-0.00010915,0.00003376,0.00012460,-0.00010113,0.00011560
 ,-0.00011918,0.00007103,-0.00004564,0.00003596,-0.00007489,-0.00000158
 ,0.00000999,-0.00000006,-0.00000561,-0.00000167,-0.00000335,0.00000912
 ,-0.00001296,0.00000071,-0.00000111,0.00000142,-0.00001066,0.00004336,
 -0.00000181,0.00000309,0.00002648,-0.00009024,-0.00016245,0.00002445,-
 0.00007228,-0.00007048,-0.00023198,0.00013778,-0.00009825,0.00003468,-
 0.00003455,-0.00023337,-0.00311404,-0.00136780,0.00377828,0.00113124,0
 .00016207,-0.00098322,-0.00609407,0.00128637,-0.01241213,0.10293779,-0
 .00004938,0.00000639,-0.00001265,-0.00002372,0.00002360,-0.00002852,0.
 00012167,0.00001837,-0.00003945,0.00000003,-0.00019765,0.00007111,0.00
 075834,0.00051817,0.00011889,0.00305148,-0.00064446,0.00702930,0.00860
 992,-0.04696416,0.02487006,0.00998042,-0.00417579,0.01708762,0.0040798
 2,-0.00370366,-0.00214178,-0.00004196,0.00029096,-0.00044311,0.0000573
 1,0.00002594,0.00005215,-0.00003860,-0.00018095,0.00014860,-0.00012751
 ,0.00013285,-0.00006404,0.00005757,-0.00003845,0.00008185,-0.00000351,
 -0.00000535,-0.00000190,0.00000647,-0.00000736,0.00000984,-0.00000806,
 0.00003800,-0.00002300,0.00000771,-0.00000162,0.00000231,-0.00003440,-
 0.00004041,-0.00000126,-0.00001544,-0.00001290,-0.00013176,-0.00001958
 ,0.00001545,-0.00005518,-0.00012408,0.00016541,0.00011479,0.00019117,-
 0.00028840,-0.00002096,-0.00097249,0.00071004,0.00127877,-0.00008954,0
 .00029661,-0.00056443,-0.01263854,0.00377548,-0.02472566,-0.01318449,0
 .05018336,0.00000816,0.00001902,-0.00000750,0.00000351,-0.00002626,0.0
 0000610,-0.00001916,-0.00008833,0.00005585,0.00010035,0.00002168,-0.00
 000263,-0.00042891,-0.00101344,0.00098266,-0.00928512,0.00247180,-0.02
 153898,-0.10200903,0.02133703,-0.25691118,0.00045278,0.00068082,0.0039
 4373,0.00114455,-0.00141786,0.00012243,0.00044746,0.00024109,-0.000003
 37,-0.00024121,-0.00002796,0.00010115,-0.00003388,-0.00011375,0.000124
 32,-0.00005973,0.00003561,-0.00000803,0.00000911,0.00000744,-0.0000006
 8,-0.00000323,0.00000223,-0.00000163,-0.00000238,0.00000073,-0.0000001
 7,-0.00000034,0.00001026,-0.00000108,0.00000093,-0.00000363,0.00000861
 ,-0.00002116,0.00002731,-0.00001273,-0.00011437,-0.00005563,0.00022054
 ,0.00000151,0.00008861,0.00004116,0.00045977,0.00043664,0.00002710,0.0
 0016729,0.00054177,0.00025723,0.00430660,0.00063273,-0.00204470,-0.000
 09668,-0.00048799,0.00081473,-0.00282909,0.00093023,-0.00644799,0.1075
 0992,-0.02425817,0.27972079,-0.00002812,-0.00002300,0.00001111,-0.0000
 7876,0.00006958,-0.00006176,-0.00003623,-0.00022420,0.00002352,0.00009
 290,-0.00008068,0.00011186,0.00008518,-0.00023387,0.00004704,-0.000416
 04,0.00012650,-0.00045968,0.00056176,-0.00111886,0.00073058,-0.0035329
 2,-0.00684312,-0.01177372,-0.04569998,-0.03671153,-0.01188737,-0.00654
 303,-0.02147404,-0.00506968,0.00053015,0.00084305,0.00082950,-0.000112
 68,0.00074895,0.00086186,-0.00019528,0.00002224,0.00024657,0.00007012,
 -0.00002492,-0.00001910,-0.00000329,-0.00001428,-0.00000152,-0.0000026
 7,0.00000238,-0.00000194,-0.00000036,0.00000199,0.00000147,0.00001111,
 0.00000497,0.00001097,-0.00012043,-0.00001323,0.00000484,-0.00003185,0
 .00002972,0.00004502,-0.00000105,0.00003222,-0.00001634,0.00005330,0.0
 0011483,0.00002385,0.00004727,0.00007337,0.00002421,-0.00026474,-0.000
 14065,0.00047386,0.00006086,0.00003180,0.00018830,0.00010095,0.0005601
 8,0.00017392,0.00038021,-0.00010288,0.00017433,0.05079647,-0.00009996,
 -0.00006025,0.00004006,-0.00005028,0.00015993,-0.00015905,-0.00007892,
 -0.00006025,0.00002624,0.00013412,-0.00037721,0.00019585,-0.00000664,0
 .00002342,0.00014906,-0.00006032,-0.00001442,-0.00018382,-0.00007050,0
 .00193177,0.00015474,0.00259927,0.00513465,0.00369532,-0.03188389,-0.2
 5623852,-0.09507612,-0.00798665,-0.01936220,-0.00282583,0.00200696,0.0
 0098178,-0.00035321,-0.00029614,0.00127285,0.00091831,-0.00011939,0.00
 007542,-0.00008240,0.00015042,-0.00006885,0.00019681,0.00000013,-0.000
 03207,0.00000050,0.00000962,0.00000911,0.00000208,-0.00000183,-0.00000
 101,-0.00000618,0.00000666,0.00000641,0.00001757,-0.00016011,-0.000083
 59,0.00003166,-0.00001030,0.00004235,-0.00000969,-0.00003626,0.0000630
 5,-0.00005089,0.00001862,0.00006927,-0.00000866,0.00003595,-0.00003170
 ,0.00000542,-0.00014520,-0.00011869,0.00013596,0.00002653,-0.00000021,
 -0.00004857,-0.00102078,-0.00017487,-0.00059955,-0.00004212,0.00010573
 ,0.00007898,0.03823492,0.27921183,0.00013251,0.00007310,-0.00003564,0.
 00003606,-0.00018859,0.00021030,-0.00010561,-0.00038929,-0.00029944,0.
 00005132,0.00043660,-0.00015829,0.00011796,-0.00013807,-0.00023051,-0.
 00036880,0.00044379,0.00007671,0.00256304,-0.00050206,0.00203925,-0.00
 710477,-0.01640047,-0.01985480,-0.01255917,-0.09856986,-0.08207098,0.0
 0467012,0.02107842,0.00879570,0.00073601,0.00007335,-0.00086029,0.0001
 5443,-0.00151057,0.00087121,-0.00016579,-0.00014179,-0.00003372,-0.000
 05300,0.00008621,-0.00011569,0.00000262,0.00003903,0.00000051,-0.00001
 169,-0.00000459,-0.00001168,0.00000259,-0.00000928,0.00001329,-0.00000
 659,-0.00000861,-0.00000576,0.00021377,0.00013361,0.00002310,-0.000010
 71,-0.00004666,0.00004354,0.00009740,-0.00009941,0.00007860,-0.0000292
 6,-0.00000052,0.00008418,0.00005041,0.00013722,0.00003279,-0.00012001,
 0.00001146,0.00011235,-0.00013688,-0.00006810,0.00016966,-0.00078908,0
 .00122767,0.00030835,0.00063472,-0.00018832,0.00004529,0.01268959,0.09
 918273,0.09279524,-0.00006288,-0.00002633,0.00006829,-0.00007408,-0.00
 005170,-0.00014354,-0.00016602,0.00017263,0.00030703,0.00001751,-0.000
 14707,0.00000858,-0.00001327,0.00000242,0.00007766,0.00038867,-0.00030
 030,-0.00009289,-0.00037652,-0.00047319,-0.00235428,-0.00791400,0.0045
 8671,-0.00149701,-0.25902199,0.09947557,0.03851512,-0.02070846,0.00116
 343,0.00641045,0.00208836,0.00095656,0.00004445,0.00111073,-0.00147422
 ,-0.00002165,0.00011329,0.00027547,0.00072376,0.00012530,-0.00017460,0
 .00013438,-0.00001561,-0.00001902,-0.00000477,0.00000711,0.00000150,0.
 00000339,0.00000488,0.00000832,-0.00000761,-0.00000892,0.00000179,0.00
 000709,0.00005335,-0.00000840,0.00007778,-0.00000606,0.00000458,0.0000
 0156,-0.00004706,0.00004519,-0.00001639,0.00000277,0.00001145,-0.00001
 338,0.00002101,0.00002218,-0.00001304,0.00004178,-0.00007684,0.0000589
 1,0.00006198,0.00003882,-0.00006458,0.00015718,-0.00010710,0.00003627,
 -0.00040938,0.00053524,0.00034588,0.00396740,-0.00145704,-0.00043541,0
 .28076388,-0.00007961,-0.00002376,0.00007878,-0.00008925,-0.00002894,-
 0.00016968,0.00020569,-0.00017345,0.00021816,0.00005621,-0.00016754,0.
 00007949,0.00001636,-0.00004828,0.00006328,-0.00024956,0.00009478,0.00
 011380,0.00048838,-0.00017678,0.00101802,0.00135230,-0.00146683,-0.000
 56610,0.09698335,-0.08522620,-0.01611575,-0.02333775,0.00735126,0.0050
 8776,-0.00022054,-0.00137529,0.00039728,0.00133831,-0.00016200,-0.0005
 2802,0.00019284,0.00043064,0.00026689,0.00001293,-0.00022711,0.0000615
 1,-0.00002236,-0.00002230,-0.00000215,0.00000953,0.00000535,0.00000504
 ,0.00000261,0.00001238,-0.00001798,-0.00000847,0.00000066,0.00001446,-
 0.00006047,-0.00006776,0.00003680,-0.00000705,0.00001230,-0.00000394,-
 0.00005368,0.00005283,-0.00003777,0.00002452,0.00005310,-0.00002190,0.
 00000872,0.00000149,0.00000342,-0.00011358,-0.00012606,0.00004508,-0.0
 0002672,0.00000730,0.00000285,-0.00005755,0.00035217,-0.00005302,0.000
 39868,-0.00004565,-0.00004886,0.02615246,-0.01218188,-0.00430350,-0.10
 291399,0.09340558,0.00015082,0.00004554,-0.00009851,0.00005430,-0.0000
 3683,0.00027841,-0.00030576,0.00027203,-0.00006213,-0.00011568,0.00037
 091,-0.00021607,0.00000268,0.00009152,0.00009892,0.00031553,0.00003444
 ,-0.00052751,-0.00262492,-0.00172033,-0.00678426,-0.02076149,0.0124224
 6,0.00117999,0.03482470,-0.01611700,-0.04561860,0.02076993,-0.00578449
 ,-0.00465327,0.00000258,0.00027376,0.00028694,-0.00115240,0.00026455,0
 .00126534,-0.00010586,-0.00029515,-0.00019565,-0.00016438,0.00023822,-
 0.00031953,0.00001832,0.00003746,0.00000105,-0.00002228,-0.00001478,-0
 .00000469,0.00000217,-0.00002419,0.00003526,0.00001282,-0.00000707,-0.
 00002399,0.00020811,0.00016037,-0.00006493,0.00000260,-0.00006044,0.00
 000839,0.00010740,-0.00009521,0.00008639,0.00000089,-0.00004201,0.0000
 3751,0.00007701,0.00007382,-0.00004770,0.00001904,0.00004588,0.0001904
 5,-0.00006336,-0.00006283,0.00019469,0.00041035,-0.00022254,0.00006480
 ,-0.00168618,0.00181612,0.00049395,0.01234907,-0.00595565,-0.00151349,
 -0.04224031,0.01436486,0.05594660,-0.00001482,0.00001197,0.00024828,-0
 .00021067,0.00006466,-0.00016188,0.00166290,-0.00167115,-0.00056983,0.
 00052777,0.00017730,-0.00011145,0.00002757,0.00002865,-0.00003972,-0.0
 0006115,0.00000743,-0.00003243,0.00008789,-0.00006561,-0.00002272,0.00
 001439,-0.00028135,0.00058467,0.00030822,0.00235396,0.00132523,-0.0050
 3060,0.00201430,-0.00006597,0.00660232,-0.00932837,-0.01950947,-0.0505
 2800,0.02907611,0.03094933,-0.00376239,0.01233180,0.01506772,-0.000060
 99,-0.00167405,0.00034327,-0.00003522,-0.00004853,-0.00001288,0.000030
 35,0.00006039,-0.00003672,0.00002009,-0.00005496,0.00002050,-0.0002409
 5,-0.00010231,0.00017389,-0.00068964,-0.00030877,-0.00015144,-0.000096
 08,0.00010694,0.00001260,0.00012558,-0.00006548,0.00009539,-0.00003646
 ,0.00000394,0.00002512,0.00000349,0.00000450,0.00007292,0.00006664,-0.
 00000379,-0.00003286,-0.00002500,0.00000198,0.00000164,-0.00001796,-0.
 00001451,0.00002984,-0.00004430,0.00001501,0.00000869,0.00030728,0.000
 34909,-0.00031788,-0.00007250,0.00004114,-0.00017272,0.05031948,0.0000
 3570,0.00007440,0.00010900,0.00013125,-0.00021559,-0.00011771,0.000670
 60,-0.00108515,-0.00118437,0.00020658,0.00014197,-0.00006801,-0.000000
 08,0.00007106,-0.00002938,0.00001310,0.00007921,0.00015249,-0.00004888
 ,-0.00000641,0.00000702,0.00001442,-0.00032754,0.00043848,0.00060304,0
 .00189619,-0.00046149,-0.00093400,0.01160569,0.01173176,-0.00058997,-0
 .00091008,0.00046333,0.03155225,-0.15355223,-0.12529367,0.00339630,-0.
 01649206,-0.02151253,-0.00138328,0.00140308,0.00104294,-0.00001562,-0.
 00000039,-0.00000338,0.00003403,0.00002618,0.00000226,0.00001538,-0.00
 000500,-0.00005263,-0.00019702,0.00010012,0.00009124,-0.00027902,-0.00
 013090,-0.00003989,0.00002753,0.00001545,0.00001026,0.00009558,-0.0000
 6406,0.00002926,-0.00000876,-0.00003828,0.00000789,-0.00001122,-0.0000
 1683,0.00000920,-0.00001569,-0.00000323,-0.00009205,-0.00002101,-0.000
 00443,-0.00004733,0.00000858,-0.00002269,0.00001213,0.00000719,-0.0000
 0788,-0.00002317,-0.00002745,-0.00027000,-0.00031786,-0.00005372,-0.00
 006543,-0.00014348,-0.03751383,0.16024514,-0.00011724,-0.00010310,0.00
 024994,-0.00020128,0.00014802,-0.00061669,0.00020192,-0.00009315,0.000
 71371,0.00004850,-0.00041498,0.00005024,0.00004223,-0.00002477,0.00004
 322,-0.00009956,0.00007171,-0.00011020,0.00014536,-0.00011631,0.000031
 12,0.00009392,0.00031996,-0.00019139,-0.00002241,-0.00127140,0.0009904
 4,-0.00798196,-0.01135838,-0.01793358,0.00246449,0.00229772,-0.0148234
 4,0.03546525,-0.13223759,-0.19615464,-0.00269906,0.00615934,0.00321494
 ,0.00085854,0.00020067,0.00186328,-0.00002938,-0.00007523,-0.00000354,
 0.00002823,0.00005733,-0.00000983,0.00002187,-0.00009312,0.00001606,-0
 .00012409,0.00006753,0.00018152,-0.00028537,-0.00008724,0.00008593,-0.
 00004842,0.00009988,0.00007169,-0.00011508,0.00006727,-0.00005353,-0.0
 0002154,0.00004732,-0.00000429,0.00002945,0.00001768,0.00007386,0.0000
 4312,-0.00012556,-0.00005403,-0.00005838,0.00004529,-0.00001689,-0.000
 03053,0.00005256,-0.00000260,-0.00002466,0.00001927,0.00001570,0.00031
 215,0.00052396,-0.00049213,0.00018241,0.00009304,-0.00010771,-0.026361
 09,0.13506169,0.22275339,0.00008846,-0.00001906,0.00002991,-0.00012830
 ,0.00010179,-0.00006845,-0.00034456,0.00003285,-0.00008849,-0.00005023
 ,-0.00000773,0.00001145,0.00000260,-0.00000021,-0.00001285,0.00001795,
 -0.00002073,0.00000627,0.00000578,0.00000242,-0.00002117,-0.00003419,0
 .00000121,-0.00005683,-0.00019974,0.00019387,-0.00003786,-0.00020693,0
 .00065150,-0.00079781,0.00123445,-0.00250187,0.00095401,0.00521330,0.0
 1594565,0.01281362,-0.05387218,0.02480303,0.02938753,0.00766508,-0.001
 53907,-0.01534401,-0.00001595,0.00000114,-0.00000456,-0.00002473,0.000
 00322,-0.00000973,-0.00000819,-0.00005844,0.00006943,0.00003009,-0.000
 00904,-0.00000937,-0.00010595,0.00005637,-0.00001632,0.00001263,-0.000
 00837,-0.00000406,0.00000121,0.00000478,-0.00000883,0.00000197,-0.0000
 0999,0.00000665,-0.00000184,0.00000022,-0.00000554,-0.00000029,0.00002
 397,0.00001875,0.00000670,-0.00001051,0.00000992,-0.00000221,-0.000005
 83,0.00000440,-0.00000261,0.00000201,0.00000344,0.00000248,-0.00004596
 ,0.00006207,-0.00002844,-0.00004342,0.00008703,0.00082278,0.00428804,-
 0.00171737,0.03992086,-0.00011221,0.00000055,0.00000669,0.00022351,-0.
 00007365,-0.00000395,0.00019598,-0.00039198,0.00004489,0.00007855,-0.0
 0002267,0.00001142,-0.00000156,0.00000882,0.00000689,-0.00002540,0.000
 05332,-0.00000407,0.00003492,-0.00002800,-0.00000640,-0.00004231,-0.00
 003841,0.00012453,0.00019095,-0.00036803,0.00024447,-0.00263943,0.0017
 5560,0.00013192,0.00079470,0.00112627,0.00060058,0.00736834,-0.0116555
 5,-0.02397726,0.02815210,-0.14842264,-0.12003301,0.00333358,0.01006053
 ,0.00773972,0.00000023,-0.00001593,-0.00000256,0.00002197,0.00001235,0
 .00000890,-0.00006206,0.00007922,-0.00006389,-0.00008727,0.00004155,0.
 00002405,0.00000235,0.00000271,0.00005304,-0.00001515,0.00002711,0.000
 00877,0.00000579,-0.00000380,-0.00000541,-0.00000269,0.00000512,-0.000
 00405,0.00000215,0.00000022,0.00001167,0.00000536,-0.00002914,-0.00003
 315,-0.00001952,0.00000830,-0.00000883,-0.00000813,0.00001189,0.000006
 02,-0.00001163,0.00000835,0.00000110,-0.00001645,-0.00001184,-0.000035
 65,-0.00001836,-0.00019457,0.00007007,0.00448356,-0.00244032,0.0006505
 9,-0.04183186,0.15049460,-0.00014358,0.00006164,-0.00006788,0.00025750
 ,-0.00021779,0.00016820,-0.00002426,-0.00007185,0.00025436,0.00007318,
 0.00007277,0.00000386,-0.00002113,-0.00000038,-0.00000460,0.00000158,-
 0.00000286,0.00000105,0.00000751,0.00001134,-0.00000881,-0.00003635,-0
 .00003129,0.00013409,0.00033532,0.00007298,0.00009752,-0.00020367,-0.0
 0075274,0.00114752,0.00046635,0.00099238,0.00013462,-0.00453445,0.0028
 7305,0.00316755,0.03559570,-0.12984551,-0.20177399,-0.00516253,-0.0079
 1535,-0.02126902,0.00002985,-0.00000752,-0.00000631,0.00004358,-0.0000
 1513,0.00002569,-0.00002932,0.00011059,-0.00014397,-0.00006467,0.00006
 704,0.00000298,0.00017000,0.00003520,0.00008575,-0.00001689,0.00000522
 ,-0.00000449,0.00002476,-0.00002988,0.00001246,0.00000309,0.00000542,-
 0.00000745,-0.00000449,-0.00000124,-0.00000020,-0.00000546,0.00000540,
 -0.00000231,0.00000275,-0.00000010,0.00000174,-0.00000023,0.00000557,-
 0.00000088,-0.00000223,-0.00000050,-0.00000070,-0.00004252,0.00000439,
 -0.00001768,-0.00009814,-0.00008182,0.00006931,-0.00136003,0.00021804,
 0.00021944,-0.02526123,0.13443292,0.21778217\\-0.00001481,0.00000480,-
 0.00001147,0.00002274,-0.00001485,0.00001480,-0.00002073,0.00004075,0.
 00000883,0.00002201,-0.00002895,0.00000445,0.00000086,-0.00000164,-0.0
 0001092,-0.00000781,0.00000885,0.00001299,0.00001991,-0.00001273,-0.00
 001811,-0.00002202,0.00000372,-0.00000723,0.00000628,-0.00002012,0.000
 01320,-0.00000494,0.00001035,-0.00002653,0.00002389,0.00000450,-0.0000
 3136,-0.00001998,-0.00000322,0.00003053,-0.00000166,-0.00001002,-0.000
 01547,0.00000210,0.00000687,0.00000069,0.00000087,0.00000171,0.0000034
 5,0.00000022,-0.00000627,0.00000479,-0.00000219,0.00000546,0.00000026,
 -0.00000195,-0.00000104,-0.00000132,-0.00000064,-0.00000294,0.00000232
 ,-0.00000119,0.00000737,0.00000358,-0.00000238,0.00000116,-0.00000365,
 -0.00000611,-0.00000581,0.00000395,0.00000232,-0.00000509,0.00000117,-
 0.00000117,0.,-0.00000540,0.00000694,0.00000165,-0.00000388,-0.0000018
 0,0.00000566,-0.00000114,-0.00000789,0.00000407,0.00000648,-0.00000432
 ,0.00000183,-0.00000259,0.00000230,0.00000560,0.00001068,0.00000557,-0
 .00000009,0.00000520,0.00000557,-0.00000157,0.00001168\\\@


      TO SUSPECT YOUR OWN MORTALITY IS TO KNOW THE BEGINNING OF TERROR.
      TO LEARN IRREFUTABLY THAT YOU ARE MORTAL IS TO KNOW THE END
      OF TERROR.

                                                  -- JESSICA
                                                     CHILDREN OF DUNE
                                                     BY FRANK HERBERT
 Job cpu time:       0 days  8 hours 22 minutes 45.6 seconds.
 Elapsed time:       0 days  2 hours  5 minutes 42.6 seconds.
 File lengths (MBytes):  RWF=    568 Int=      0 D2E=      0 Chk=     20 Scr=      1
 Normal termination of Gaussian 16 at Thu May 18 10:58:37 2023.
### All Done ###
