### Starting Gaussian ###
 Entering Gaussian System, Link 0=g16
 Initial command:
 /cluster/software/gaussian/gaussian-16-A.03/avx2/g16/l1.exe "/local/scratch/ks29c/Gau-20834.inp" -scrdir="/local/scratch/ks29c/"
 Entering Link 1 = /cluster/software/gaussian/gaussian-16-A.03/avx2/g16/l1.exe PID=     20835.
  
 Copyright (c) 1988,1990,1992,1993,1995,1998,2003,2009,2016,
            Gaussian, Inc.  All Rights Reserved.
  
 This is part of the Gaussian(R) 16 program.  It is based on
 the Gaussian(R) 09 system (copyright 2009, Gaussian, Inc.),
 the Gaussian(R) 03 system (copyright 2003, Gaussian, Inc.),
 the Gaussian(R) 98 system (copyright 1998, Gaussian, Inc.),
 the Gaussian(R) 94 system (copyright 1995, Gaussian, Inc.),
 the Gaussian 92(TM) system (copyright 1992, Gaussian, Inc.),
 the Gaussian 90(TM) system (copyright 1990, Gaussian, Inc.),
 the Gaussian 88(TM) system (copyright 1988, Gaussian, Inc.),
 the Gaussian 86(TM) system (copyright 1986, Carnegie Mellon
 University), and the Gaussian 82(TM) system (copyright 1983,
 Carnegie Mellon University). Gaussian is a federally registered
 trademark of Gaussian, Inc.
  
 This software contains proprietary and confidential information,
 including trade secrets, belonging to Gaussian, Inc.
  
 This software is provided under written license and may be
 used, copied, transmitted, or stored only in accord with that
 written license.
  
 The following legend is applicable only to US Government
 contracts under FAR:
  
                    RESTRICTED RIGHTS LEGEND
  
 Use, reproduction and disclosure by the US Government is
 subject to restrictions as set forth in subparagraphs (a)
 and (c) of the Commercial Computer Software - Restricted
 Rights clause in FAR 52.227-19.
  
 Gaussian, Inc.
 340 Quinnipiac St., Bldg. 40, Wallingford CT 06492
  
  
 ---------------------------------------------------------------
 Warning -- This program may not be used in any manner that
 competes with the business of Gaussian, Inc. or will provide
 assistance to any competitor of Gaussian, Inc.  The licensee
 of this program is prohibited from giving any competitor of
 Gaussian, Inc. access to this program.  By using this program,
 the user acknowledges that Gaussian, Inc. is engaged in the
 business of creating and licensing software in the field of
 computational chemistry and represents and warrants to the
 licensee that it is not a competitor of Gaussian, Inc. and that
 it will not use this program in any manner prohibited above.
 ---------------------------------------------------------------
  

 Cite this work as:
 Gaussian 16, Revision A.03,
 M. J. Frisch, G. W. Trucks, H. B. Schlegel, G. E. Scuseria, 
 M. A. Robb, J. R. Cheeseman, G. Scalmani, V. Barone, 
 G. A. Petersson, H. Nakatsuji, X. Li, M. Caricato, A. V. Marenich, 
 J. Bloino, B. G. Janesko, R. Gomperts, B. Mennucci, H. P. Hratchian, 
 J. V. Ortiz, A. F. Izmaylov, J. L. Sonnenberg, D. Williams-Young, 
 F. Ding, F. Lipparini, F. Egidi, J. Goings, B. Peng, A. Petrone, 
 T. Henderson, D. Ranasinghe, V. G. Zakrzewski, J. Gao, N. Rega, 
 G. Zheng, W. Liang, M. Hada, M. Ehara, K. Toyota, R. Fukuda, 
 J. Hasegawa, M. Ishida, T. Nakajima, Y. Honda, O. Kitao, H. Nakai, 
 T. Vreven, K. Throssell, J. A. Montgomery, Jr., J. E. Peralta, 
 F. Ogliaro, M. J. Bearpark, J. J. Heyd, E. N. Brothers, K. N. Kudin, 
 V. N. Staroverov, T. A. Keith, R. Kobayashi, J. Normand, 
 K. Raghavachari, A. P. Rendell, J. C. Burant, S. S. Iyengar, 
 J. Tomasi, M. Cossi, J. M. Millam, M. Klene, C. Adamo, R. Cammi, 
 J. W. Ochterski, R. L. Martin, K. Morokuma, O. Farkas, 
 J. B. Foresman, and D. J. Fox, Gaussian, Inc., Wallingford CT, 2016.
 
 ******************************************
 Gaussian 16:  ES64L-G16RevA.03 25-Dec-2016
                16-May-2023 
 ******************************************
 %chk=NCC1CdCCdCNdCC2dCCdCCdCdCN21.chk
 %NProcShared=20
 Will use up to   20 processors via shared memory.
 -----------------------------
 # opt freq b3lyp/6-31g(2df,p)
 -----------------------------
 1/18=20,19=15,26=3,38=1/1,3;
 2/9=110,12=2,17=6,18=5,40=1/2;
 3/5=1,6=6,7=104,11=2,25=1,30=1,71=1,74=-5/1,2,3;
 4//1;
 5/5=2,38=5/2;
 6/7=2,8=2,9=2,10=2,28=1/1;
 7//1,2,3,16;
 1/18=20,19=15,26=3/3(2);
 2/9=110/2;
 99//99;
 2/9=110/2;
 3/5=1,6=6,7=104,11=2,25=1,30=1,71=1,74=-5/1,2,3;
 4/5=5,16=3,69=1/1;
 5/5=2,38=5/2;
 7//1,2,3,16;
 1/18=20,19=15,26=3/3(-5);
 2/9=110/2;
 6/7=2,8=2,9=2,10=2,19=2,28=1/1;
 99/9=1/99;
 -------------------
 Title Card Required
 -------------------
 Symbolic Z-matrix:
 Charge =  0 Multiplicity = 1
 N                     2.09117   0.56942   0.3084 
 C                     4.11079   1.51853   0.89039 
 C                     6.04473   2.97703   1.74621 
 C                     5.09301   1.46599   0.78507 
 C                     5.75489   2.64643   1.18497 
 C                     7.19528   2.23891   0.65919 
 C                     7.66423   3.41252   0.95899 
 N                     8.92672   3.32177   1.01593 
 C                     9.20332   4.64038   1.37713 
 C                     10.27775   4.15447   1.93858 
 C                     11.42172   5.33117   1.40827 
 C                     13.14418   5.40402   1.656 
 C                     13.65953   6.74161   2.02875 
 C                     14.25609   6.45548   3.09146 
 C                     12.33214   6.01116   3.23503 
 C                     10.36258   5.26913   3.05405 
 N                     8.36122   4.17591   2.49439 
 H                     1.05498  -0.58828  -0.10969 
 H                     0.82419   0.7695   -0.44403 
 H                     3.36414   0.51232  -0.32942 
 H                     3.3251   -0.00615   0.82335 
 H                     4.51647   2.8065    0.69308 
 H                     5.14618   0.39543   0.22063 
 H                     4.55044   3.61829   1.52341 
 H                     7.26911   1.26154   0.56285 
 H                     6.87521   4.43513   1.65602 
 H                     8.94691   5.83431   1.9843 
 H                     10.82636   6.62272   1.96061 
 H                     13.77368   4.62386   1.8994 
 H                     13.18711   7.95128   2.62811 
 H                     15.71432   5.96068   2.41093 
 H                     11.77698   6.38331   3.27384 
 
 Add virtual bond connecting atoms H24        and H22        Dist= 2.20D+00.
 Add virtual bond connecting atoms H21        and H20        Dist= 2.39D+00.
 Add virtual bond connecting atoms H22        and C2         Dist= 2.58D+00.
 Add virtual bond connecting atoms H22        and C4         Dist= 2.76D+00.
 Add virtual bond connecting atoms H22        and C5         Dist= 2.54D+00.
 Add virtual bond connecting atoms H27        and C9         Dist= 2.58D+00.
 Add virtual bond connecting atoms H19        and H18        Dist= 2.68D+00.
 Add virtual bond connecting atoms H20        and N1         Dist= 2.69D+00.
 Add virtual bond connecting atoms H21        and N1         Dist= 2.75D+00.
 Add virtual bond connecting atoms H30        and C13        Dist= 2.70D+00.
 Add virtual bond connecting atoms H26        and C7         Dist= 2.77D+00.
 Add virtual bond connecting atoms H18        and N1         Dist= 3.04D+00.
 Add virtual bond connecting atoms H19        and N1         Dist= 2.81D+00.
 Add virtual bond connecting atoms H28        and C11        Dist= 2.88D+00.
 Add virtual bond connecting atoms H32        and H28        Dist= 3.10D+00.
 Add virtual bond connecting atoms H31        and C14        Dist= 3.18D+00.
 Add virtual bond connecting atoms H20        and C2         Dist= 3.30D+00.
 Add virtual bond connecting atoms H20        and H23        Dist= 3.53D+00.
 Add virtual bond connecting atoms H21        and C2         Dist= 3.24D+00.

 GradGradGradGradGradGradGradGradGradGradGradGradGradGradGradGradGradGrad
 Berny optimization.
 Initialization pass.
                           ----------------------------
                           !    Initial Parameters    !
                           ! (Angstroms and Degrees)  !
 --------------------------                            --------------------------
 ! Name  Definition              Value          Derivative Info.                !
 --------------------------------------------------------------------------------
 ! R1    R(1,18)                 1.609          estimate D2E/DX2                !
 ! R2    R(1,19)                 1.4871         estimate D2E/DX2                !
 ! R3    R(1,20)                 1.425          estimate D2E/DX2                !
 ! R4    R(1,21)                 1.4557         estimate D2E/DX2                !
 ! R5    R(2,4)                  0.9892         estimate D2E/DX2                !
 ! R6    R(2,20)                 1.7487         estimate D2E/DX2                !
 ! R7    R(2,21)                 1.7165         estimate D2E/DX2                !
 ! R8    R(2,22)                 1.3647         estimate D2E/DX2                !
 ! R9    R(3,5)                  0.7129         estimate D2E/DX2                !
 ! R10   R(3,6)                  1.7465         estimate D2E/DX2                !
 ! R11   R(4,5)                  1.4112         estimate D2E/DX2                !
 ! R12   R(4,22)                 1.4621         estimate D2E/DX2                !
 ! R13   R(4,23)                 1.2114         estimate D2E/DX2                !
 ! R14   R(5,6)                  1.5866         estimate D2E/DX2                !
 ! R15   R(5,22)                 1.3421         estimate D2E/DX2                !
 ! R16   R(6,7)                  1.2989         estimate D2E/DX2                !
 ! R17   R(6,25)                 0.9849         estimate D2E/DX2                !
 ! R18   R(7,8)                  1.267          estimate D2E/DX2                !
 ! R19   R(7,26)                 1.4677         estimate D2E/DX2                !
 ! R20   R(8,9)                  1.3949         estimate D2E/DX2                !
 ! R21   R(9,10)                 1.306          estimate D2E/DX2                !
 ! R22   R(9,17)                 1.4742         estimate D2E/DX2                !
 ! R23   R(9,27)                 1.3638         estimate D2E/DX2                !
 ! R24   R(10,11)                1.7247         estimate D2E/DX2                !
 ! R25   R(10,16)                1.5792         estimate D2E/DX2                !
 ! R26   R(11,12)                1.7417         estimate D2E/DX2                !
 ! R27   R(11,28)                1.5257         estimate D2E/DX2                !
 ! R28   R(12,13)                1.4811         estimate D2E/DX2                !
 ! R29   R(12,29)                1.0316         estimate D2E/DX2                !
 ! R30   R(13,14)                1.2518         estimate D2E/DX2                !
 ! R31   R(13,30)                1.4303         estimate D2E/DX2                !
 ! R32   R(14,31)                1.6836         estimate D2E/DX2                !
 ! R33   R(15,32)                0.6695         estimate D2E/DX2                !
 ! R34   R(18,19)                1.4173         estimate D2E/DX2                !
 ! R35   R(20,21)                1.2646         estimate D2E/DX2                !
 ! R36   R(20,23)                1.8687         estimate D2E/DX2                !
 ! R37   R(22,24)                1.1617         estimate D2E/DX2                !
 ! R38   R(28,32)                1.6388         estimate D2E/DX2                !
 ! A1    A(18,1,20)            115.4786         estimate D2E/DX2                !
 ! A2    A(18,1,21)            110.6909         estimate D2E/DX2                !
 ! A3    A(19,1,20)            122.6853         estimate D2E/DX2                !
 ! A4    A(19,1,21)            162.6274         estimate D2E/DX2                !
 ! A5    A(4,2,20)             108.6097         estimate D2E/DX2                !
 ! A6    A(4,2,21)             113.7744         estimate D2E/DX2                !
 ! A7    A(20,2,22)            124.69           estimate D2E/DX2                !
 ! A8    A(2,4,5)              113.0227         estimate D2E/DX2                !
 ! A9    A(2,4,23)              98.0548         estimate D2E/DX2                !
 ! A10   A(5,4,23)             148.2857         estimate D2E/DX2                !
 ! A11   A(22,4,23)            142.9597         estimate D2E/DX2                !
 ! A12   A(3,5,4)              143.2872         estimate D2E/DX2                !
 ! A13   A(3,5,22)             127.4696         estimate D2E/DX2                !
 ! A14   A(4,5,6)               96.7214         estimate D2E/DX2                !
 ! A15   A(6,5,22)             138.3221         estimate D2E/DX2                !
 ! A16   A(3,6,7)               73.281          estimate D2E/DX2                !
 ! A17   A(3,6,25)             121.9837         estimate D2E/DX2                !
 ! A18   A(5,6,7)               91.1003         estimate D2E/DX2                !
 ! A19   A(5,6,25)             110.8161         estimate D2E/DX2                !
 ! A20   A(7,6,25)             153.1464         estimate D2E/DX2                !
 ! A21   A(6,7,8)              107.7822         estimate D2E/DX2                !
 ! A22   A(6,7,26)             123.0288         estimate D2E/DX2                !
 ! A23   A(8,7,26)             124.3486         estimate D2E/DX2                !
 ! A24   A(7,8,9)               98.1355         estimate D2E/DX2                !
 ! A25   A(8,9,10)              85.5691         estimate D2E/DX2                !
 ! A26   A(8,9,17)              77.5923         estimate D2E/DX2                !
 ! A27   A(8,9,27)             154.9034         estimate D2E/DX2                !
 ! A28   A(10,9,17)             91.5418         estimate D2E/DX2                !
 ! A29   A(10,9,27)            106.7979         estimate D2E/DX2                !
 ! A30   A(17,9,27)             80.2707         estimate D2E/DX2                !
 ! A31   A(9,10,11)             99.1864         estimate D2E/DX2                !
 ! A32   A(9,10,16)             94.8896         estimate D2E/DX2                !
 ! A33   A(11,10,16)            72.5419         estimate D2E/DX2                !
 ! A34   A(10,11,12)           129.849          estimate D2E/DX2                !
 ! A35   A(10,11,28)           101.9713         estimate D2E/DX2                !
 ! A36   A(12,11,28)           107.3986         estimate D2E/DX2                !
 ! A37   A(11,12,13)           114.6878         estimate D2E/DX2                !
 ! A38   A(11,12,29)           127.2584         estimate D2E/DX2                !
 ! A39   A(13,12,29)           114.2855         estimate D2E/DX2                !
 ! A40   A(12,13,14)            99.9647         estimate D2E/DX2                !
 ! A41   A(12,13,30)           138.9676         estimate D2E/DX2                !
 ! A42   A(14,13,30)            89.7121         estimate D2E/DX2                !
 ! A43   A(13,14,31)            97.8622         estimate D2E/DX2                !
 ! A44   A(1,20,2)              92.645          estimate D2E/DX2                !
 ! A45   A(1,20,23)            136.2759         estimate D2E/DX2                !
 ! A46   A(2,20,23)             54.7935         estimate D2E/DX2                !
 ! A47   A(21,20,23)            74.6609         estimate D2E/DX2                !
 ! A48   A(1,21,2)              92.9007         estimate D2E/DX2                !
 ! A49   A(2,22,5)              96.2432         estimate D2E/DX2                !
 ! A50   A(2,22,24)            124.3919         estimate D2E/DX2                !
 ! A51   A(4,22,24)            125.7434         estimate D2E/DX2                !
 ! A52   A(5,22,24)             78.1356         estimate D2E/DX2                !
 ! A53   A(4,23,20)             92.2933         estimate D2E/DX2                !
 ! A54   A(11,28,32)            86.5646         estimate D2E/DX2                !
 ! A55   A(15,32,28)           121.0497         estimate D2E/DX2                !
 ! A56   L(21,2,22,25,-1)      188.7174         estimate D2E/DX2                !
 ! A57   L(21,2,22,25,-2)      167.9836         estimate D2E/DX2                !
 ! D1    D(18,1,20,2)         -160.5682         estimate D2E/DX2                !
 ! D2    D(18,1,20,23)        -122.4462         estimate D2E/DX2                !
 ! D3    D(19,1,20,2)          136.9505         estimate D2E/DX2                !
 ! D4    D(19,1,20,23)         175.0725         estimate D2E/DX2                !
 ! D5    D(18,1,21,2)          172.4315         estimate D2E/DX2                !
 ! D6    D(19,1,21,2)          144.223          estimate D2E/DX2                !
 ! D7    D(20,2,4,5)           149.8798         estimate D2E/DX2                !
 ! D8    D(20,2,4,23)          -23.6581         estimate D2E/DX2                !
 ! D9    D(21,2,4,5)          -164.3653         estimate D2E/DX2                !
 ! D10   D(21,2,4,23)           22.0968         estimate D2E/DX2                !
 ! D11   D(4,2,20,1)           166.8938         estimate D2E/DX2                !
 ! D12   D(4,2,20,23)           18.3751         estimate D2E/DX2                !
 ! D13   D(22,2,20,1)         -108.9102         estimate D2E/DX2                !
 ! D14   D(22,2,20,23)         102.5711         estimate D2E/DX2                !
 ! D15   D(4,2,21,1)          -151.6799         estimate D2E/DX2                !
 ! D16   D(1,21,22,5)          177.8293         estimate D2E/DX2                !
 ! D17   D(1,21,22,24)          92.3193         estimate D2E/DX2                !
 ! D18   D(20,2,22,5)         -129.4292         estimate D2E/DX2                !
 ! D19   D(20,2,22,24)         150.6932         estimate D2E/DX2                !
 ! D20   D(2,4,5,3)             88.0932         estimate D2E/DX2                !
 ! D21   D(2,4,5,6)           -171.7467         estimate D2E/DX2                !
 ! D22   D(23,4,5,3)          -104.1454         estimate D2E/DX2                !
 ! D23   D(23,4,5,6)            -3.9852         estimate D2E/DX2                !
 ! D24   D(23,4,22,24)         171.0725         estimate D2E/DX2                !
 ! D25   D(2,4,23,20)           20.8649         estimate D2E/DX2                !
 ! D26   D(5,4,23,20)         -147.7711         estimate D2E/DX2                !
 ! D27   D(22,4,23,20)         -36.4984         estimate D2E/DX2                !
 ! D28   D(4,5,6,7)            174.4518         estimate D2E/DX2                !
 ! D29   D(4,5,6,25)           -21.406          estimate D2E/DX2                !
 ! D30   D(22,5,6,7)           116.4026         estimate D2E/DX2                !
 ! D31   D(22,5,6,25)          -79.4552         estimate D2E/DX2                !
 ! D32   D(3,5,22,2)          -118.6699         estimate D2E/DX2                !
 ! D33   D(3,5,22,24)            5.2229         estimate D2E/DX2                !
 ! D34   D(6,5,22,2)            89.4931         estimate D2E/DX2                !
 ! D35   D(6,5,22,24)         -146.614          estimate D2E/DX2                !
 ! D36   D(3,6,7,8)            144.9492         estimate D2E/DX2                !
 ! D37   D(3,6,7,26)           -11.2931         estimate D2E/DX2                !
 ! D38   D(5,6,7,8)            161.3858         estimate D2E/DX2                !
 ! D39   D(5,6,7,26)             5.1435         estimate D2E/DX2                !
 ! D40   D(25,6,7,8)            15.8184         estimate D2E/DX2                !
 ! D41   D(25,6,7,26)         -140.4239         estimate D2E/DX2                !
 ! D42   D(6,7,8,9)           -178.3935         estimate D2E/DX2                !
 ! D43   D(26,7,8,9)           -22.5421         estimate D2E/DX2                !
 ! D44   D(7,8,9,10)           152.6459         estimate D2E/DX2                !
 ! D45   D(7,8,9,17)            60.0851         estimate D2E/DX2                !
 ! D46   D(7,8,9,27)            31.4504         estimate D2E/DX2                !
 ! D47   D(8,9,10,11)          136.1017         estimate D2E/DX2                !
 ! D48   D(8,9,10,16)         -150.827          estimate D2E/DX2                !
 ! D49   D(17,9,10,11)        -146.4707         estimate D2E/DX2                !
 ! D50   D(17,9,10,16)         -73.3995         estimate D2E/DX2                !
 ! D51   D(27,9,10,11)         -66.1693         estimate D2E/DX2                !
 ! D52   D(27,9,10,16)           6.902          estimate D2E/DX2                !
 ! D53   D(9,10,11,12)        -177.0137         estimate D2E/DX2                !
 ! D54   D(9,10,11,28)          57.8794         estimate D2E/DX2                !
 ! D55   D(16,10,11,12)         90.7139         estimate D2E/DX2                !
 ! D56   D(16,10,11,28)        -34.3931         estimate D2E/DX2                !
 ! D57   D(10,11,12,13)       -136.0182         estimate D2E/DX2                !
 ! D58   D(10,11,12,29)         20.674          estimate D2E/DX2                !
 ! D59   D(28,11,12,13)        -13.0169         estimate D2E/DX2                !
 ! D60   D(28,11,12,29)        143.6752         estimate D2E/DX2                !
 ! D61   D(10,11,28,32)         93.0007         estimate D2E/DX2                !
 ! D62   D(12,11,28,32)        -45.8379         estimate D2E/DX2                !
 ! D63   D(11,12,13,14)        124.7582         estimate D2E/DX2                !
 ! D64   D(11,12,13,30)         23.5655         estimate D2E/DX2                !
 ! D65   D(29,12,13,14)        -35.0299         estimate D2E/DX2                !
 ! D66   D(29,12,13,30)       -136.2226         estimate D2E/DX2                !
 ! D67   D(12,13,14,31)         84.74           estimate D2E/DX2                !
 ! D68   D(30,13,14,31)       -135.3513         estimate D2E/DX2                !
 ! D69   D(1,20,23,4)          -63.1347         estimate D2E/DX2                !
 ! D70   D(2,20,23,4)          -14.1322         estimate D2E/DX2                !
 ! D71   D(21,20,23,4)         -86.836          estimate D2E/DX2                !
 ! D72   D(11,28,32,15)         23.4995         estimate D2E/DX2                !
 --------------------------------------------------------------------------------
 Trust Radius=3.00D-01 FncErr=1.00D-07 GrdErr=1.00D-06 EigMax=2.50D+02 EigMin=1.00D-04
 Number of steps in this run=    177 maximum allowed number of steps=    192.
 GradGradGradGradGradGradGradGradGradGradGradGradGradGradGradGradGradGrad

                          Input orientation:                          
 ---------------------------------------------------------------------
 Center     Atomic      Atomic             Coordinates (Angstroms)
 Number     Number       Type             X           Y           Z
 ---------------------------------------------------------------------
      1          7           0        2.091170    0.569420    0.308400
      2          6           0        4.110790    1.518530    0.890390
      3          6           0        6.044730    2.977030    1.746210
      4          6           0        5.093010    1.465990    0.785070
      5          6           0        5.754890    2.646430    1.184970
      6          6           0        7.195280    2.238910    0.659190
      7          6           0        7.664230    3.412520    0.958990
      8          7           0        8.926720    3.321770    1.015930
      9          6           0        9.203320    4.640380    1.377130
     10          6           0       10.277750    4.154470    1.938580
     11          6           0       11.421720    5.331170    1.408270
     12          6           0       13.144180    5.404020    1.656000
     13          6           0       13.659530    6.741610    2.028750
     14          6           0       14.256090    6.455480    3.091460
     15          6           0       12.332140    6.011160    3.235030
     16          6           0       10.362580    5.269130    3.054050
     17          7           0        8.361220    4.175910    2.494390
     18          1           0        1.054980   -0.588280   -0.109690
     19          1           0        0.824190    0.769500   -0.444030
     20          1           0        3.364140    0.512320   -0.329420
     21          1           0        3.325100   -0.006150    0.823350
     22          1           0        4.516470    2.806500    0.693080
     23          1           0        5.146180    0.395430    0.220630
     24          1           0        4.550440    3.618290    1.523410
     25          1           0        7.269110    1.261540    0.562850
     26          1           0        6.875210    4.435130    1.656020
     27          1           0        8.946910    5.834310    1.984300
     28          1           0       10.826360    6.622720    1.960610
     29          1           0       13.773680    4.623860    1.899400
     30          1           0       13.187110    7.951280    2.628110
     31          1           0       15.714320    5.960680    2.410930
     32          1           0       11.776980    6.383310    3.273840
 ---------------------------------------------------------------------
                    Distance matrix (angstroms):
                    1          2          3          4          5
     1  N    0.000000
     2  C    2.306163   0.000000
     3  C    4.847115   2.569003   0.000000
     4  C    3.168927   0.989247   2.028005   0.000000
     5  C    4.301766   2.015441   0.712947   1.411185   0.000000
     6  C    5.381653   3.175922   1.746482   2.243388   1.586581
     7  C    6.290110   4.027262   1.852605   3.229613   2.069671
     8  N    7.402754   5.143988   2.992995   4.265507   3.247332
     9  C    8.264235   5.993056   3.588822   5.227039   3.988036
    10  C    9.084611   6.788098   4.397935   5.953154   4.826839
    11  C   10.532955   8.261605   5.879473   7.441812   6.274604
    12  C   12.139127   9.863332   7.503373   9.004884   7.901125
    13  C   13.224314  10.943257   8.499239  10.137266   8.942360
    14  C   13.797696  11.495447   9.018633  10.685340   9.508626
    15  C   11.960567   9.657725   7.138211   8.891900   7.667097
    16  C    9.901621   7.604821   5.060434   6.883350   5.621639
    17  N    7.556378   5.263140   2.713524   4.576750   3.293455
    18  H    1.608962   3.844058   6.407293   4.618041   5.850525
    19  H    1.487085   3.625391   6.076543   4.496511   5.521622
    20  H    1.424966   1.748680   4.191491   2.267282   3.544501
    21  H    1.455691   1.716523   4.140944   2.300906   3.615360
    22  H    3.321835   1.364688   1.863798   1.462131   1.342111
    23  H    3.061219   1.667922   3.130407   1.211412   2.523387
    24  H    4.101203   2.236738   1.641267   2.339214   1.584220
    25  H    5.230185   3.185641   2.417096   2.196951   2.144252
    26  H    6.296573   4.090814   1.680442   3.570796   2.162511
    27  H    8.805048   6.573481   4.079630   5.947514   4.581539
    28  H   10.755268   8.502765   6.016727   7.800324   6.490940
    29  H   12.467991  10.199638   7.903935   9.304188   8.289851
    30  H   13.527483  11.259642   8.748400  10.534241   9.244565
    31  H   14.801234  12.517454  10.141252  11.647226  10.567756
    32  H   11.679472   9.387086   6.840693   8.663110   7.388722
                    6          7          8          9         10
     6  C    0.000000
     7  C    1.298905   0.000000
     8  N    2.073098   1.267028   0.000000
     9  C    3.211654   2.012779   1.394885   0.000000
    10  C    3.848094   2.888005   1.835744   1.306038   0.000000
    11  C    5.290178   4.242853   3.227483   2.323674   1.724679
    12  C    6.811825   5.872116   4.746833   4.023840   3.139689
    13  C    7.996032   6.940522   5.926264   4.969666   4.258857
    14  C    8.576155   7.567011   6.521514   5.635956   4.738245
    15  C    6.874020   5.807122   4.873819   3.888489   3.057548
    16  C    4.994935   3.888106   3.163517   2.133371   1.579220
    17  N    2.911931   1.850949   1.798663   1.474156   1.995613
    18  H    6.803489   7.799401   8.861140   9.795150  10.571120
    19  H    6.630765   7.465934   8.619545   9.407984  10.320109
    20  H    4.316955   5.344337   6.375364   7.351817   8.136774
    21  H    4.477224   5.525735   6.518457   7.513347   8.178865
    22  H    2.738490   3.216576   4.451970   5.079134   6.046540
    23  H    2.790979   3.998573   4.846488   5.984770   6.588987
    24  H    3.105599   3.171214   4.415573   4.766063   5.767316
    25  H    0.984878   2.222557   2.682816   3.977534   4.394723
    26  H    2.433002   1.467697   2.420326   2.353721   3.425768
    27  H    4.213197   2.926020   2.692769   1.363771   2.143616
    28  H    5.839197   4.616026   3.923942   2.627619   2.528580
    29  H    7.106437   6.298976   5.095977   4.600134   3.527519
    30  H    8.509397   7.340879   6.494799   5.328939   4.832763
    31  H    9.460138   8.567683   7.414943   6.723470   5.748200
    32  H    6.708533   5.576633   4.753437   3.641296   2.999723
                   11         12         13         14         15
    11  C    0.000000
    12  C    1.741708   0.000000
    13  C    2.717008   1.481106   0.000000
    14  C    3.482938   2.098203   1.251841   0.000000
    15  C    2.151349   1.876530   1.936655   1.979802   0.000000
    16  C    1.958116   3.116093   3.753574   4.070411   2.112470
    17  N    3.446874   5.008778   5.905229   6.348419   4.436766
    18  H   12.033843  13.607868  14.736855  15.301347  13.487553
    19  H   11.685354  13.329331  14.371037  15.008198  13.169791
    20  H    9.548061  11.113946  12.262140  12.870825  11.107095
    21  H    9.715162  11.241778  12.401036  12.898974  11.097342
    22  H    7.387011   9.061551  10.043140  10.673682   8.821341
    23  H    8.071829   9.545379  10.771278  11.311778   9.605262
    24  H    7.082493   8.778313   9.642926  10.232696   8.319274
    25  H    5.875440   7.271284   8.545028   9.065802   7.438663
    26  H    4.640584   6.343401   7.175359   7.785865   5.895356
    27  H    2.590298   4.232021   4.799370   5.458850   3.613223
    28  H    1.525659   2.636343   2.836482   3.615223   2.065315
    29  H    2.504638   1.031583   2.124765   2.237981   2.405524
    30  H    3.386678   2.726788   1.430285   1.896003   2.205310
    31  H    4.452867   2.735948   2.231160   1.683563   3.481498
    32  H    2.171073   2.333592   2.285306   2.486857   0.669481
                   16         17         18         19         20
    16  C    0.000000
    17  N    2.348146   0.000000
    18  H   11.443335   9.102740   0.000000
    19  H   11.111441   8.777515   1.417256   0.000000
    20  H    9.113357   6.809303   2.567454   2.555508   0.000000
    21  H    9.073628   6.756072   2.522476   2.909027   1.264600
    22  H    6.768732   4.461177   4.914355   4.367530   2.763446
    23  H    7.680628   5.458800   4.220748   4.388770   1.868659
    24  H    6.232905   3.971874   5.707932   5.086390   3.806223
    25  H    5.642376   3.662936   6.518401   6.541629   4.075079
    26  H    3.848609   1.725771   7.888438   7.379830   5.626546
    27  H    1.862234   1.831261  10.388311   9.875610   8.052590
    28  H    1.800808   3.514074  12.319275  11.835788   9.912918
    29  H    3.658578   5.463460  13.891299  13.712660  11.411876
    30  H    3.918332   6.128663  15.086690  14.623878  12.671853
    31  H    5.434424   7.567063  16.252343  16.025452  13.773928
    32  H    1.813900   4.140963  13.229234  12.856945  10.873265
                   21         22         23         24         25
    21  H    0.000000
    22  H    3.057341   0.000000
    23  H    1.959814   2.536336   0.000000
    24  H    3.889487   1.161725   3.526892   0.000000
    25  H    4.150917   3.159254   2.318209   3.723991   0.000000
    26  H    5.746441   3.023796   4.622669   2.467665   3.379623
    27  H    8.189232   5.519391   6.865675   4.944908   5.074028
    28  H   10.074928   7.482304   8.606458   6.971723   6.584073
    29  H   11.479011   9.510728   9.753545   9.285510   7.443184
    30  H   12.799886  10.266114  11.293511   9.725597   9.167368
    31  H   13.842552  11.759749  12.143105  11.441447   9.839659
    32  H   10.874943   8.495228   9.441626   7.932983   7.341859
                   26         27         28         29         30
    26  H    0.000000
    27  H    2.521391   0.000000
    28  H    4.526578   2.038255   0.000000
    29  H    6.905341   4.976957   3.561725   0.000000
    30  H    7.290292   4.782818   2.789941   3.456415   0.000000
    31  H    9.001503   6.782022   4.953104   2.411397   3.224352
    32  H    5.517254   3.158102   1.638770   2.995256   2.205440
                   31         32
    31  H    0.000000
    32  H    4.052885   0.000000
 Stoichiometry    C14H15N3
 Framework group  C1[X(C14H15N3)]
 Deg. of freedom    90
 Full point group                 C1      NOp   1
 Largest Abelian subgroup         C1      NOp   1
 Largest concise Abelian subgroup C1      NOp   1
                         Standard orientation:                         
 ---------------------------------------------------------------------
 Center     Atomic      Atomic             Coordinates (Angstroms)
 Number     Number       Type             X           Y           Z
 ---------------------------------------------------------------------
      1          7           0        7.362958    0.099152    0.072687
      2          6           0        5.065913    0.156125   -0.124106
      3          6           0        2.564683    0.740343   -0.172160
      4          6           0        4.249934   -0.383453   -0.271220
      5          6           0        3.065880    0.299822    0.078912
      6          6           0        2.084071   -0.936218   -0.080760
      7          6           0        1.089134   -0.236879    0.375508
      8          7           0        0.017343   -0.817872    0.030443
      9          6           0       -0.886079    0.095620    0.573642
     10          6           0       -1.702050   -0.308742   -0.362529
     11          6           0       -3.143483   -0.455367    0.573041
     12          6           0       -4.724711   -1.016891    0.106186
     13          6           0       -5.847368   -0.190852    0.607160
     14          6           0       -6.423904    0.069183   -0.473161
     15          6           0       -4.566146    0.753151   -0.496453
     16          6           0       -2.476775    1.063363   -0.467718
     17          7           0       -0.134136    0.925606   -0.384920
     18          1           0        8.866903   -0.415254   -0.176901
     19          1           0        8.510252    0.290487    0.999255
     20          1           0        6.387830   -0.923565    0.256271
     21          1           0        6.456447   -0.461354   -0.918831
     22          1           0        4.160975    0.625706    0.783063
     23          1           0        4.788011   -1.427620   -0.567375
     24          1           0        3.617925    1.649220    0.698690
     25          1           0        2.480186   -1.624926   -0.662790
     26          1           0        1.192655    1.193958    0.685546
     27          1           0       -1.310050    1.333400    0.958377
     28          1           0       -3.306075    0.956756    1.127213
     29          1           0       -4.962875   -1.610404   -0.703248
     30          1           0       -6.088391    1.147736    1.049660
     31          1           0       -7.354692   -1.329604   -0.579977
     32          1           0       -4.256847    1.252025   -0.174485
 ---------------------------------------------------------------------
 Rotational constants (GHZ):           3.7102093           0.1373446           0.1348902
 Standard basis: 6-31G(2df,p) (6D, 7F)
 There are   602 symmetry adapted cartesian basis functions of A   symmetry.
 There are   551 symmetry adapted basis functions of A   symmetry.
   551 basis functions,   853 primitive gaussians,   602 cartesian basis functions
    60 alpha electrons       60 beta electrons
       nuclear repulsion energy      1061.3112957918 Hartrees.
 NAtoms=   32 NActive=   32 NUniq=   32 SFac= 1.00D+00 NAtFMM=   60 NAOKFM=F Big=F
 Integral buffers will be    131072 words long.
 Raffenetti 2 integral format.
 Two-electron integral symmetry is turned on.
 One-electron integrals computed using PRISM.
 PrsmSu:  requested number of processors reduced to:  12 ShMem   1 Linda.
 NBasis=   551 RedAO= T EigKep=  2.45D-05  NBF=   551
 NBsUse=   551 1.00D-06 EigRej= -1.00D+00 NBFU=   551
 ExpMin= 1.61D-01 ExpMax= 4.17D+03 ExpMxC= 6.27D+02 IAcc=3 IRadAn=         5 AccDes= 0.00D+00
 Harris functional with IExCor=  402 and IRadAn=       5 diagonalized for initial guess.
 HarFok:  IExCor=  402 AccDes= 0.00D+00 IRadAn=         5 IDoV= 1 UseB2=F ITyADJ=14
 ICtDFT=  3500011 ScaDFX=  1.000000  1.000000  1.000000  1.000000
 FoFCou: FMM=F IPFlag=           0 FMFlag=      100000 FMFlg1=           0
         NFxFlg=           0 DoJE=T BraDBF=F KetDBF=T FulRan=T
         wScrn=  0.000000 ICntrl=       500 IOpCl=  0 I1Cent=   200000004 NGrid=           0
         NMat0=    1 NMatS0=      1 NMatT0=    0 NMatD0=    1 NMtDS0=    0 NMtDT0=    0
 Petite list used in FoFCou.
 Requested convergence on RMS density matrix=1.00D-08 within 128 cycles.
 Requested convergence on MAX density matrix=1.00D-06.
 Requested convergence on             energy=1.00D-06.
 No special actions if energy rises.
 Integral accuracy reduced to 1.0D-05 until final iterations.
 Rare condition: small coef for last iteration:  0.000D+00
 Problem detected with inexpensive integrals.
 Switching to full accuracy and repeating last cycle.
 EnCoef did     3 forward-backward iterations
 EnCoef did   100 forward-backward iterations
 EnCoef did   100 forward-backward iterations
 EnCoef did   100 forward-backward iterations
 EnCoef did     3 forward-backward iterations
 EnCoef did     6 forward-backward iterations
 EnCoef did   100 forward-backward iterations
 EnCoef did   100 forward-backward iterations
 EnCoef did     3 forward-backward iterations
 EnCoef did     3 forward-backward iterations
 EnCoef did    11 forward-backward iterations
 EnCoef did     2 forward-backward iterations
 EnCoef did    40 forward-backward iterations
 EnCoef did     3 forward-backward iterations
 EnCoef did     3 forward-backward iterations
 Restarting incremental Fock formation.
 SCF Done:  E(RB3LYP) =  -702.128757752     A.U. after   40 cycles
            NFock= 40  Conv=0.93D-08     -V/T= 1.9908

 **********************************************************************

            Population analysis using the SCF density.

 **********************************************************************

 Orbital symmetries:
       Occupied  (A) (A) (A) (A) (A) (A) (A) (A) (A) (A) (A) (A)
                 (A) (A) (A) (A) (A) (A) (A) (A) (A) (A) (A) (A)
                 (A) (A) (A) (A) (A) (A) (A) (A) (A) (A) (A) (A)
                 (A) (A) (A) (A) (A) (A) (A) (A) (A) (A) (A) (A)
                 (A) (A) (A) (A) (A) (A) (A) (A) (A) (A) (A) (A)
       Virtual   (A) (A) (A) (A) (A) (A) (A) (A) (A) (A) (A) (A)
                 (A) (A) (A) (A) (A) (A) (A) (A) (A) (A) (A) (A)
                 (A) (A) (A) (A) (A) (A) (A) (A) (A) (A) (A) (A)
                 (A) (A) (A) (A) (A) (A) (A) (A) (A) (A) (A) (A)
                 (A) (A) (A) (A) (A) (A) (A) (A) (A) (A) (A) (A)
                 (A) (A) (A) (A) (A) (A) (A) (A) (A) (A) (A) (A)
                 (A) (A) (A) (A) (A) (A) (A) (A) (A) (A) (A) (A)
                 (A) (A) (A) (A) (A) (A) (A) (A) (A) (A) (A) (A)
                 (A) (A) (A) (A) (A) (A) (A) (A) (A) (A) (A) (A)
                 (A) (A) (A) (A) (A) (A) (A) (A) (A) (A) (A) (A)
                 (A) (A) (A) (A) (A) (A) (A) (A) (A) (A) (A) (A)
                 (A) (A) (A) (A) (A) (A) (A) (A) (A) (A) (A) (A)
                 (A) (A) (A) (A) (A) (A) (A) (A) (A) (A) (A) (A)
                 (A) (A) (A) (A) (A) (A) (A) (A) (A) (A) (A) (A)
                 (A) (A) (A) (A) (A) (A) (A) (A) (A) (A) (A) (A)
                 (A) (A) (A) (A) (A) (A) (A) (A) (A) (A) (A) (A)
                 (A) (A) (A) (A) (A) (A) (A) (A) (A) (A) (A) (A)
                 (A) (A) (A) (A) (A) (A) (A) (A) (A) (A) (A) (A)
                 (A) (A) (A) (A) (A) (A) (A) (A) (A) (A) (A) (A)
                 (A) (A) (A) (A) (A) (A) (A) (A) (A) (A) (A) (A)
                 (A) (A) (A) (A) (A) (A) (A) (A) (A) (A) (A) (A)
                 (A) (A) (A) (A) (A) (A) (A) (A) (A) (A) (A) (A)
                 (A) (A) (A) (A) (A) (A) (A) (A) (A) (A) (A) (A)
                 (A) (A) (A) (A) (A) (A) (A) (A) (A) (A) (A) (A)
                 (A) (A) (A) (A) (A) (A) (A) (A) (A) (A) (A) (A)
                 (A) (A) (A) (A) (A) (A) (A) (A) (A) (A) (A) (A)
                 (A) (A) (A) (A) (A) (A) (A) (A) (A) (A) (A) (A)
                 (A) (A) (A) (A) (A) (A) (A) (A) (A) (A) (A) (A)
                 (A) (A) (A) (A) (A) (A) (A) (A) (A) (A) (A) (A)
                 (A) (A) (A) (A) (A) (A) (A) (A) (A) (A) (A) (A)
                 (A) (A) (A) (A) (A) (A) (A) (A) (A) (A) (A) (A)
                 (A) (A) (A) (A) (A) (A) (A) (A) (A) (A) (A) (A)
                 (A) (A) (A) (A) (A) (A) (A) (A) (A) (A) (A) (A)
                 (A) (A) (A) (A) (A) (A) (A) (A) (A) (A) (A) (A)
                 (A) (A) (A) (A) (A) (A) (A) (A) (A) (A) (A) (A)
                 (A) (A) (A) (A) (A) (A) (A) (A) (A) (A) (A) (A)
                 (A) (A) (A) (A) (A) (A) (A) (A) (A) (A) (A) (A)
                 (A) (A) (A) (A) (A) (A) (A) (A) (A) (A) (A) (A)
                 (A) (A) (A) (A) (A) (A) (A) (A) (A) (A) (A) (A)
                 (A) (A) (A) (A) (A) (A) (A) (A) (A) (A) (A) (A)
                 (A) (A) (A) (A) (A) (A) (A) (A) (A) (A) (A)
 The electronic state is 1-A.
 Alpha  occ. eigenvalues --  -14.41639 -14.39499 -14.36027 -10.31526 -10.29786
 Alpha  occ. eigenvalues --  -10.27696 -10.27045 -10.26536 -10.26026 -10.25753
 Alpha  occ. eigenvalues --  -10.25231 -10.24060 -10.23829 -10.20553 -10.18969
 Alpha  occ. eigenvalues --  -10.18423 -10.14586  -1.08927  -0.97712  -0.92990
 Alpha  occ. eigenvalues --   -0.91889  -0.85564  -0.79622  -0.78919  -0.74589
 Alpha  occ. eigenvalues --   -0.73376  -0.70709  -0.67761  -0.65452  -0.59934
 Alpha  occ. eigenvalues --   -0.56929  -0.56182  -0.54537  -0.53331  -0.51278
 Alpha  occ. eigenvalues --   -0.50527  -0.48756  -0.47963  -0.46918  -0.46145
 Alpha  occ. eigenvalues --   -0.43120  -0.41387  -0.40317  -0.39046  -0.37520
 Alpha  occ. eigenvalues --   -0.34501  -0.33428  -0.33126  -0.32091  -0.31856
 Alpha  occ. eigenvalues --   -0.31172  -0.30669  -0.27097  -0.24673  -0.22788
 Alpha  occ. eigenvalues --   -0.22684  -0.21869  -0.20530  -0.18563  -0.17220
 Alpha virt. eigenvalues --   -0.13379  -0.12507  -0.10158  -0.08235  -0.08056
 Alpha virt. eigenvalues --   -0.07055  -0.05796  -0.04962  -0.03050  -0.01851
 Alpha virt. eigenvalues --   -0.01076   0.00142   0.00662   0.01855   0.01998
 Alpha virt. eigenvalues --    0.02679   0.03968   0.05532   0.06006   0.07436
 Alpha virt. eigenvalues --    0.07870   0.12081   0.12560   0.14564   0.15280
 Alpha virt. eigenvalues --    0.18244   0.19377   0.21033   0.22575   0.25144
 Alpha virt. eigenvalues --    0.25474   0.27365   0.29566   0.29766   0.31565
 Alpha virt. eigenvalues --    0.32849   0.34335   0.35115   0.36930   0.39334
 Alpha virt. eigenvalues --    0.40472   0.41234   0.41709   0.42211   0.43820
 Alpha virt. eigenvalues --    0.44422   0.45328   0.45757   0.46080   0.46821
 Alpha virt. eigenvalues --    0.48233   0.49608   0.50529   0.50920   0.52421
 Alpha virt. eigenvalues --    0.53473   0.53597   0.54531   0.56345   0.56667
 Alpha virt. eigenvalues --    0.57567   0.58042   0.58395   0.58600   0.59467
 Alpha virt. eigenvalues --    0.60158   0.60548   0.60873   0.61729   0.62355
 Alpha virt. eigenvalues --    0.62616   0.63720   0.64056   0.64335   0.65090
 Alpha virt. eigenvalues --    0.65872   0.66166   0.67122   0.67846   0.68499
 Alpha virt. eigenvalues --    0.68715   0.69971   0.70855   0.71919   0.72975
 Alpha virt. eigenvalues --    0.74602   0.74826   0.75361   0.76242   0.76756
 Alpha virt. eigenvalues --    0.77477   0.78738   0.78986   0.79840   0.80380
 Alpha virt. eigenvalues --    0.81569   0.81839   0.82853   0.83611   0.84363
 Alpha virt. eigenvalues --    0.86178   0.86504   0.86847   0.87680   0.88214
 Alpha virt. eigenvalues --    0.89797   0.90928   0.92532   0.92783   0.94251
 Alpha virt. eigenvalues --    0.95133   0.95703   0.96182   0.96689   0.98007
 Alpha virt. eigenvalues --    0.98650   0.99434   1.01120   1.02535   1.02950
 Alpha virt. eigenvalues --    1.03608   1.04713   1.05814   1.06155   1.08410
 Alpha virt. eigenvalues --    1.08540   1.09480   1.11353   1.12379   1.12746
 Alpha virt. eigenvalues --    1.13721   1.15883   1.16193   1.18719   1.19566
 Alpha virt. eigenvalues --    1.21390   1.22925   1.23710   1.24571   1.26690
 Alpha virt. eigenvalues --    1.27768   1.28426   1.30508   1.32573   1.33283
 Alpha virt. eigenvalues --    1.34146   1.34839   1.36062   1.36406   1.37556
 Alpha virt. eigenvalues --    1.37919   1.39894   1.41489   1.42742   1.43908
 Alpha virt. eigenvalues --    1.45477   1.46537   1.47699   1.48793   1.48872
 Alpha virt. eigenvalues --    1.49479   1.50234   1.52285   1.53951   1.54651
 Alpha virt. eigenvalues --    1.55147   1.56018   1.56573   1.57787   1.59418
 Alpha virt. eigenvalues --    1.60347   1.62203   1.63459   1.64310   1.65549
 Alpha virt. eigenvalues --    1.66805   1.67908   1.69122   1.69979   1.72094
 Alpha virt. eigenvalues --    1.72441   1.73403   1.74406   1.75173   1.76377
 Alpha virt. eigenvalues --    1.77628   1.79109   1.81548   1.82940   1.83634
 Alpha virt. eigenvalues --    1.84316   1.85867   1.87105   1.88506   1.89781
 Alpha virt. eigenvalues --    1.92313   1.93696   1.96227   1.98010   1.99198
 Alpha virt. eigenvalues --    2.02157   2.04317   2.05660   2.06871   2.07399
 Alpha virt. eigenvalues --    2.08204   2.11094   2.12020   2.12735   2.13375
 Alpha virt. eigenvalues --    2.15030   2.18953   2.20005   2.21293   2.22899
 Alpha virt. eigenvalues --    2.24107   2.25583   2.26641   2.28585   2.29135
 Alpha virt. eigenvalues --    2.30709   2.32451   2.35308   2.36655   2.37943
 Alpha virt. eigenvalues --    2.38360   2.40731   2.43020   2.43699   2.44634
 Alpha virt. eigenvalues --    2.46220   2.47172   2.48950   2.50455   2.52750
 Alpha virt. eigenvalues --    2.53445   2.54936   2.56722   2.58823   2.59464
 Alpha virt. eigenvalues --    2.60414   2.62370   2.63934   2.64970   2.69157
 Alpha virt. eigenvalues --    2.69792   2.72006   2.72710   2.73521   2.73901
 Alpha virt. eigenvalues --    2.75032   2.77432   2.77873   2.78044   2.79264
 Alpha virt. eigenvalues --    2.79840   2.80798   2.82963   2.84494   2.85397
 Alpha virt. eigenvalues --    2.86811   2.87693   2.89207   2.90554   2.92341
 Alpha virt. eigenvalues --    2.93128   2.94387   2.96090   2.96948   2.97163
 Alpha virt. eigenvalues --    2.98923   3.00263   3.01111   3.01628   3.02049
 Alpha virt. eigenvalues --    3.03261   3.04710   3.05508   3.06203   3.07663
 Alpha virt. eigenvalues --    3.08919   3.09698   3.11339   3.12282   3.14026
 Alpha virt. eigenvalues --    3.15118   3.16212   3.17582   3.19757   3.20287
 Alpha virt. eigenvalues --    3.21164   3.22331   3.24674   3.25376   3.27780
 Alpha virt. eigenvalues --    3.28134   3.28534   3.31340   3.31987   3.32662
 Alpha virt. eigenvalues --    3.34617   3.36726   3.37432   3.38141   3.38828
 Alpha virt. eigenvalues --    3.40417   3.43296   3.44750   3.45858   3.47057
 Alpha virt. eigenvalues --    3.47517   3.47977   3.48708   3.51972   3.52899
 Alpha virt. eigenvalues --    3.54247   3.55887   3.56884   3.58368   3.58804
 Alpha virt. eigenvalues --    3.59699   3.60652   3.62222   3.62910   3.64109
 Alpha virt. eigenvalues --    3.65377   3.66512   3.67304   3.68859   3.70144
 Alpha virt. eigenvalues --    3.71546   3.73882   3.74380   3.76588   3.77567
 Alpha virt. eigenvalues --    3.78131   3.78883   3.80085   3.80520   3.83348
 Alpha virt. eigenvalues --    3.83552   3.85623   3.86266   3.88024   3.90185
 Alpha virt. eigenvalues --    3.91028   3.92624   3.93621   3.95482   3.97187
 Alpha virt. eigenvalues --    3.98572   3.99641   4.01462   4.03070   4.05051
 Alpha virt. eigenvalues --    4.05629   4.07164   4.07818   4.10745   4.12424
 Alpha virt. eigenvalues --    4.13298   4.15887   4.16806   4.17177   4.17941
 Alpha virt. eigenvalues --    4.19961   4.22823   4.23368   4.23802   4.25196
 Alpha virt. eigenvalues --    4.27023   4.28479   4.31650   4.32558   4.33905
 Alpha virt. eigenvalues --    4.36624   4.37580   4.39383   4.41686   4.41879
 Alpha virt. eigenvalues --    4.43419   4.44039   4.44536   4.46641   4.47695
 Alpha virt. eigenvalues --    4.48284   4.49360   4.50589   4.51216   4.52004
 Alpha virt. eigenvalues --    4.53118   4.53648   4.55319   4.56473   4.59049
 Alpha virt. eigenvalues --    4.59773   4.60608   4.61148   4.62091   4.63451
 Alpha virt. eigenvalues --    4.64957   4.66057   4.66582   4.69009   4.71052
 Alpha virt. eigenvalues --    4.71504   4.72854   4.75541   4.76028   4.77686
 Alpha virt. eigenvalues --    4.78971   4.81177   4.82004   4.83437   4.84241
 Alpha virt. eigenvalues --    4.86199   4.87460   4.87728   4.90297   4.90880
 Alpha virt. eigenvalues --    4.91178   4.93260   4.94154   4.96549   4.98058
 Alpha virt. eigenvalues --    4.99219   5.01708   5.02296   5.03718   5.04476
 Alpha virt. eigenvalues --    5.07357   5.09642   5.12536   5.13029   5.14926
 Alpha virt. eigenvalues --    5.18418   5.21358   5.23279   5.24336   5.25822
 Alpha virt. eigenvalues --    5.26500   5.31116   5.32810   5.34362   5.34509
 Alpha virt. eigenvalues --    5.39435   5.41446   5.45347   5.47178   5.49361
 Alpha virt. eigenvalues --    5.51580   5.53587   5.54506   5.58701   5.63544
 Alpha virt. eigenvalues --    5.65632   5.70739   5.73654   5.81591   5.94226
 Alpha virt. eigenvalues --    5.98021   6.01869   6.06079   6.09689   6.24898
 Alpha virt. eigenvalues --    6.37548   6.45275   6.71841   7.10897   7.24555
 Alpha virt. eigenvalues --    7.28084   8.46155  10.29956  10.57308  10.80171
 Alpha virt. eigenvalues --   10.91862  11.00108  11.03928  11.25173  11.30970
 Alpha virt. eigenvalues --   11.32543  11.48954  11.63338  11.70558  11.83454
 Alpha virt. eigenvalues --   11.93247  12.03410  12.46080  13.76435  14.47061
 Alpha virt. eigenvalues --   21.43667
          Condensed to atoms (all electrons):
               1          2          3          4          5          6
     1  N    7.331133  -0.063736  -0.000047  -0.013658  -0.000180  -0.000023
     2  C   -0.063736   5.986847   0.140321   0.393742  -0.148570  -0.015732
     3  C   -0.000047   0.140321   9.555804   1.360799  -4.002270   0.037026
     4  C   -0.013658   0.393742   1.360799   6.173051  -2.365586   0.004296
     5  C   -0.000180  -0.148570  -4.002270  -2.365586  12.248176  -0.032935
     6  C   -0.000023  -0.015732   0.037026   0.004296  -0.032935   5.320565
     7  C   -0.000001   0.002364  -0.065478  -0.039571   0.066302   0.492082
     8  N   -0.000000   0.000030   0.024407   0.002530  -0.030499  -0.056209
     9  C   -0.000000  -0.000002   0.001500   0.000008  -0.003273   0.002798
    10  C   -0.000000   0.000000  -0.001668   0.000008  -0.000286  -0.000497
    11  C    0.000000   0.000000   0.000020   0.000000  -0.000002   0.000017
    12  C    0.000000  -0.000000  -0.000000  -0.000000  -0.000000  -0.000001
    13  C    0.000000  -0.000000  -0.000000  -0.000000  -0.000000  -0.000000
    14  C    0.000000   0.000000  -0.000000  -0.000000   0.000000   0.000000
    15  C    0.000000  -0.000000   0.000000   0.000000   0.000000  -0.000000
    16  C   -0.000000   0.000000  -0.000002   0.000000  -0.000033   0.000178
    17  N   -0.000000  -0.000033  -0.102140  -0.000456   0.013254  -0.013290
    18  H    0.028469   0.001203   0.000002  -0.000023  -0.000005  -0.000000
    19  H    0.014131   0.009441  -0.000001   0.000589   0.000062   0.000000
    20  H    0.132893   0.029382   0.001312  -0.032771  -0.001639  -0.000129
    21  H    0.007661   0.141783  -0.000610  -0.003538   0.009740   0.000123
    22  H   -0.000763   0.131595  -0.286844  -0.032273   0.009846   0.018243
    23  H    0.003205  -0.140066   0.025650   0.455589  -0.195922  -0.014565
    24  H   -0.000293  -0.038169  -0.485987  -0.158397   0.438361   0.007374
    25  H    0.000013  -0.001413   0.067543   0.096043  -0.198188   0.337859
    26  H   -0.000000   0.000291   0.054068  -0.000727  -0.019933  -0.035669
    27  H   -0.000000   0.000000  -0.000136   0.000003   0.000207   0.000009
    28  H   -0.000000  -0.000000  -0.000003  -0.000000   0.000001  -0.000000
    29  H    0.000000  -0.000000  -0.000000  -0.000000   0.000000   0.000000
    30  H    0.000000  -0.000000  -0.000000  -0.000000  -0.000000   0.000000
    31  H    0.000000   0.000000  -0.000000  -0.000000  -0.000000  -0.000000
    32  H    0.000000  -0.000000  -0.000000   0.000000  -0.000000   0.000000
               7          8          9         10         11         12
     1  N   -0.000001  -0.000000  -0.000000  -0.000000   0.000000   0.000000
     2  C    0.002364   0.000030  -0.000002   0.000000   0.000000  -0.000000
     3  C   -0.065478   0.024407   0.001500  -0.001668   0.000020  -0.000000
     4  C   -0.039571   0.002530   0.000008   0.000008   0.000000  -0.000000
     5  C    0.066302  -0.030499  -0.003273  -0.000286  -0.000002  -0.000000
     6  C    0.492082  -0.056209   0.002798  -0.000497   0.000017  -0.000001
     7  C    5.192692   0.375324  -0.147647   0.000693  -0.000227  -0.000006
     8  N    0.375324   6.468049   0.319586  -0.091227  -0.002106  -0.000070
     9  C   -0.147647   0.319586   5.061906   0.451975  -0.034812   0.001015
    10  C    0.000693  -0.091227   0.451975   5.352940   0.147961  -0.011391
    11  C   -0.000227  -0.002106  -0.034812   0.147961   5.577910   0.215621
    12  C   -0.000006  -0.000070   0.001015  -0.011391   0.215621   5.113271
    13  C   -0.000000  -0.000002  -0.000191   0.000884  -0.022566   0.405969
    14  C    0.000000   0.000000  -0.000001   0.000003   0.002082  -0.057134
    15  C    0.000004  -0.000013   0.003297   0.002453   0.031510   0.181262
    16  C   -0.000416   0.012467  -0.097571   0.316201   0.039884   0.001538
    17  N   -0.020159   0.050742   0.181403  -0.065454   0.013036  -0.000112
    18  H   -0.000000   0.000000   0.000000   0.000000   0.000000   0.000000
    19  H    0.000000  -0.000000   0.000000  -0.000000  -0.000000   0.000000
    20  H    0.000003  -0.000000   0.000000   0.000000   0.000000  -0.000000
    21  H    0.000003  -0.000000   0.000000  -0.000000  -0.000000  -0.000000
    22  H   -0.001399   0.000002  -0.000010   0.000001  -0.000000   0.000000
    23  H   -0.001845   0.000052   0.000000   0.000000   0.000000  -0.000000
    24  H   -0.005533  -0.000036   0.000030  -0.000001  -0.000000   0.000000
    25  H   -0.081728   0.001037  -0.000152  -0.000016   0.000005  -0.000000
    26  H    0.226447  -0.025408  -0.016241   0.003201  -0.000147   0.000000
    27  H    0.016639  -0.007752   0.306126  -0.088342  -0.013087   0.000560
    28  H    0.000304  -0.000180   0.006008  -0.020521   0.237484  -0.024359
    29  H    0.000000   0.000001   0.000007   0.000853  -0.014443   0.353223
    30  H   -0.000000   0.000000  -0.000010   0.000039  -0.001276  -0.009983
    31  H   -0.000000   0.000000  -0.000000  -0.000005   0.000478  -0.014041
    32  H    0.000000  -0.000095  -0.001299  -0.003358  -0.017754  -0.039992
              13         14         15         16         17         18
     1  N    0.000000   0.000000   0.000000  -0.000000  -0.000000   0.028469
     2  C   -0.000000   0.000000  -0.000000   0.000000  -0.000033   0.001203
     3  C   -0.000000  -0.000000   0.000000  -0.000002  -0.102140   0.000002
     4  C   -0.000000  -0.000000   0.000000   0.000000  -0.000456  -0.000023
     5  C   -0.000000   0.000000   0.000000  -0.000033   0.013254  -0.000005
     6  C   -0.000000   0.000000  -0.000000   0.000178  -0.013290  -0.000000
     7  C   -0.000000   0.000000   0.000004  -0.000416  -0.020159  -0.000000
     8  N   -0.000002   0.000000  -0.000013   0.012467   0.050742   0.000000
     9  C   -0.000191  -0.000001   0.003297  -0.097571   0.181403   0.000000
    10  C    0.000884   0.000003   0.002453   0.316201  -0.065454   0.000000
    11  C   -0.022566   0.002082   0.031510   0.039884   0.013036   0.000000
    12  C    0.405969  -0.057134   0.181262   0.001538  -0.000112   0.000000
    13  C    4.970865   0.500830  -0.031706   0.000606  -0.000001   0.000000
    14  C    0.500830   5.483038   0.092753   0.000141   0.000000   0.000000
    15  C   -0.031706   0.092753   5.412484   0.013269  -0.000053   0.000000
    16  C    0.000606   0.000141   0.013269   5.946508  -0.023269   0.000000
    17  N   -0.000001   0.000000  -0.000053  -0.023269   7.262093  -0.000000
    18  H    0.000000   0.000000   0.000000   0.000000  -0.000000   0.733222
    19  H    0.000000   0.000000   0.000000  -0.000000   0.000000   0.120859
    20  H   -0.000000   0.000000  -0.000000   0.000000  -0.000000   0.004188
    21  H    0.000000   0.000000   0.000000  -0.000000   0.000000   0.027652
    22  H    0.000000   0.000000   0.000000  -0.000000   0.000240  -0.000005
    23  H   -0.000000   0.000000  -0.000000   0.000000  -0.000000   0.000161
    24  H    0.000000   0.000000   0.000000  -0.000001   0.001323  -0.000005
    25  H   -0.000000  -0.000000  -0.000000   0.000003  -0.000846   0.000000
    26  H   -0.000000   0.000000   0.000001  -0.000463   0.052772  -0.000000
    27  H    0.000041  -0.000010  -0.000803   0.019801  -0.079480   0.000000
    28  H    0.001785   0.001559  -0.000412  -0.072330   0.000210  -0.000000
    29  H   -0.042607   0.004134   0.000620  -0.000763   0.000001   0.000000
    30  H    0.284107  -0.073688   0.023459  -0.000253   0.000000   0.000000
    31  H   -0.040587   0.160267   0.005467  -0.000043  -0.000000   0.000000
    32  H    0.030714  -0.029255   0.227443   0.031656   0.000357   0.000000
              19         20         21         22         23         24
     1  N    0.014131   0.132893   0.007661  -0.000763   0.003205  -0.000293
     2  C    0.009441   0.029382   0.141783   0.131595  -0.140066  -0.038169
     3  C   -0.000001   0.001312  -0.000610  -0.286844   0.025650  -0.485987
     4  C    0.000589  -0.032771  -0.003538  -0.032273   0.455589  -0.158397
     5  C    0.000062  -0.001639   0.009740   0.009846  -0.195922   0.438361
     6  C    0.000000  -0.000129   0.000123   0.018243  -0.014565   0.007374
     7  C    0.000000   0.000003   0.000003  -0.001399  -0.001845  -0.005533
     8  N   -0.000000  -0.000000  -0.000000   0.000002   0.000052  -0.000036
     9  C    0.000000   0.000000   0.000000  -0.000010   0.000000   0.000030
    10  C   -0.000000   0.000000  -0.000000   0.000001   0.000000  -0.000001
    11  C   -0.000000   0.000000  -0.000000  -0.000000   0.000000  -0.000000
    12  C    0.000000  -0.000000  -0.000000   0.000000  -0.000000   0.000000
    13  C    0.000000  -0.000000   0.000000   0.000000  -0.000000   0.000000
    14  C    0.000000   0.000000   0.000000   0.000000   0.000000   0.000000
    15  C    0.000000  -0.000000   0.000000   0.000000  -0.000000   0.000000
    16  C   -0.000000   0.000000  -0.000000  -0.000000   0.000000  -0.000001
    17  N    0.000000  -0.000000   0.000000   0.000240  -0.000000   0.001323
    18  H    0.120859   0.004188   0.027652  -0.000005   0.000161  -0.000005
    19  H    0.707417   0.009825   0.003641  -0.000330  -0.000353  -0.000039
    20  H    0.009825   0.664646   0.001828  -0.001167   0.003184  -0.000474
    21  H    0.003641   0.001828   0.643730  -0.004562  -0.032888  -0.000428
    22  H   -0.000330  -0.001167  -0.004562   0.745465   0.024574   0.303405
    23  H   -0.000353   0.003184  -0.032888   0.024574   0.738793   0.000417
    24  H   -0.000039  -0.000474  -0.000428   0.303405   0.000417   1.021885
    25  H   -0.000000   0.000021  -0.000322   0.000039   0.023294  -0.002391
    26  H    0.000000   0.000000   0.000000  -0.000410  -0.000018   0.000963
    27  H   -0.000000  -0.000000  -0.000000  -0.000001   0.000000   0.000005
    28  H    0.000000  -0.000000   0.000000   0.000000  -0.000000   0.000000
    29  H    0.000000  -0.000000   0.000000   0.000000  -0.000000   0.000000
    30  H    0.000000  -0.000000   0.000000  -0.000000  -0.000000   0.000000
    31  H    0.000000   0.000000   0.000000   0.000000  -0.000000   0.000000
    32  H    0.000000  -0.000000  -0.000000  -0.000000   0.000000  -0.000000
              25         26         27         28         29         30
     1  N    0.000013  -0.000000  -0.000000  -0.000000   0.000000   0.000000
     2  C   -0.001413   0.000291   0.000000  -0.000000  -0.000000  -0.000000
     3  C    0.067543   0.054068  -0.000136  -0.000003  -0.000000  -0.000000
     4  C    0.096043  -0.000727   0.000003  -0.000000  -0.000000  -0.000000
     5  C   -0.198188  -0.019933   0.000207   0.000001   0.000000  -0.000000
     6  C    0.337859  -0.035669   0.000009  -0.000000   0.000000   0.000000
     7  C   -0.081728   0.226447   0.016639   0.000304   0.000000  -0.000000
     8  N    0.001037  -0.025408  -0.007752  -0.000180   0.000001   0.000000
     9  C   -0.000152  -0.016241   0.306126   0.006008   0.000007  -0.000010
    10  C   -0.000016   0.003201  -0.088342  -0.020521   0.000853   0.000039
    11  C    0.000005  -0.000147  -0.013087   0.237484  -0.014443  -0.001276
    12  C   -0.000000   0.000000   0.000560  -0.024359   0.353223  -0.009983
    13  C   -0.000000  -0.000000   0.000041   0.001785  -0.042607   0.284107
    14  C   -0.000000   0.000000  -0.000010   0.001559   0.004134  -0.073688
    15  C   -0.000000   0.000001  -0.000803  -0.000412   0.000620   0.023459
    16  C    0.000003  -0.000463   0.019801  -0.072330  -0.000763  -0.000253
    17  N   -0.000846   0.052772  -0.079480   0.000210   0.000001   0.000000
    18  H    0.000000  -0.000000   0.000000  -0.000000   0.000000   0.000000
    19  H   -0.000000   0.000000  -0.000000   0.000000   0.000000   0.000000
    20  H    0.000021   0.000000  -0.000000  -0.000000  -0.000000  -0.000000
    21  H   -0.000322   0.000000  -0.000000   0.000000   0.000000   0.000000
    22  H    0.000039  -0.000410  -0.000001   0.000000   0.000000  -0.000000
    23  H    0.023294  -0.000018   0.000000  -0.000000  -0.000000  -0.000000
    24  H   -0.002391   0.000963   0.000005   0.000000   0.000000   0.000000
    25  H    0.605990   0.000593   0.000007  -0.000000  -0.000000  -0.000000
    26  H    0.000593   0.466299  -0.000736   0.000097   0.000000  -0.000000
    27  H    0.000007  -0.000736   0.673655   0.020251  -0.000005  -0.000014
    28  H   -0.000000   0.000097   0.020251   0.769508   0.001545   0.001308
    29  H   -0.000000   0.000000  -0.000005   0.001545   0.483825   0.002587
    30  H   -0.000000  -0.000000  -0.000014   0.001308   0.002587   0.553657
    31  H   -0.000000  -0.000000  -0.000000  -0.000047   0.013703   0.007150
    32  H    0.000000   0.000001   0.001992  -0.012522   0.000357   0.001804
              31         32
     1  N    0.000000   0.000000
     2  C    0.000000  -0.000000
     3  C   -0.000000  -0.000000
     4  C   -0.000000   0.000000
     5  C   -0.000000  -0.000000
     6  C   -0.000000   0.000000
     7  C   -0.000000   0.000000
     8  N    0.000000  -0.000095
     9  C   -0.000000  -0.001299
    10  C   -0.000005  -0.003358
    11  C    0.000478  -0.017754
    12  C   -0.014041  -0.039992
    13  C   -0.040587   0.030714
    14  C    0.160267  -0.029255
    15  C    0.005467   0.227443
    16  C   -0.000043   0.031656
    17  N   -0.000000   0.000357
    18  H    0.000000   0.000000
    19  H    0.000000   0.000000
    20  H    0.000000  -0.000000
    21  H    0.000000  -0.000000
    22  H    0.000000  -0.000000
    23  H   -0.000000   0.000000
    24  H    0.000000  -0.000000
    25  H   -0.000000   0.000000
    26  H   -0.000000   0.000001
    27  H   -0.000000   0.001992
    28  H   -0.000047  -0.012522
    29  H    0.013703   0.000357
    30  H    0.007150   0.001804
    31  H    0.906311   0.000187
    32  H    0.000187   0.821582
 Mulliken charges:
               1
     1  N   -0.438806
     2  C   -0.429279
     3  C   -0.323265
     4  C    0.160340
     5  C    0.213372
     6  C   -0.051520
     7  C   -0.008845
     8  N   -0.040630
     9  C   -0.034453
    10  C    0.005552
    11  C   -0.159586
    12  C   -0.115369
    13  C   -0.058141
    14  C   -0.084720
    15  C    0.038962
    16  C   -0.187107
    17  N   -0.270137
    18  H    0.084283
    19  H    0.134759
    20  H    0.188897
    21  H    0.206188
    22  H    0.094354
    23  H    0.110735
    24  H   -0.082009
    25  H    0.152608
    26  H    0.295018
    27  H    0.151070
    28  H    0.090315
    29  H    0.196961
    30  H    0.211112
    31  H   -0.038840
    32  H   -0.011820
 Sum of Mulliken charges =  -0.00000
 Mulliken charges with hydrogens summed into heavy atoms:
               1
     1  N    0.175322
     2  C   -0.429279
     3  C   -0.323265
     4  C    0.271076
     5  C    0.225717
     6  C    0.101088
     7  C    0.286173
     8  N   -0.040630
     9  C    0.116617
    10  C    0.005552
    11  C   -0.069271
    12  C    0.081592
    13  C    0.152971
    14  C   -0.123560
    15  C    0.027142
    16  C   -0.187107
    17  N   -0.270137
 Electronic spatial extent (au):  <R**2>=           7804.0867
 Charge=             -0.0000 electrons
 Dipole moment (field-independent basis, Debye):
    X=              3.2914    Y=             -3.3670    Z=              2.9429  Tot=              5.5525
 Quadrupole moment (field-independent basis, Debye-Ang):
   XX=            -80.7928   YY=           -102.6844   ZZ=           -109.0840
   XY=            -18.3593   XZ=            -12.9519   YZ=              6.6899
 Traceless Quadrupole moment (field-independent basis, Debye-Ang):
   XX=             16.7276   YY=             -5.1640   ZZ=            -11.5636
   XY=            -18.3593   XZ=            -12.9519   YZ=              6.6899
 Octapole moment (field-independent basis, Debye-Ang**2):
  XXX=            263.0262  YYY=            -13.4536  ZZZ=             -0.0721  XYY=             -4.8406
  XXY=            -89.0392  XXZ=             70.0696  XZZ=             33.1223  YZZ=             -2.2161
  YYZ=              2.4613  XYZ=            -10.8878
 Hexadecapole moment (field-independent basis, Debye-Ang**3):
 XXXX=          -9537.1035 YYYY=           -419.2006 ZZZZ=           -247.2326 XXXY=           -569.9600
 XXXZ=           -421.6554 YYYX=            -42.7695 YYYZ=             11.5780 ZZZX=            -24.5753
 ZZZY=              3.3800 XXYY=          -1828.6355 XXZZ=          -1935.7163 YYZZ=           -109.0654
 XXYZ=            146.4080 YYXZ=            -27.5223 ZZXY=             -9.4132
 N-N= 1.061311295792D+03 E-N=-3.759631433058D+03  KE= 7.086456124611D+02
 PrsmSu:  requested number of processors reduced to:  13 ShMem   1 Linda.
 Calling FoFJK, ICntrl=      2127 FMM=F ISym2X=0 I1Cent= 0 IOpClX= 0 NMat=1 NMatS=1 NMatT=0.
 ***** Axes restored to original set *****
 -------------------------------------------------------------------
 Center     Atomic                   Forces (Hartrees/Bohr)
 Number     Number              X              Y              Z
 -------------------------------------------------------------------
      1        7           0.020274928   -0.050405943   -0.054896476
      2        6          -1.070395532    0.046664459    0.108329428
      3        6           2.013374224    2.388558433    3.931780597
      4        6           0.952938809   -0.168637914   -0.161225631
      5        6          -1.885685985   -2.474470458   -3.905173855
      6        6          -0.098381296    0.059486702   -0.006808607
      7        6          -0.025594473    0.014420198   -0.011332532
      8        7          -0.011340257    0.029150617   -0.042519938
      9        6          -0.054008238    0.137529072    0.053641823
     10        6           0.266604802    0.098457519    0.148901966
     11        6           0.017409484    0.040705348    0.042758416
     12        6          -0.141281592    0.084717451    0.010572246
     13        6          -0.118159705    0.088193365   -0.086435697
     14        6           0.155065552   -0.034393352    0.145265361
     15        6           0.960753187   -0.707402989   -0.085195332
     16        6           0.016445922   -0.080707957   -0.042350195
     17        7          -0.018644872   -0.042064544   -0.006491830
     18        1           0.024421965    0.053298385    0.004645717
     19        1           0.033919661   -0.028289136    0.021831307
     20        1          -0.083363853    0.007746120    0.010867467
     21        1          -0.029326400    0.044374328    0.010608991
     22        1          -0.129255092    0.065631608    0.015321880
     23        1           0.064015696    0.035126709    0.021920311
     24        1          -0.061137983    0.011362115   -0.013183168
     25        1           0.028091275   -0.086528143   -0.001076631
     26        1           0.040242073   -0.054617748   -0.016216330
     27        1           0.009886971   -0.017570081   -0.071495821
     28        1           0.034888372   -0.049326228   -0.057853213
     29        1           0.021399264   -0.042038265    0.001609850
     30        1           0.008080166   -0.055742343   -0.059848410
     31        1          -0.044685637    0.001701273    0.029467468
     32        1          -0.896551433    0.685071398    0.064580837
 -------------------------------------------------------------------
 Cartesian Forces:  Max     3.931780597 RMS     0.759178091

 GradGradGradGradGradGradGradGradGradGradGradGradGradGradGradGradGradGrad
 Berny optimization.
 FormGI is forming the generalized inverse of G from B-inverse, IUseBI=4.
 Internal  Forces:  Max     4.396571053 RMS     0.386090487
 Search for a local minimum.
 Step number   1 out of a maximum of  177
 All quantities printed in internal units (Hartrees-Bohrs-Radians)
 Mixed Optimization -- RFO/linear search
 Second derivative matrix not updated -- first step.
 ITU=  0
     Eigenvalues ---    0.00230   0.00230   0.00230   0.00230   0.00738
     Eigenvalues ---    0.00921   0.01016   0.01136   0.01545   0.01752
     Eigenvalues ---    0.01759   0.01773   0.02024   0.02335   0.02716
     Eigenvalues ---    0.03070   0.03332   0.03426   0.03451   0.03647
     Eigenvalues ---    0.03838   0.03877   0.04017   0.04049   0.04358
     Eigenvalues ---    0.04634   0.04650   0.05074   0.05821   0.06168
     Eigenvalues ---    0.07029   0.07486   0.07655   0.08569   0.08712
     Eigenvalues ---    0.09704   0.10204   0.10265   0.10464   0.10694
     Eigenvalues ---    0.11173   0.11560   0.11659   0.11946   0.12212
     Eigenvalues ---    0.12428   0.12442   0.12906   0.13215   0.13347
     Eigenvalues ---    0.13427   0.13918   0.14166   0.14370   0.15163
     Eigenvalues ---    0.15220   0.15739   0.15903   0.16000   0.16000
     Eigenvalues ---    0.16000   0.16145   0.16421   0.16872   0.16920
     Eigenvalues ---    0.18149   0.18738   0.21497   0.21539   0.21761
     Eigenvalues ---    0.21846   0.21964   0.22120   0.22154   0.25000
     Eigenvalues ---    0.25000   0.25309   0.34443   0.35247   0.37064
     Eigenvalues ---    0.42540   0.46479   0.50446   0.65544   0.67498
     Eigenvalues ---    0.77250   0.82560   1.89526   2.27742  15.11326
 RFO step:  Lambda=-2.05084882D+00 EMin= 2.30000000D-03
 Linear search not attempted -- first point.
 Maximum step size (   0.300) exceeded in Quadratic search.
    -- Step size scaled by   0.562
 Iteration  1 RMS(Cart)=  0.11135745 RMS(Int)=  0.00167220
 Iteration  2 RMS(Cart)=  0.00374910 RMS(Int)=  0.00009767
 Iteration  3 RMS(Cart)=  0.00001382 RMS(Int)=  0.00009698
 Iteration  4 RMS(Cart)=  0.00000000 RMS(Int)=  0.00009698
 Variable       Old X    -DE/DX   Delta X   Delta X   Delta X     New X
                                 (Linear)    (Quad)   (Total)
    R1        3.04050  -0.04197   0.00000  -0.01106  -0.01106   3.02944
    R2        2.81018  -0.03390   0.00000  -0.00882  -0.00882   2.80137
    R3        2.69280  -0.03779   0.00000  -0.01067  -0.01065   2.68215
    R4        2.75086  -0.03705   0.00000  -0.00967  -0.00968   2.74118
    R5        1.86941   0.55752   0.00000   0.08103   0.08116   1.95057
    R6        3.30453  -0.08088   0.00000  -0.01136  -0.01134   3.29318
    R7        3.24376  -0.05524   0.00000  -0.01035  -0.01035   3.23341
    R8        2.57889   0.00772   0.00000   0.00347   0.00330   2.58219
    R9        1.34728   4.39657   0.00000   0.14408   0.14416   1.49144
   R10        3.30037   0.82049   0.00000   0.03104   0.03096   3.33133
   R11        2.66675   0.09065   0.00000   0.01410   0.01410   2.68085
   R12        2.76303   0.06404   0.00000   0.01907   0.01918   2.78220
   R13        2.28924  -0.02219   0.00000  -0.00815  -0.00815   2.28108
   R14        2.99820  -0.50742   0.00000   0.00121   0.00125   2.99945
   R15        2.53622   0.32464   0.00000   0.05895   0.05896   2.59519
   R16        2.45457   0.17036   0.00000   0.03515   0.03515   2.48972
   R17        1.86115   0.08766   0.00000   0.01935   0.01935   1.88050
   R18        2.39433   0.19737   0.00000   0.03931   0.03931   2.43365
   R19        2.77355  -0.06739   0.00000  -0.01744  -0.01744   2.75611
   R20        2.63595   0.16690   0.00000   0.03731   0.03731   2.67326
   R21        2.46805   0.26736   0.00000   0.05556   0.05556   2.52361
   R22        2.78575   0.01898   0.00000   0.00444   0.00444   2.79019
   R23        2.57715  -0.04907   0.00000  -0.01250  -0.01250   2.56466
   R24        3.25917   0.00428   0.00000   0.00108   0.00108   3.26026
   R25        2.98429  -0.08600   0.00000  -0.02099  -0.02099   2.96330
   R26        3.29135  -0.11071   0.00000  -0.02814  -0.02814   3.26321
   R27        2.88308  -0.12774   0.00000  -0.03329  -0.03329   2.84979
   R28        2.79888   0.00705   0.00000   0.00165   0.00165   2.80054
   R29        1.94941   0.04523   0.00000   0.01027   0.01027   1.95968
   R30        2.36564   0.20841   0.00000   0.04074   0.04074   2.40638
   R31        2.70285  -0.07489   0.00000  -0.01928  -0.01928   2.68357
   R32        3.18147  -0.05112   0.00000  -0.01351  -0.01351   3.16796
   R33        1.26514   1.19486   0.00000   0.15524   0.15524   1.42038
   R34        2.67823  -0.02545   0.00000  -0.00669  -0.00669   2.67153
   R35        2.38975  -0.00677   0.00000   0.00001  -0.00001   2.38973
   R36        3.53125   0.25852   0.00000   0.04147   0.04142   3.57268
   R37        2.19534  -0.00327   0.00000  -0.00085  -0.00085   2.19449
   R38        3.09683   0.02399   0.00000   0.00643   0.00643   3.10326
    A1        2.01548  -0.00050   0.00000  -0.00037  -0.00037   2.01511
    A2        1.93192  -0.00906   0.00000  -0.00087  -0.00087   1.93105
    A3        2.14126  -0.00968   0.00000  -0.00281  -0.00281   2.13845
    A4        2.83838  -0.00580   0.00000   0.00033   0.00033   2.83871
    A5        1.89560  -0.03344   0.00000  -0.00637  -0.00640   1.88920
    A6        1.98574  -0.00414   0.00000  -0.00213  -0.00209   1.98364
    A7        2.17625   0.00852   0.00000   0.00044   0.00051   2.17676
    A8        1.97262   0.01141   0.00000   0.00240   0.00242   1.97504
    A9        1.71138  -0.05331   0.00000  -0.00409  -0.00421   1.70717
   A10        2.58807   0.03993   0.00000   0.00132   0.00144   2.58951
   A11        2.49512  -0.08671   0.00000  -0.01185  -0.01192   2.48320
   A12        2.50083   0.13386   0.00000   0.01534   0.01516   2.51599
   A13        2.22476   0.11877   0.00000   0.00257   0.00258   2.22734
   A14        1.68811   0.25038   0.00000   0.01759   0.01757   1.70568
   A15        2.41418   0.31278   0.00000   0.01977   0.01977   2.43395
   A16        1.27899  -0.38327   0.00000   0.00816   0.00796   1.28695
   A17        2.12902   0.27138   0.00000   0.00302   0.00320   2.13222
   A18        1.59000   0.63719   0.00000   0.04573   0.04596   1.63596
   A19        1.93411  -0.31329   0.00000  -0.01925  -0.01930   1.91480
   A20        2.67291  -0.23184   0.00000  -0.02412  -0.02416   2.64875
   A21        1.88115   0.08562   0.00000   0.02122   0.02121   1.90237
   A22        2.14726  -0.03439   0.00000  -0.00844  -0.00844   2.13882
   A23        2.17029  -0.04089   0.00000  -0.01008  -0.01009   2.16020
   A24        1.71279   0.25326   0.00000   0.06190   0.06190   1.77469
   A25        1.49346   0.15067   0.00000   0.03768   0.03766   1.53112
   A26        1.35424  -0.02823   0.00000  -0.00707  -0.00718   1.34707
   A27        2.70357  -0.02356   0.00000  -0.00573  -0.00587   2.69770
   A28        1.59771   0.05810   0.00000   0.01445   0.01455   1.61226
   A29        1.86397  -0.07618   0.00000  -0.01837  -0.01835   1.84562
   A30        1.40099   0.02916   0.00000   0.00786   0.00806   1.40905
   A31        1.73113   0.06433   0.00000   0.01563   0.01564   1.74677
   A32        1.65614   0.04354   0.00000   0.01102   0.01098   1.66712
   A33        1.26609   0.01252   0.00000   0.00336   0.00328   1.26938
   A34        2.26629  -0.01645   0.00000  -0.00419  -0.00404   2.26226
   A35        1.77973   0.14548   0.00000   0.03715   0.03707   1.81680
   A36        1.87446  -0.16068   0.00000  -0.04146  -0.04143   1.83303
   A37        2.00168  -0.01883   0.00000  -0.00466  -0.00466   1.99702
   A38        2.22108  -0.00919   0.00000  -0.00242  -0.00242   2.21866
   A39        1.99466   0.02623   0.00000   0.00662   0.00662   2.00127
   A40        1.74471   0.03282   0.00000   0.00822   0.00823   1.75294
   A41        2.42544  -0.00716   0.00000  -0.00180  -0.00181   2.42363
   A42        1.56577  -0.00685   0.00000  -0.00147  -0.00147   1.56431
   A43        1.70802   0.03316   0.00000   0.00843   0.00843   1.71645
   A44        1.61696  -0.01443   0.00000  -0.00169  -0.00170   1.61526
   A45        2.37846   0.08045   0.00000   0.01146   0.01141   2.38987
   A46        0.95633   0.06511   0.00000   0.00905   0.00907   0.96540
   A47        1.30308   0.08113   0.00000   0.01169   0.01166   1.31474
   A48        1.62142  -0.02448   0.00000  -0.00236  -0.00236   1.61906
   A49        1.67976   0.16113   0.00000   0.01830   0.01841   1.69817
   A50        2.17105   0.01210   0.00000   0.00213   0.00188   2.17293
   A51        2.19464   0.02383   0.00000   0.00592   0.00590   2.20054
   A52        1.36372   0.01577   0.00000   0.01016   0.01015   1.37387
   A53        1.61082   0.02925   0.00000   0.00308   0.00319   1.61401
   A54        1.51084  -0.19977   0.00000  -0.05081  -0.05081   1.46002
   A55        2.11272  -0.03529   0.00000  -0.00898  -0.00898   2.10374
   A56        3.29374  -0.07633   0.00000  -0.01163  -0.01169   3.28205
   A57        2.93187   0.01806   0.00000   0.00055   0.00062   2.93249
    D1       -2.80244  -0.00205   0.00000   0.00003   0.00002  -2.80242
    D2       -2.13709  -0.00200   0.00000   0.00022   0.00022  -2.13687
    D3        2.39024  -0.00432   0.00000  -0.00039  -0.00040   2.38984
    D4        3.05559  -0.00427   0.00000  -0.00020  -0.00020   3.05540
    D5        3.00950   0.00032   0.00000  -0.00050  -0.00050   3.00900
    D6        2.51717   0.00241   0.00000   0.00054   0.00054   2.51771
    D7        2.61590   0.00427   0.00000   0.00035   0.00040   2.61629
    D8       -0.41291   0.01040   0.00000   0.00209   0.00207  -0.41084
    D9       -2.86872   0.01009   0.00000   0.00129   0.00132  -2.86739
   D10        0.38566   0.01622   0.00000   0.00303   0.00299   0.38865
   D11        2.91285   0.03143   0.00000   0.00250   0.00256   2.91540
   D12        0.32071  -0.04817   0.00000  -0.00860  -0.00842   0.31228
   D13       -1.90084  -0.12406   0.00000  -0.01541  -0.01541  -1.91626
   D14        1.79020  -0.20366   0.00000  -0.02651  -0.02639   1.76381
   D15       -2.64731   0.04065   0.00000   0.00819   0.00825  -2.63906
[...]
     21          1           0        3.393055    0.634974   -0.302957
     22          1           0        3.892942    2.478929   -0.233734
     23          1           0        5.303830    0.770183    1.690867
     24          1           0        4.292513    4.094329   -0.111987
     25          1           0        6.732533    2.491358    2.940192
     26          1           0        7.424758    4.965273    1.209533
     27          1           0        8.942955    6.378787    3.812655
     28          1           0       11.157078    7.517298    2.667834
     29          1           0       12.387484    5.392360    0.824546
     30          1           0       12.524233    8.474346    0.999409
     31          1           0       14.321896    6.305701   -0.257096
     32          1           0       13.285117    3.263268    3.922763
 ---------------------------------------------------------------------
                    Distance matrix (angstroms):
                    1          2          3          4          5
     1  N    0.000000
     2  C    3.451935   0.000000
     3  C    6.325562   2.899851   0.000000
     4  C    4.186515   1.339600   2.591211   0.000000
     5  C    5.603977   2.367280   1.404213   1.476216   0.000000
     6  C    6.684719   3.694371   2.299727   2.541428   1.420498
     7  C    7.962760   4.857792   2.715167   3.834046   2.507465
     8  N    8.991842   6.029464   4.006405   4.895768   3.688644
     9  C   10.401399   7.436870   5.251361   6.318455   5.085964
    10  C   11.005752   8.184317   6.056289   7.083033   5.911441
    11  C   12.023389   9.099054   6.743776   8.103714   6.845676
    12  C   12.391570   9.604952   7.342536   8.685351   7.495236
    13  C   13.587192  10.748167   8.366356   9.906974   8.673595
    14  C   14.314754  11.650266   9.420262  10.808541   9.659852
    15  C   11.476367   9.257848   7.773735   8.062591   7.258688
    16  C   11.050150   8.543117   6.786347   7.368407   6.400166
    17  N    9.611026   6.860472   5.132702   5.625767   4.603058
    18  H    1.019047   3.910716   6.796469   4.543978   5.994472
    19  H    1.019864   4.302086   7.108994   4.981914   6.384083
    20  H    1.011816   2.926089   5.706454   3.415317   4.853655
    21  H    2.449637   1.088922   3.957164   2.225720   3.437290
    22  H    4.347744   1.064226   2.180696   1.878916   2.195429
    23  H    4.164358   2.195965   3.511977   1.089800   2.191313
    24  H    6.014919   2.653328   1.099473   2.863072   2.151675
    25  H    6.717295   4.097414   3.299524   2.796664   2.173209
    26  H    8.264605   5.036651   2.488509   4.232981   2.816378
    27  H   11.031998   7.916156   5.518223   6.872832   5.550485
    28  H   12.795563   9.735790   7.208181   8.778698   7.442405
    29  H   11.893137   9.306894   7.283700   8.384282   7.317137
    30  H   14.075759  11.087147   8.540176  10.273422   8.959055
    31  H   13.902417  11.421371   9.385642  10.596641   9.549580
    32  H   12.337505  10.224147   8.801099   9.002299   8.242784
                    6          7          8          9         10
     6  C    0.000000
     7  C    1.401051   0.000000
     8  N    2.361522   1.315372   0.000000
     9  C    3.784904   2.620497   1.425007   0.000000
    10  C    4.661419   3.477950   2.484770   1.472370   0.000000
    11  C    5.723292   4.414220   3.615255   2.528415   1.414509
    12  C    6.496150   5.242497   4.655271   3.795596   2.496376
    13  C    7.752914   6.454124   5.926060   4.999397   3.803044
    14  C    8.747245   7.516367   6.985763   6.087976   4.757459
    15  C    6.000504   5.251032   4.326082   3.742646   2.668686
    16  C    5.113618   4.189727   3.202245   2.497176   1.397550
    17  N    3.195219   2.534698   1.322540   1.494562   2.587352
    18  H    7.016918   8.356004   9.324940  10.739422  11.431328
    19  H    7.415195   8.660835   9.670014  11.059285  11.565197
    20  H    5.836357   7.118649   8.102921   9.501624  10.074713
    21  H    4.717593   5.917934   7.065622   8.479487   9.196641
    22  H    3.615917   4.570189   5.825127   7.183764   7.954438
    23  H    2.738938   4.112950   4.960979   6.364812   7.106835
    24  H    3.307399   3.805364   5.084076   6.306152   7.122251
    25  H    1.091649   2.112492   2.545244   3.903534   4.811672
    26  H    2.180687   1.084011   2.050081   2.994418   3.640592
    27  H    4.348072   3.137095   2.133947   1.087365   2.179783
    28  H    6.347894   4.983862   4.176770   2.960492   2.272092
    29  H    6.354905   5.236268   4.742417   4.110121   2.733661
    30  H    8.051016   6.690251   6.149178   5.135110   4.147930
    31  H    8.685836   7.554239   7.105978   6.362588   4.968636
    32  H    6.956883   6.240926   5.241156   4.549099   3.514014
                   11         12         13         14         15
    11  C    0.000000
    12  C    1.426758   0.000000
    13  C    2.501973   1.419505   0.000000
    14  C    3.599275   2.331732   1.343859   0.000000
    15  C    3.400530   3.593076   4.819812   5.116531   0.000000
    16  C    2.374530   2.941464   4.288863   4.910482   1.289220
    17  N    3.889655   5.057803   6.353032   7.342851   3.961676
    18  H   12.511385  12.967575  14.199820  14.960948  11.890521
    19  H   12.570864  12.851053  14.037738  14.690156  11.863508
    20  H   11.120038  11.493485  12.716551  13.432427  10.480038
    21  H   10.127546  10.588432  11.733544  12.592789  10.127117
    22  H    8.748841   9.255075  10.317624  11.275118   9.296123
    23  H    8.250969   8.861708  10.157116  11.006239   7.783255
    24  H    7.744598   8.301616   9.255106  10.309303   8.859571
    25  H    6.038942   6.881434   8.210868   9.155520   5.802815
    26  H    4.257076   4.939313   6.013016   7.113530   5.651283
    27  H    2.738611   4.117385   5.108969   6.307833   4.626678
    28  H    1.117182   2.088339   2.582712   3.799464   4.346304
    29  H    2.171055   1.083586   2.149383   2.570375   3.148118
    30  H    2.738758   2.154097   1.078819   2.135542   5.548743
    31  H    4.024621   2.631872   2.120216   1.093204   4.931129
    32  H    4.102414   4.249357   5.311947   5.439486   1.067897
                   16         17         18         19         20
    16  C    0.000000
    17  N    2.976337   0.000000
    18  H   11.465294   9.843113   0.000000
    19  H   11.524512  10.282901   1.626585   0.000000
    20  H   10.075827   8.693275   1.615233   1.622548   0.000000
    21  H    9.483228   7.846932   2.944501   3.334447   2.124635
    22  H    8.472489   6.788610   4.838181   5.177318   3.917007
    23  H    7.212479   5.466162   4.390510   4.897604   3.278523
    24  H    7.876411   6.190617   6.492778   6.827131   5.551127
    25  H    5.044290   2.918727   6.933683   7.431848   5.822922
    26  H    4.537779   3.368126   8.746858   8.946712   7.474668
    27  H    3.379076   2.216055  11.346858  11.744169  10.173525
    28  H    3.335726   4.405582  13.262137  13.391209  11.917326
    29  H    2.753662   5.163327  12.499059  12.283507  10.981258
    30  H    4.872137   6.577419  14.665820  14.582328  13.226764
    31  H    4.903450   7.497897  14.580324  14.210807  13.018592
    32  H    2.204622   4.698359  12.717960  12.701614  11.332873
                   21         22         23         24         25
    21  H    0.000000
    22  H    1.911766   0.000000
    23  H    2.764901   2.935048   0.000000
    24  H    3.579474   1.668532   3.914460   0.000000
    25  H    5.011616   4.258784   2.562118   4.223626   0.000000
    26  H    6.106860   4.553971   4.725336   3.509404   3.097517
    27  H    8.985046   7.555448   7.014389   6.499860   4.556234
    28  H   10.792221   9.304404   8.985463   8.158822   6.701556
    29  H   10.237370   9.042416   8.502540   8.251699   6.698526
    30  H   12.104971  10.581345  10.581421   9.390472   8.550239
    31  H   12.312546  11.108906  10.759276  10.271306   9.075808
    32  H   11.073280  10.300709   8.654350   9.891249   6.670656
                   26         27         28         29         30
    26  H    0.000000
    27  H    3.328542   0.000000
    28  H    4.750757   2.740286   0.000000
    29  H    4.995926   4.665471   3.070337   0.000000
    30  H    6.193739   5.013110   2.359808   3.089970   0.000000
    31  H    7.177622   6.745459   4.476522   2.397100   3.084383
    32  H    6.678492   5.345368   4.919366   3.864935   6.023311
                   31         32
    31  H    0.000000
    32  H    5.272811   0.000000
 Stoichiometry    C14H15N3
 Framework group  C1[X(C14H15N3)]
 Deg. of freedom    90
 Full point group                 C1      NOp   1
 Largest Abelian subgroup         C1      NOp   1
 Largest concise Abelian subgroup C1      NOp   1
                         Standard orientation:                         
 ---------------------------------------------------------------------
 Center     Atomic      Atomic             Coordinates (Angstroms)
 Number     Number       Type             X           Y           Z
 ---------------------------------------------------------------------
      1          7           0        8.044876   -0.942587   -1.773354
      2          6           0        5.342953   -0.825984    0.371845
      3          6           0        2.829913   -1.018981    1.805900
      4          6           0        4.362866   -0.000133   -0.017936
      5          6           0        3.119334   -0.117532    0.768866
      6          6           0        1.957661    0.648960    0.484579
      7          6           0        0.658237    0.341598    0.908806
      8          7           0       -0.330952    1.185624    0.710484
      9          6           0       -1.719316    1.443504    0.901759
     10          6           0       -2.679702    0.754764    0.023595
     11          6           0       -3.721965   -0.055068    0.532216
     12          6           0       -4.240049   -1.184315   -0.169231
     13          6           0       -5.346757   -1.942756    0.294404
     14          6           0       -6.150027   -2.424941   -0.669033
     15          6           0       -3.183942    1.301014   -2.539457
     16          6           0       -2.803803    1.108958   -1.322618
     17          7           0       -0.711141    2.401040    0.353650
     18          1           0        8.593268   -0.089413   -1.674277
     19          1           0        8.371136   -1.384941   -2.632422
     20          1           0        7.099662   -0.633743   -1.960325
     21          1           0        6.345769   -1.011006   -0.010096
     22          1           0        4.909815   -1.306357    1.216954
     23          1           0        4.380830    0.772656   -0.786141
     24          1           0        3.673229   -1.502144    2.319915
     25          1           0        2.058996    1.584456   -0.068844
     26          1           0        0.413491   -0.602944    1.381056
     27          1           0       -2.033894    1.584479    1.933034
     28          1           0       -4.285575    0.088023    1.486137
     29          1           0       -3.820518   -1.443185   -1.134186
     30          1           0       -5.658343   -1.824238    1.320425
     31          1           0       -5.729607   -2.816215   -1.599219
     32          1           0       -3.890151    1.901495   -3.069642
 ---------------------------------------------------------------------
 Rotational constants (GHZ):           0.7826346           0.1277257           0.1247517
 Standard basis: 6-31G(2df,p) (6D, 7F)
 There are   602 symmetry adapted cartesian basis functions of A   symmetry.
 There are   551 symmetry adapted basis functions of A   symmetry.
   551 basis functions,   853 primitive gaussians,   602 cartesian basis functions
    60 alpha electrons       60 beta electrons
       nuclear repulsion energy       954.7368819508 Hartrees.
 NAtoms=   32 NActive=   32 NUniq=   32 SFac= 1.00D+00 NAtFMM=   60 NAOKFM=F Big=F
 Integral buffers will be    131072 words long.
 Raffenetti 2 integral format.
 Two-electron integral symmetry is turned on.
 One-electron integrals computed using PRISM.
 PrsmSu:  requested number of processors reduced to:  12 ShMem   1 Linda.
 NBasis=   551 RedAO= T EigKep=  2.00D-04  NBF=   551
 NBsUse=   551 1.00D-06 EigRej= -1.00D+00 NBFU=   551
 Initial guess from the checkpoint file:  "NCC1CdCCdCNdCC2dCCdCCdCdCN21.chk"
 B after Tr=    -0.000000   -0.000000   -0.000000
         Rot=    0.998589   -0.052878    0.000694    0.004906 Ang=  -6.09 deg.
 ExpMin= 1.61D-01 ExpMax= 4.17D+03 ExpMxC= 6.27D+02 IAcc=2 IRadAn=         4 AccDes= 0.00D+00
 Harris functional with IExCor=  402 and IRadAn=       4 diagonalized for initial guess.
 HarFok:  IExCor=  402 AccDes= 0.00D+00 IRadAn=         4 IDoV= 1 UseB2=F ITyADJ=14
 ICtDFT=  3500011 ScaDFX=  1.000000  1.000000  1.000000  1.000000
 FoFCou: FMM=F IPFlag=           0 FMFlag=      100000 FMFlg1=           0
         NFxFlg=           0 DoJE=T BraDBF=F KetDBF=T FulRan=T
         wScrn=  0.000000 ICntrl=       500 IOpCl=  0 I1Cent=   200000004 NGrid=           0
         NMat0=    1 NMatS0=      1 NMatT0=    0 NMatD0=    1 NMtDS0=    0 NMtDT0=    0
 Petite list used in FoFCou.
 Requested convergence on RMS density matrix=1.00D-08 within 128 cycles.
 Requested convergence on MAX density matrix=1.00D-06.
 Requested convergence on             energy=1.00D-06.
 No special actions if energy rises.
 Integral accuracy reduced to 1.0D-05 until final iterations.
 EnCoef did     4 forward-backward iterations
 Initial convergence to 1.0D-05 achieved.  Increase integral accuracy.
 SCF Done:  E(RB3LYP) =  -706.249313283     A.U. after   17 cycles
            NFock= 17  Conv=0.96D-08     -V/T= 2.0083
 PrsmSu:  requested number of processors reduced to:  13 ShMem   1 Linda.
 Calling FoFJK, ICntrl=      2127 FMM=F ISym2X=0 I1Cent= 0 IOpClX= 0 NMat=1 NMatS=1 NMatT=0.
 ***** Axes restored to original set *****
 -------------------------------------------------------------------
 Center     Atomic                   Forces (Hartrees/Bohr)
 Number     Number              X              Y              Z
 -------------------------------------------------------------------
      1        7          -0.003957420   -0.003926393   -0.000572301
      2        6           0.010742877   -0.011878635    0.014443805
      3        6           0.008438400    0.003631024    0.000050870
      4        6          -0.008585576   -0.001690870    0.007209335
      5        6           0.021431433    0.017903174   -0.002755394
      6        6          -0.011186890   -0.007542004    0.002940521
      7        6           0.000486178   -0.002201512   -0.003274383
      8        7           0.006816265    0.001048158    0.024106487
      9        6          -0.004269291   -0.002434849    0.002712304
     10        6           0.018794338    0.017197994    0.001249819
     11        6           0.015958111    0.008268295   -0.013089801
     12        6          -0.005744990   -0.003331793    0.014819630
     13        6          -0.009056912   -0.003900541    0.002814834
     14        6           0.007352345   -0.002142899   -0.001157453
     15        6          -0.083391569    0.070032382   -0.000772913
     16        6           0.076031467   -0.065382646   -0.002055700
     17        7          -0.004877687    0.004941525   -0.020256639
     18        1           0.000587223    0.000330120   -0.001551433
     19        1          -0.000754154    0.002386100    0.000975754
     20        1           0.004541732   -0.000627809    0.001490324
     21        1           0.004192957    0.004124356    0.004515635
     22        1          -0.023646628    0.002884390   -0.027153367
     23        1          -0.000261790   -0.004027421   -0.006057905
     24        1          -0.003386690   -0.000011987    0.005038622
     25        1           0.000748272   -0.001293166   -0.000158453
     26        1          -0.001607736   -0.001642121    0.001692074
     27        1          -0.001313209    0.002736835   -0.000470229
     28        1          -0.018639257   -0.017728503   -0.002075670
     29        1          -0.000422491   -0.001740973    0.000522675
     30        1          -0.002157675    0.008393445    0.001712047
     31        1           0.001272174   -0.001343933   -0.001451330
     32        1           0.005866194   -0.011029740   -0.003441763
 -------------------------------------------------------------------
 Cartesian Forces:  Max     0.083391569 RMS     0.017302118

 GradGradGradGradGradGradGradGradGradGradGradGradGradGradGradGradGradGrad
 Berny optimization.
 Using GEDIIS/GDIIS optimizer.
 FormGI is forming the generalized inverse of G from B-inverse, IUseBI=4.
 Internal  Forces:  Max     0.227141761 RMS     0.030820937
 Search for a local minimum.
 Step number  54 out of a maximum of  177
 All quantities printed in internal units (Hartrees-Bohrs-Radians)
 Mixed Optimization -- RFO/linear search
 Update second derivatives using D2CorX and points   53   54
 DE= -1.22D-03 DEPred=-1.34D-02 R= 9.11D-02
 Trust test= 9.11D-02 RLast= 3.01D-01 DXMaxT set to 6.31D-01
 ITU= -1  1  0 -1  0 -1  0  0  1  0  1  0  1  1  1  1  0  1  0  1
 ITU=  1  1  1  1  0  1  0 -1 -1  1  0  1  0  1  0 -1  1  0  0  1
 ITU=  1  1 -1 -1  1  1  0  1  0  0  0  0  1  0
 Use linear search instead of GDIIS.
     Eigenvalues ---    0.00003   0.00069   0.00236   0.00398   0.00490
     Eigenvalues ---    0.00594   0.00665   0.00772   0.00926   0.01053
     Eigenvalues ---    0.01221   0.01504   0.01913   0.02215   0.02291
     Eigenvalues ---    0.02328   0.02584   0.02870   0.03259   0.03344
     Eigenvalues ---    0.03379   0.03504   0.03619   0.04044   0.04151
     Eigenvalues ---    0.04272   0.04767   0.05161   0.05409   0.06389
     Eigenvalues ---    0.07394   0.08160   0.08866   0.10091   0.10803
     Eigenvalues ---    0.11441   0.12110   0.12665   0.13430   0.13814
     Eigenvalues ---    0.14051   0.14503   0.14942   0.15111   0.15512
     Eigenvalues ---    0.15802   0.15841   0.16052   0.16197   0.16796
     Eigenvalues ---    0.17134   0.18158   0.19097   0.19733   0.21118
     Eigenvalues ---    0.21355   0.21502   0.22291   0.22466   0.22669
     Eigenvalues ---    0.22875   0.24325   0.25940   0.27783   0.28656
     Eigenvalues ---    0.30257   0.31463   0.33713   0.35023   0.37819
     Eigenvalues ---    0.39309   0.41972   0.43311   0.45282   0.50427
     Eigenvalues ---    0.51271   0.60566   0.64441   0.71803   0.76912
     Eigenvalues ---    0.80605   0.83036   0.99353   1.49892   1.59013
     Eigenvalues ---    1.83678   2.26034   3.01392   5.80981  77.70808
 RFO step:  Lambda=-1.97505126D-02 EMin= 3.36861293D-05
 Quartic linear search produced a step of -0.45235.
 New curvilinear step failed, DQL= 6.20D+00 SP=-1.34D-01.
 ITry= 1 IFail=1 DXMaxC= 0.00D+00 DCOld= 1.00D+10 DXMaxT= 6.31D-01 DXLimC= 3.00D+00 Rises=F
 New curvilinear step failed, DQL= 6.21D+00 SP=-1.42D-01.
 ITry= 2 IFail=1 DXMaxC= 0.00D+00 DCOld= 1.00D+10 DXMaxT= 6.31D-01 DXLimC= 3.00D+00 Rises=F
 New curvilinear step failed, DQL= 6.22D+00 SP=-1.50D-01.
 ITry= 3 IFail=1 DXMaxC= 0.00D+00 DCOld= 1.00D+10 DXMaxT= 6.31D-01 DXLimC= 3.00D+00 Rises=F
 New curvilinear step failed, DQL= 6.23D+00 SP=-1.56D-01.
 ITry= 4 IFail=1 DXMaxC= 0.00D+00 DCOld= 1.00D+10 DXMaxT= 6.31D-01 DXLimC= 3.00D+00 Rises=F
 New curvilinear step failed, DQL= 6.23D+00 SP=-1.61D-01.
 ITry= 5 IFail=1 DXMaxC= 0.00D+00 DCOld= 1.00D+10 DXMaxT= 6.31D-01 DXLimC= 3.00D+00 Rises=F
 New curvilinear step failed, DQL= 6.24D+00 SP=-1.63D-01.
 ITry= 6 IFail=1 DXMaxC= 0.00D+00 DCOld= 1.00D+10 DXMaxT= 6.31D-01 DXLimC= 3.00D+00 Rises=F
 New curvilinear step failed, DQL= 6.25D+00 SP=-1.56D-01.
 ITry= 7 IFail=1 DXMaxC= 0.00D+00 DCOld= 1.00D+10 DXMaxT= 6.31D-01 DXLimC= 3.00D+00 Rises=F
slurmstepd: error: *** JOB 27448336 ON lewis4-r630-hpc4rc-node370 CANCELLED AT 2023-05-17T13:17:46 DUE TO TIME LIMIT ***
