### Starting Gaussian ###
 Entering Gaussian System, Link 0=g16
 Initial command:
 /cluster/software/gaussian/gaussian-16-A.03/avx2/g16/l1.exe "/local/scratch/cz9n3/Gau-27090.inp" -scrdir="/local/scratch/cz9n3/"
 Entering Link 1 = /cluster/software/gaussian/gaussian-16-A.03/avx2/g16/l1.exe PID=     27091.
  
 Copyright (c) 1988,1990,1992,1993,1995,1998,2003,2009,2016,
            Gaussian, Inc.  All Rights Reserved.
  
 This is part of the Gaussian(R) 16 program.  It is based on
 the Gaussian(R) 09 system (copyright 2009, Gaussian, Inc.),
 the Gaussian(R) 03 system (copyright 2003, Gaussian, Inc.),
 the Gaussian(R) 98 system (copyright 1998, Gaussian, Inc.),
 the Gaussian(R) 94 system (copyright 1995, Gaussian, Inc.),
 the Gaussian 92(TM) system (copyright 1992, Gaussian, Inc.),
 the Gaussian 90(TM) system (copyright 1990, Gaussian, Inc.),
 the Gaussian 88(TM) system (copyright 1988, Gaussian, Inc.),
 the Gaussian 86(TM) system (copyright 1986, Carnegie Mellon
 University), and the Gaussian 82(TM) system (copyright 1983,
 Carnegie Mellon University). Gaussian is a federally registered
 trademark of Gaussian, Inc.
  
 This software contains proprietary and confidential information,
 including trade secrets, belonging to Gaussian, Inc.
  
 This software is provided under written license and may be
 used, copied, transmitted, or stored only in accord with that
 written license.
  
 The following legend is applicable only to US Government
 contracts under FAR:
  
                    RESTRICTED RIGHTS LEGEND
  
 Use, reproduction and disclosure by the US Government is
 subject to restrictions as set forth in subparagraphs (a)
 and (c) of the Commercial Computer Software - Restricted
 Rights clause in FAR 52.227-19.
  
 Gaussian, Inc.
 340 Quinnipiac St., Bldg. 40, Wallingford CT 06492
  
  
 ---------------------------------------------------------------
 Warning -- This program may not be used in any manner that
 competes with the business of Gaussian, Inc. or will provide
 assistance to any competitor of Gaussian, Inc.  The licensee
 of this program is prohibited from giving any competitor of
 Gaussian, Inc. access to this program.  By using this program,
 the user acknowledges that Gaussian, Inc. is engaged in the
 business of creating and licensing software in the field of
 computational chemistry and represents and warrants to the
 licensee that it is not a competitor of Gaussian, Inc. and that
 it will not use this program in any manner prohibited above.
 ---------------------------------------------------------------
  

 Cite this work as:
 Gaussian 16, Revision A.03,
 M. J. Frisch, G. W. Trucks, H. B. Schlegel, G. E. Scuseria, 
 M. A. Robb, J. R. Cheeseman, G. Scalmani, V. Barone, 
 G. A. Petersson, H. Nakatsuji, X. Li, M. Caricato, A. V. Marenich, 
 J. Bloino, B. G. Janesko, R. Gomperts, B. Mennucci, H. P. Hratchian, 
 J. V. Ortiz, A. F. Izmaylov, J. L. Sonnenberg, D. Williams-Young, 
 F. Ding, F. Lipparini, F. Egidi, J. Goings, B. Peng, A. Petrone, 
 T. Henderson, D. Ranasinghe, V. G. Zakrzewski, J. Gao, N. Rega, 
 G. Zheng, W. Liang, M. Hada, M. Ehara, K. Toyota, R. Fukuda, 
 J. Hasegawa, M. Ishida, T. Nakajima, Y. Honda, O. Kitao, H. Nakai, 
 T. Vreven, K. Throssell, J. A. Montgomery, Jr., J. E. Peralta, 
 F. Ogliaro, M. J. Bearpark, J. J. Heyd, E. N. Brothers, K. N. Kudin, 
 V. N. Staroverov, T. A. Keith, R. Kobayashi, J. Normand, 
 K. Raghavachari, A. P. Rendell, J. C. Burant, S. S. Iyengar, 
 J. Tomasi, M. Cossi, J. M. Millam, M. Klene, C. Adamo, R. Cammi, 
 J. W. Ochterski, R. L. Martin, K. Morokuma, O. Farkas, 
 J. B. Foresman, and D. J. Fox, Gaussian, Inc., Wallingford CT, 2016.
 
 ******************************************
 Gaussian 16:  ES64L-G16RevA.03 25-Dec-2016
                18-May-2023 
 ******************************************
 %chk=NCCCCOC1dC2CdCqNdN2rSCdC1.chk
 %NProcShared=20
 Will use up to   20 processors via shared memory.
 -----------------------------
 # opt freq b3lyp/6-31g(2df,p)
 -----------------------------
 1/18=20,19=15,26=3,38=1/1,3;
 2/9=110,12=2,17=6,18=5,40=1/2;
 3/5=1,6=6,7=104,11=2,25=1,30=1,71=1,74=-5/1,2,3;
 4//1;
 5/5=2,38=5/2;
 6/7=2,8=2,9=2,10=2,28=1/1;
 7//1,2,3,16;
 1/18=20,19=15,26=3/3(2);
 2/9=110/2;
 99//99;
 2/9=110/2;
 3/5=1,6=6,7=104,11=2,25=1,30=1,71=1,74=-5/1,2,3;
 4/5=5,16=3,69=1/1;
 5/5=2,38=5/2;
 7//1,2,3,16;
 1/18=20,19=15,26=3/3(-5);
 2/9=110/2;
 6/7=2,8=2,9=2,10=2,19=2,28=1/1;
 99/9=1/99;
 -------------------
 Title Card Required
 -------------------
 Symbolic Z-matrix:
 Charge =  0 Multiplicity = 1
 N                     0.94156  -0.0109   -0.08299 
 C                     2.39981  -0.01997  -0.07548 
 C                     2.92151  -0.58753  -1.39311 
 C                     4.44907  -0.60503  -1.44187 
 C                     4.94191  -1.16041  -2.78371 
 O                     6.36528  -1.19231  -2.767 
 C                     7.00462  -1.56251  -3.93651 
 C                     6.64098  -1.16819  -5.18997 
 C                     7.74204  -0.77881  -6.11833 
 C                     7.97863  -1.97014  -6.69302 
 N                     6.75235  -2.59221  -6.85354 
 N                     5.95933  -2.10682  -5.98582 
 S                     9.38483  -2.8632   -6.124 
 C                     9.12554  -2.92362  -4.40076 
 C                     8.1896   -2.3639   -3.62577 
 H                     0.59877   0.33937   0.81075 
 H                     0.59015  -0.96409  -0.16848 
 H                     2.75652  -0.6212    0.76776 
 H                     2.7624    1.00379   0.06476 
 H                     2.54135   0.01286  -2.22924 
 H                     2.5441   -1.6087   -1.53166 
 H                     4.84827  -1.20458  -0.61271 
 H                     4.84598   0.40755  -1.29233 
 H                     4.57426  -0.52824  -3.59684 
 H                     4.57363  -2.18492  -2.9093 
 H                     7.23723  -0.04663  -6.7723 
 H                     9.87674  -3.5157   -3.87159 
 H                     8.27767  -2.56826  -2.55286 
 

 GradGradGradGradGradGradGradGradGradGradGradGradGradGradGradGradGradGrad
 Berny optimization.
 Initialization pass.
                           ----------------------------
                           !    Initial Parameters    !
                           ! (Angstroms and Degrees)  !
 --------------------------                            --------------------------
 ! Name  Definition              Value          Derivative Info.                !
 --------------------------------------------------------------------------------
 ! R1    R(1,2)                  1.4583         estimate D2E/DX2                !
 ! R2    R(1,16)                 1.0193         estimate D2E/DX2                !
 ! R3    R(1,17)                 1.0195         estimate D2E/DX2                !
 ! R4    R(2,3)                  1.5266         estimate D2E/DX2                !
 ! R5    R(2,18)                 1.0953         estimate D2E/DX2                !
 ! R6    R(2,19)                 1.0951         estimate D2E/DX2                !
 ! R7    R(3,4)                  1.5284         estimate D2E/DX2                !
 ! R8    R(3,20)                 1.0973         estimate D2E/DX2                !
 ! R9    R(3,21)                 1.0975         estimate D2E/DX2                !
 ! R10   R(4,5)                  1.5336         estimate D2E/DX2                !
 ! R11   R(4,22)                 1.0983         estimate D2E/DX2                !
 ! R12   R(4,23)                 1.0978         estimate D2E/DX2                !
 ! R13   R(5,6)                  1.4238         estimate D2E/DX2                !
 ! R14   R(5,24)                 1.0936         estimate D2E/DX2                !
 ! R15   R(5,25)                 1.0959         estimate D2E/DX2                !
 ! R16   R(6,7)                  1.3833         estimate D2E/DX2                !
 ! R17   R(7,8)                  1.3634         estimate D2E/DX2                !
 ! R18   R(7,15)                 1.4639         estimate D2E/DX2                !
 ! R19   R(8,9)                  1.4919         estimate D2E/DX2                !
 ! R20   R(8,12)                 1.4068         estimate D2E/DX2                !
 ! R21   R(9,10)                 1.3437         estimate D2E/DX2                !
 ! R22   R(9,26)                 1.1039         estimate D2E/DX2                !
 ! R23   R(10,11)                1.3844         estimate D2E/DX2                !
 ! R24   R(10,13)                1.7603         estimate D2E/DX2                !
 ! R25   R(11,12)                1.2718         estimate D2E/DX2                !
 ! R26   R(13,14)                1.7437         estimate D2E/DX2                !
 ! R27   R(14,15)                1.3379         estimate D2E/DX2                !
 ! R28   R(14,27)                1.0931         estimate D2E/DX2                !
 ! R29   R(15,28)                1.0957         estimate D2E/DX2                !
 ! A1    A(2,1,16)             109.5064         estimate D2E/DX2                !
 ! A2    A(2,1,17)             109.834          estimate D2E/DX2                !
 ! A3    A(16,1,17)            106.1943         estimate D2E/DX2                !
 ! A4    A(1,2,3)              109.8525         estimate D2E/DX2                !
 ! A5    A(1,2,18)             109.4527         estimate D2E/DX2                !
 ! A6    A(1,2,19)             109.0225         estimate D2E/DX2                !
 ! A7    A(3,2,18)             110.4326         estimate D2E/DX2                !
 ! A8    A(3,2,19)             110.1787         estimate D2E/DX2                !
 ! A9    A(18,2,19)            107.8622         estimate D2E/DX2                !
 ! A10   A(2,3,4)              111.9218         estimate D2E/DX2                !
 ! A11   A(2,3,20)             109.6252         estimate D2E/DX2                !
 ! A12   A(2,3,21)             109.7175         estimate D2E/DX2                !
 ! A13   A(4,3,20)             109.1597         estimate D2E/DX2                !
 ! A14   A(4,3,21)             109.209          estimate D2E/DX2                !
 ! A15   A(20,3,21)            107.0839         estimate D2E/DX2                !
 ! A16   A(3,4,5)              110.6856         estimate D2E/DX2                !
 ! A17   A(3,4,22)             110.2074         estimate D2E/DX2                !
 ! A18   A(3,4,23)             110.269          estimate D2E/DX2                !
 ! A19   A(5,4,22)             110.246          estimate D2E/DX2                !
 ! A20   A(5,4,23)             109.6956         estimate D2E/DX2                !
 ! A21   A(22,4,23)            105.6196         estimate D2E/DX2                !
 ! A22   A(4,5,6)              108.609          estimate D2E/DX2                !
 ! A23   A(4,5,24)             109.4624         estimate D2E/DX2                !
 ! A24   A(4,5,25)             109.319          estimate D2E/DX2                !
 ! A25   A(6,5,24)             110.962          estimate D2E/DX2                !
 ! A26   A(6,5,25)             108.4418         estimate D2E/DX2                !
 ! A27   A(24,5,25)            110.0119         estimate D2E/DX2                !
 ! A28   A(5,6,7)              117.265          estimate D2E/DX2                !
 ! A29   A(6,7,8)              125.2113         estimate D2E/DX2                !
 ! A30   A(6,7,15)             109.9479         estimate D2E/DX2                !
 ! A31   A(8,7,15)             124.707          estimate D2E/DX2                !
 ! A32   A(7,8,9)              116.7902         estimate D2E/DX2                !
 ! A33   A(7,8,12)             117.1528         estimate D2E/DX2                !
 ! A34   A(9,8,12)             100.3531         estimate D2E/DX2                !
 ! A35   A(8,9,10)              99.4789         estimate D2E/DX2                !
 ! A36   A(8,9,26)             101.7858         estimate D2E/DX2                !
 ! A37   A(10,9,26)            114.532          estimate D2E/DX2                !
 ! A38   A(9,10,11)            106.9791         estimate D2E/DX2                !
 ! A39   A(9,10,13)            116.8851         estimate D2E/DX2                !
 ! A40   A(11,10,13)           121.139          estimate D2E/DX2                !
 ! A41   A(10,11,12)           107.5615         estimate D2E/DX2                !
 ! A42   A(8,12,11)            109.7854         estimate D2E/DX2                !
 ! A43   A(10,13,14)           102.6062         estimate D2E/DX2                !
 ! A44   A(13,14,15)           131.4537         estimate D2E/DX2                !
 ! A45   A(13,14,27)           113.2659         estimate D2E/DX2                !
 ! A46   A(15,14,27)           115.2738         estimate D2E/DX2                !
 ! A47   A(7,15,14)            132.2495         estimate D2E/DX2                !
 ! A48   A(7,15,28)            112.0248         estimate D2E/DX2                !
 ! A49   A(14,15,28)           115.6547         estimate D2E/DX2                !
 ! D1    D(16,1,2,3)           178.1019         estimate D2E/DX2                !
 ! D2    D(16,1,2,18)           56.6921         estimate D2E/DX2                !
 ! D3    D(16,1,2,19)          -61.0735         estimate D2E/DX2                !
 ! D4    D(17,1,2,3)            61.8506         estimate D2E/DX2                !
 ! D5    D(17,1,2,18)          -59.5593         estimate D2E/DX2                !
 ! D6    D(17,1,2,19)         -177.3249         estimate D2E/DX2                !
 ! D7    D(1,2,3,4)            179.3979         estimate D2E/DX2                !
 ! D8    D(1,2,3,20)            58.1258         estimate D2E/DX2                !
 ! D9    D(1,2,3,21)           -59.204          estimate D2E/DX2                !
 ! D10   D(18,2,3,4)           -59.7813         estimate D2E/DX2                !
 ! D11   D(18,2,3,20)          178.9466         estimate D2E/DX2                !
 ! D12   D(18,2,3,21)           61.6168         estimate D2E/DX2                !
 ! D13   D(19,2,3,4)            59.2731         estimate D2E/DX2                !
 ! D14   D(19,2,3,20)          -61.999          estimate D2E/DX2                !
 ! D15   D(19,2,3,21)         -179.3289         estimate D2E/DX2                !
 ! D16   D(2,3,4,5)           -179.1678         estimate D2E/DX2                !
 ! D17   D(2,3,4,22)            58.6146         estimate D2E/DX2                !
 ! D18   D(2,3,4,23)           -57.6027         estimate D2E/DX2                !
 ! D19   D(20,3,4,5)           -57.6273         estimate D2E/DX2                !
 ! D20   D(20,3,4,22)         -179.8449         estimate D2E/DX2                !
 ! D21   D(20,3,4,23)           63.9378         estimate D2E/DX2                !
 ! D22   D(21,3,4,5)            59.1414         estimate D2E/DX2                !
 ! D23   D(21,3,4,22)          -63.0762         estimate D2E/DX2                !
 ! D24   D(21,3,4,23)         -179.2935         estimate D2E/DX2                !
 ! D25   D(3,4,5,6)           -178.3777         estimate D2E/DX2                !
 ! D26   D(3,4,5,24)            60.3338         estimate D2E/DX2                !
 ! D27   D(3,4,5,25)           -60.2298         estimate D2E/DX2                !
 ! D28   D(22,4,5,6)           -56.1826         estimate D2E/DX2                !
 ! D29   D(22,4,5,24)         -177.4712         estimate D2E/DX2                !
 ! D30   D(22,4,5,25)           61.9653         estimate D2E/DX2                !
 ! D31   D(23,4,5,6)            59.7201         estimate D2E/DX2                !
 ! D32   D(23,4,5,24)          -61.5685         estimate D2E/DX2                !
 ! D33   D(23,4,5,25)          177.868          estimate D2E/DX2                !
 ! D34   D(4,5,6,7)           -174.8295         estimate D2E/DX2                !
 ! D35   D(24,5,6,7)           -54.4662         estimate D2E/DX2                !
 ! D36   D(25,5,6,7)            66.4684         estimate D2E/DX2                !
 ! D37   D(5,6,7,8)             41.009          estimate D2E/DX2                !
 ! D38   D(5,6,7,15)          -143.0421         estimate D2E/DX2                !
 ! D39   D(6,7,8,9)            137.4687         estimate D2E/DX2                !
 ! D40   D(6,7,8,12)          -103.5039         estimate D2E/DX2                !
 ! D41   D(15,7,8,9)           -37.8978         estimate D2E/DX2                !
 ! D42   D(15,7,8,12)           81.1296         estimate D2E/DX2                !
 ! D43   D(6,7,15,14)         -178.7576         estimate D2E/DX2                !
 ! D44   D(6,7,15,28)            4.5113         estimate D2E/DX2                !
 ! D45   D(8,7,15,14)           -2.7838         estimate D2E/DX2                !
 ! D46   D(8,7,15,28)         -179.515          estimate D2E/DX2                !
 ! D47   D(7,8,9,10)            91.0148         estimate D2E/DX2                !
 ! D48   D(7,8,9,26)          -151.2845         estimate D2E/DX2                !
 ! D49   D(12,8,9,10)          -36.7155         estimate D2E/DX2                !
 ! D50   D(12,8,9,26)           80.9852         estimate D2E/DX2                !
 ! D51   D(7,8,12,11)         -103.545          estimate D2E/DX2                !
 ! D52   D(9,8,12,11)           23.9458         estimate D2E/DX2                !
 ! D53   D(8,9,10,11)           37.6452         estimate D2E/DX2                !
 ! D54   D(8,9,10,13)         -101.9081         estimate D2E/DX2                !
 ! D55   D(26,9,10,11)         -70.0427         estimate D2E/DX2                !
 ! D56   D(26,9,10,13)         150.404          estimate D2E/DX2                !
 ! D57   D(9,10,11,12)         -24.7468         estimate D2E/DX2                !
 ! D58   D(13,10,11,12)        112.7193         estimate D2E/DX2                !
 ! D59   D(9,10,13,14)          53.5744         estimate D2E/DX2                !
 ! D60   D(11,10,13,14)        -79.9642         estimate D2E/DX2                !
 ! D61   D(10,11,12,8)          -1.622          estimate D2E/DX2                !
 ! D62   D(10,13,14,15)         -5.2727         estimate D2E/DX2                !
 ! D63   D(10,13,14,27)        175.7225         estimate D2E/DX2                !
 ! D64   D(13,14,15,7)           3.9231         estimate D2E/DX2                !
 ! D65   D(13,14,15,28)       -179.4387         estimate D2E/DX2                !
 ! D66   D(27,14,15,7)        -177.0879         estimate D2E/DX2                !
 ! D67   D(27,14,15,28)         -0.4497         estimate D2E/DX2                !
 --------------------------------------------------------------------------------
 Trust Radius=3.00D-01 FncErr=1.00D-07 GrdErr=1.00D-06 EigMax=2.50D+02 EigMin=1.00D-04
 Number of steps in this run=    155 maximum allowed number of steps=    168.
 GradGradGradGradGradGradGradGradGradGradGradGradGradGradGradGradGradGrad

                          Input orientation:                          
 ---------------------------------------------------------------------
 Center     Atomic      Atomic             Coordinates (Angstroms)
 Number     Number       Type             X           Y           Z
 ---------------------------------------------------------------------
      1          7           0        0.941560   -0.010900   -0.082990
      2          6           0        2.399810   -0.019970   -0.075480
      3          6           0        2.921510   -0.587530   -1.393110
      4          6           0        4.449070   -0.605030   -1.441870
      5          6           0        4.941910   -1.160410   -2.783710
      6          8           0        6.365280   -1.192310   -2.767000
      7          6           0        7.004620   -1.562510   -3.936510
      8          6           0        6.640980   -1.168190   -5.189970
      9          6           0        7.742040   -0.778810   -6.118330
     10          6           0        7.978630   -1.970140   -6.693020
     11          7           0        6.752350   -2.592210   -6.853540
     12          7           0        5.959330   -2.106820   -5.985820
     13         16           0        9.384830   -2.863200   -6.124000
     14          6           0        9.125540   -2.923620   -4.400760
     15          6           0        8.189600   -2.363900   -3.625770
     16          1           0        0.598770    0.339370    0.810750
     17          1           0        0.590150   -0.964090   -0.168480
     18          1           0        2.756520   -0.621200    0.767760
     19          1           0        2.762400    1.003790    0.064760
     20          1           0        2.541350    0.012860   -2.229240
     21          1           0        2.544100   -1.608700   -1.531660
     22          1           0        4.848270   -1.204580   -0.612710
     23          1           0        4.845980    0.407550   -1.292330
     24          1           0        4.574260   -0.528240   -3.596840
     25          1           0        4.573630   -2.184920   -2.909300
     26          1           0        7.237230   -0.046630   -6.772300
     27          1           0        9.876740   -3.515700   -3.871590
     28          1           0        8.277670   -2.568260   -2.552860
 ---------------------------------------------------------------------
                    Distance matrix (angstroms):
                    1          2          3          4          5
     1  N    0.000000
     2  C    1.458298   0.000000
     3  C    2.443178   1.526579   0.000000
     4  C    3.808172   2.531558   1.528438   0.000000
     5  C    4.961659   3.885535   2.518725   1.533582   0.000000
     6  O    6.165742   4.933925   3.756712   2.402650   1.423825
     7  C    7.349681   6.204132   4.908285   3.697409   2.396957
     8  C    7.739764   6.742695   5.346753   4.378341   2.945673
     9  C    9.124776   8.101314   6.752911   5.722161   4.371045
    10  C    9.851471   8.872330   7.454872   6.472704   5.015978
    11  N    9.288099   8.455952   6.964939   6.208072   4.678810
    12  N    8.025852   7.208137   5.712231   5.018340   3.490608
    13  S   10.766533   9.667422   8.326734   7.168222   5.813482
    14  C    9.700753   8.507331   7.279647   6.000022   4.819390
    15  C    8.403689   7.184722   5.991079   4.674891   3.564399
    16  H    1.019296   2.039185   3.333356   4.559715   5.833725
    17  H    1.019494   2.043253   2.660217   4.079425   5.080924
    18  H    2.095309   1.095342   2.167421   2.783424   4.204714
    19  H    2.089709   1.095091   2.164024   2.775444   4.189010
    20  H    2.676991   2.158655   1.097316   2.154329   2.728862
    21  H    2.686958   2.159940   1.097462   2.155070   2.741913
    22  H    4.119206   2.772521   2.168451   1.098329   2.173467
    23  H    4.108783   2.765365   2.168854   1.097824   2.166083
    24  H    5.080481   4.169718   2.755272   2.159969   1.093611
    25  H    5.089826   4.176486   2.753178   2.159842   1.095912
    26  H    9.186055   8.261280   6.917637   6.041451   4.734749
    27  H   10.318651   9.084881   7.943064   6.620811   5.575251
    28  H    8.152230   6.868801   5.827243   4.443731   3.628034
                    6          7          8          9         10
     6  O    0.000000
     7  C    1.383314   0.000000
     8  C    2.438724   1.363409   0.000000
     9  C    3.646624   2.432758   1.491912   0.000000
    10  C    4.315269   2.951814   2.166008   1.343693   0.000000
    11  N    4.336975   3.103705   2.192647   2.192815   1.384377
    12  N    3.370746   2.364017   1.406787   2.226932   2.143918
    13  S    4.814458   3.484581   3.357705   2.653954   1.760323
    14  C    3.644947   2.562509   3.142837   3.076415   2.734773
    15  C    2.332006   1.463886   2.504929   2.987587   3.099609
    16  H    6.956937   8.196862   8.648103  10.014429  10.775098
    17  H    6.336917   7.463349   7.865721   9.305083   9.908148
    18  H    5.083684   6.408009   7.133216   8.502852   9.206156
    19  H    5.081581   6.371223   6.882810   8.136650   9.039962
    20  H    4.045252   5.031634   5.193050   6.542090   7.309011
    21  H    4.037433   5.067709   5.510146   6.981750   7.503625
    22  H    2.634850   3.978141   4.915938   6.234343   6.881526
    23  H    2.653766   3.941136   4.571278   5.751947   6.680895
    24  H    2.082637   2.663032   2.686807   4.056541   4.822358
    25  H    2.053176   2.711506   3.241779   4.723753   5.094771
    26  H    4.256208   3.223927   2.029083   1.103901   2.062971
    27  H    4.353000   3.473937   4.209403   4.134653   3.735244
    28  H    2.365656   2.132294   3.404893   4.025122   4.193817
                   11         12         13         14         15
    11  N    0.000000
    12  N    1.271779   0.000000
    13  S    2.745107   3.510734   0.000000
    14  C    3.428993   3.633795   1.743685   0.000000
    15  C    3.540666   3.257304   2.814077   1.337864   0.000000
    16  H   10.256805   8.995155  11.642253  10.512504   9.198428
    17  H    9.236531   7.998461  10.789867   9.726502   8.465457
    18  H    8.828123   7.620755   9.821274   8.519340   7.201282
    19  H    8.758641   7.517032   9.854488   8.709476   7.376710
    20  H    6.775180   5.503410   8.382965   7.529274   6.285063
    21  H    6.855587   5.634843   8.334203   7.299048   6.068550
    22  H    6.670757   5.560468   7.328418   5.966528   4.646185
    23  H    6.599990   5.439711   7.392158   6.250893   4.930078
    24  H    4.428334   3.180811   5.914403   5.205601   4.054771
    25  H    4.524349   3.375091   5.825977   4.846650   3.690610
    26  H    2.592621   2.548718   3.600770   4.179353   4.022114
    27  H    4.416636   4.669155   2.396056   1.093106   2.057550
    28  H    4.563225   4.168074   3.750444   2.063952   1.095744
                   16         17         18         19         20
    16  H    0.000000
    17  H    1.630329   0.000000
    18  H    2.362293   2.384801   0.000000
    19  H    2.383118   2.940344   1.770547   0.000000
    20  H    3.622398   3.001390   3.070886   2.508633   0.000000
    21  H    3.614716   2.468137   2.511496   3.069416   1.765243
    22  H    4.740071   4.287979   2.573217   3.112349   3.068747
    23  H    4.739872   4.610480   3.109363   2.557049   2.518908
    24  H    5.998676   5.274159   4.728906   4.363172   2.509152
    25  H    6.000860   4.987047   4.389519   4.721595   3.069671
    26  H   10.085673   9.414661   8.789733   8.238500   6.534082
    27  H   11.084521  10.318163   8.977707   9.302391   8.303975
    28  H    8.873201   8.207106   6.730576   7.073166   6.298593
                   21         22         23         24         25
    21  H    0.000000
    22  H    2.513361   0.000000
    23  H    3.069396   1.749529   0.000000
    24  H    3.090940   3.072059   2.502059   0.000000
    25  H    2.519705   2.512134   3.067518   1.793683   0.000000
    26  H    7.206236   6.707349   5.996201   4.172158   5.156532
    27  H    7.929661   6.422389   6.881353   6.092348   5.551572
    28  H    5.902324   4.169483   4.713903   4.355091   3.740844
                   26         27         28
    26  H    0.000000
    27  H    5.235989   0.000000
    28  H    5.024421   2.278973   0.000000
 Stoichiometry    C10H13N3OS
 Framework group  C1[X(C10H13N3OS)]
 Deg. of freedom    78
 Full point group                 C1      NOp   1
 Largest Abelian subgroup         C1      NOp   1
 Largest concise Abelian subgroup C1      NOp   1
                         Standard orientation:                         
 ---------------------------------------------------------------------
 Center     Atomic      Atomic             Coordinates (Angstroms)
 Number     Number       Type             X           Y           Z
 ---------------------------------------------------------------------
      1          7           0        6.509344   -0.583310   -0.287826
      2          6           0        5.454149    0.316837    0.162651
      3          6           0        4.088401   -0.272253   -0.181077
      4          6           0        2.944821    0.628612    0.284532
      5          6           0        1.587659    0.000992   -0.056169
      6          8           0        0.557788    0.891072    0.361449
      7          6           0       -0.748057    0.451487    0.238603
      8          6           0       -1.184115   -0.807653    0.527225
      9          6           0       -2.476068   -0.919261    1.264926
     10          6           0       -3.320222   -0.996582    0.222364
     11          7           0       -2.692814   -1.755966   -0.750362
     12          7           0       -1.438803   -1.663757   -0.559638
     13         16           0       -4.205485    0.466498   -0.195301
     14          6           0       -2.931870    1.643933   -0.374161
     15          6           0       -1.614395    1.563641   -0.155776
     16          1           0        7.418794   -0.170553   -0.084116
     17          1           0        6.465275   -0.688359   -1.300936
     18          1           0        5.580094    1.294475   -0.314984
     19          1           0        5.543180    0.457812    1.244974
     20          1           0        3.983792   -1.258625    0.288211
     21          1           0        4.011862   -0.421479   -1.265649
     22          1           0        3.031382    1.621125   -0.177802
     23          1           0        3.012037    0.799810    1.366840
     24          1           0        1.496818   -0.965897    0.446681
     25          1           0        1.511923   -0.132063   -1.141334
     26          1           0       -2.340099   -1.866182    1.815789
     27          1           0       -3.290375    2.619887   -0.711608
     28          1           0       -1.045135    2.480221   -0.346767
 ---------------------------------------------------------------------
 Rotational constants (GHZ):           1.7488809           0.1918852           0.1798771
 Standard basis: 6-31G(2df,p) (6D, 7F)
 There are   534 symmetry adapted cartesian basis functions of A   symmetry.
 There are   489 symmetry adapted basis functions of A   symmetry.
   489 basis functions,   775 primitive gaussians,   534 cartesian basis functions
    59 alpha electrons       59 beta electrons
       nuclear repulsion energy      1044.8191215975 Hartrees.
 NAtoms=   28 NActive=   28 NUniq=   28 SFac= 1.00D+00 NAtFMM=   60 NAOKFM=F Big=F
 Integral buffers will be    131072 words long.
 Raffenetti 2 integral format.
 Two-electron integral symmetry is turned on.
 One-electron integrals computed using PRISM.
 PrsmSu:  requested number of processors reduced to:  12 ShMem   1 Linda.
 NBasis=   489 RedAO= T EigKep=  1.91D-04  NBF=   489
 NBsUse=   489 1.00D-06 EigRej= -1.00D+00 NBFU=   489
 ExpMin= 1.17D-01 ExpMax= 2.19D+04 ExpMxC= 3.30D+03 IAcc=3 IRadAn=         5 AccDes= 0.00D+00
 Harris functional with IExCor=  402 and IRadAn=       5 diagonalized for initial guess.
 HarFok:  IExCor=  402 AccDes= 0.00D+00 IRadAn=         5 IDoV= 1 UseB2=F ITyADJ=14
 ICtDFT=  3500011 ScaDFX=  1.000000  1.000000  1.000000  1.000000
 FoFCou: FMM=F IPFlag=           0 FMFlag=      100000 FMFlg1=           0
         NFxFlg=           0 DoJE=T BraDBF=F KetDBF=T FulRan=T
         wScrn=  0.000000 ICntrl=       500 IOpCl=  0 I1Cent=   200000004 NGrid=           0
         NMat0=    1 NMatS0=      1 NMatT0=    0 NMatD0=    1 NMtDS0=    0 NMtDT0=    0
 Petite list used in FoFCou.
 Requested convergence on RMS density matrix=1.00D-08 within 128 cycles.
 Requested convergence on MAX density matrix=1.00D-06.
 Requested convergence on             energy=1.00D-06.
 No special actions if energy rises.
 Integral accuracy reduced to 1.0D-05 until final iterations.
 EnCoef did     4 forward-backward iterations
 Problem detected with inexpensive integrals.
 Switching to full accuracy and repeating last cycle.
 EnCoef did   100 forward-backward iterations
 EnCoef did     2 forward-backward iterations
 EnCoef did     3 forward-backward iterations
 Restarting incremental Fock formation.
 SCF Done:  E(RB3LYP) =  -1026.21831322     A.U. after   27 cycles
            NFock= 27  Conv=0.78D-08     -V/T= 2.0051

 **********************************************************************

            Population analysis using the SCF density.

 **********************************************************************

 Orbital symmetries:
       Occupied  (A) (A) (A) (A) (A) (A) (A) (A) (A) (A) (A) (A)
                 (A) (A) (A) (A) (A) (A) (A) (A) (A) (A) (A) (A)
                 (A) (A) (A) (A) (A) (A) (A) (A) (A) (A) (A) (A)
                 (A) (A) (A) (A) (A) (A) (A) (A) (A) (A) (A) (A)
                 (A) (A) (A) (A) (A) (A) (A) (A) (A) (A) (A)
       Virtual   (A) (A) (A) (A) (A) (A) (A) (A) (A) (A) (A) (A)
                 (A) (A) (A) (A) (A) (A) (A) (A) (A) (A) (A) (A)
                 (A) (A) (A) (A) (A) (A) (A) (A) (A) (A) (A) (A)
                 (A) (A) (A) (A) (A) (A) (A) (A) (A) (A) (A) (A)
                 (A) (A) (A) (A) (A) (A) (A) (A) (A) (A) (A) (A)
                 (A) (A) (A) (A) (A) (A) (A) (A) (A) (A) (A) (A)
                 (A) (A) (A) (A) (A) (A) (A) (A) (A) (A) (A) (A)
                 (A) (A) (A) (A) (A) (A) (A) (A) (A) (A) (A) (A)
                 (A) (A) (A) (A) (A) (A) (A) (A) (A) (A) (A) (A)
                 (A) (A) (A) (A) (A) (A) (A) (A) (A) (A) (A) (A)
                 (A) (A) (A) (A) (A) (A) (A) (A) (A) (A) (A) (A)
                 (A) (A) (A) (A) (A) (A) (A) (A) (A) (A) (A) (A)
                 (A) (A) (A) (A) (A) (A) (A) (A) (A) (A) (A) (A)
                 (A) (A) (A) (A) (A) (A) (A) (A) (A) (A) (A) (A)
                 (A) (A) (A) (A) (A) (A) (A) (A) (A) (A) (A) (A)
                 (A) (A) (A) (A) (A) (A) (A) (A) (A) (A) (A) (A)
                 (A) (A) (A) (A) (A) (A) (A) (A) (A) (A) (A) (A)
                 (A) (A) (A) (A) (A) (A) (A) (A) (A) (A) (A) (A)
                 (A) (A) (A) (A) (A) (A) (A) (A) (A) (A) (A) (A)
                 (A) (A) (A) (A) (A) (A) (A) (A) (A) (A) (A) (A)
                 (A) (A) (A) (A) (A) (A) (A) (A) (A) (A) (A) (A)
                 (A) (A) (A) (A) (A) (A) (A) (A) (A) (A) (A) (A)
                 (A) (A) (A) (A) (A) (A) (A) (A) (A) (A) (A) (A)
                 (A) (A) (A) (A) (A) (A) (A) (A) (A) (A) (A) (A)
                 (A) (A) (A) (A) (A) (A) (A) (A) (A) (A) (A) (A)
                 (A) (A) (A) (A) (A) (A) (A) (A) (A) (A) (A) (A)
                 (A) (A) (A) (A) (A) (A) (A) (A) (A) (A) (A) (A)
                 (A) (A) (A) (A) (A) (A) (A) (A) (A) (A) (A) (A)
                 (A) (A) (A) (A) (A) (A) (A) (A) (A) (A) (A) (A)
                 (A) (A) (A) (A) (A) (A) (A) (A) (A) (A) (A) (A)
                 (A) (A) (A) (A) (A) (A) (A) (A) (A) (A) (A) (A)
                 (A) (A) (A) (A) (A) (A) (A) (A) (A) (A) (A) (A)
                 (A) (A) (A) (A) (A) (A) (A) (A) (A) (A) (A) (A)
                 (A) (A) (A) (A) (A) (A) (A) (A) (A) (A) (A) (A)
                 (A) (A) (A) (A) (A) (A) (A) (A) (A) (A) (A) (A)
                 (A) (A) (A) (A) (A) (A) (A) (A) (A) (A)
 The electronic state is 1-A.
 Alpha  occ. eigenvalues --  -88.92283 -19.19763 -14.37364 -14.36732 -14.30764
 Alpha  occ. eigenvalues --  -10.29081 -10.25876 -10.25056 -10.24696 -10.21526
 Alpha  occ. eigenvalues --  -10.20812 -10.19845 -10.19363 -10.19023 -10.18863
 Alpha  occ. eigenvalues --   -7.98321  -5.94786  -5.94384  -5.94005  -1.08384
 Alpha  occ. eigenvalues --   -1.06243  -0.88275  -0.86356  -0.83037  -0.79750
 Alpha  occ. eigenvalues --   -0.79474  -0.74093  -0.71899  -0.67808  -0.63259
 Alpha  occ. eigenvalues --   -0.60346  -0.59391  -0.57311  -0.54752  -0.52029
 Alpha  occ. eigenvalues --   -0.50482  -0.49525  -0.48028  -0.47420  -0.46527
 Alpha  occ. eigenvalues --   -0.45265  -0.44521  -0.42277  -0.41149  -0.39475
 Alpha  occ. eigenvalues --   -0.38863  -0.37726  -0.36488  -0.36018  -0.35040
 Alpha  occ. eigenvalues --   -0.34275  -0.34029  -0.33001  -0.31967  -0.27010
 Alpha  occ. eigenvalues --   -0.23733  -0.23500  -0.19890  -0.19760
 Alpha virt. eigenvalues --   -0.14523  -0.09282  -0.03213   0.03152   0.03801
 Alpha virt. eigenvalues --    0.07424   0.07670   0.08593   0.08811   0.10871
 Alpha virt. eigenvalues --    0.12227   0.12507   0.14184   0.14940   0.16042
 Alpha virt. eigenvalues --    0.17539   0.18010   0.18633   0.19005   0.19834
 Alpha virt. eigenvalues --    0.20959   0.21024   0.21560   0.23750   0.24213
 Alpha virt. eigenvalues --    0.24594   0.26261   0.27843   0.29247   0.29437
 Alpha virt. eigenvalues --    0.30231   0.31553   0.32898   0.34075   0.35660
 Alpha virt. eigenvalues --    0.36342   0.39317   0.40432   0.42068   0.43286
 Alpha virt. eigenvalues --    0.44452   0.45487   0.46463   0.47661   0.48565
 Alpha virt. eigenvalues --    0.49701   0.50216   0.50759   0.51239   0.52142
 Alpha virt. eigenvalues --    0.52862   0.53029   0.54433   0.56053   0.57195
 Alpha virt. eigenvalues --    0.57618   0.58782   0.59698   0.60316   0.60862
 Alpha virt. eigenvalues --    0.61460   0.61890   0.62960   0.64468   0.65230
 Alpha virt. eigenvalues --    0.65670   0.66372   0.68237   0.69171   0.70345
 Alpha virt. eigenvalues --    0.70625   0.71428   0.71528   0.71782   0.72529
 Alpha virt. eigenvalues --    0.72935   0.74135   0.74690   0.75111   0.76698
 Alpha virt. eigenvalues --    0.77026   0.78438   0.78547   0.79397   0.80663
 Alpha virt. eigenvalues --    0.81167   0.81880   0.82787   0.83201   0.83980
 Alpha virt. eigenvalues --    0.84309   0.85238   0.85711   0.86609   0.87237
 Alpha virt. eigenvalues --    0.87971   0.88412   0.90276   0.92372   0.94214
 Alpha virt. eigenvalues --    0.95135   0.95648   0.96094   0.97513   1.00193
 Alpha virt. eigenvalues --    1.01329   1.02317   1.05983   1.07017   1.07935
 Alpha virt. eigenvalues --    1.09307   1.12341   1.13191   1.14885   1.17015
 Alpha virt. eigenvalues --    1.17269   1.18457   1.20170   1.22827   1.23801
 Alpha virt. eigenvalues --    1.24700   1.25889   1.26520   1.27682   1.28983
 Alpha virt. eigenvalues --    1.31770   1.32141   1.33412   1.35150   1.35563
 Alpha virt. eigenvalues --    1.36609   1.39019   1.40286   1.41678   1.42281
 Alpha virt. eigenvalues --    1.42926   1.45715   1.48171   1.48444   1.48793
 Alpha virt. eigenvalues --    1.50172   1.51870   1.52596   1.54321   1.55124
 Alpha virt. eigenvalues --    1.56373   1.57124   1.57673   1.58310   1.60007
 Alpha virt. eigenvalues --    1.62902   1.63282   1.64830   1.66057   1.68460
 Alpha virt. eigenvalues --    1.69379   1.70907   1.71234   1.72919   1.74417
 Alpha virt. eigenvalues --    1.74541   1.76159   1.76523   1.78383   1.78703
 Alpha virt. eigenvalues --    1.81301   1.81659   1.82619   1.85942   1.87121
 Alpha virt. eigenvalues --    1.88300   1.90169   1.91555   1.92532   1.93704
 Alpha virt. eigenvalues --    1.94712   1.95203   1.96469   1.98506   2.02386
 Alpha virt. eigenvalues --    2.04056   2.04689   2.06533   2.08632   2.11446
 Alpha virt. eigenvalues --    2.13182   2.15805   2.16957   2.17558   2.17995
 Alpha virt. eigenvalues --    2.18795   2.20158   2.23008   2.25484   2.28022
 Alpha virt. eigenvalues --    2.29209   2.31017   2.32535   2.33951   2.36383
 Alpha virt. eigenvalues --    2.39330   2.40015   2.41104   2.42384   2.46140
 Alpha virt. eigenvalues --    2.47177   2.50733   2.52465   2.55064   2.56070
 Alpha virt. eigenvalues --    2.59987   2.64544   2.65954   2.69779   2.72300
 Alpha virt. eigenvalues --    2.73474   2.74082   2.74963   2.75363   2.76488
 Alpha virt. eigenvalues --    2.77378   2.78782   2.80466   2.81194   2.82591
 Alpha virt. eigenvalues --    2.84806   2.84960   2.87155   2.88973   2.89397
 Alpha virt. eigenvalues --    2.90531   2.92116   2.92550   2.94702   2.95956
 Alpha virt. eigenvalues --    2.96381   2.97181   3.00146   3.00567   3.01622
 Alpha virt. eigenvalues --    3.02167   3.05553   3.06622   3.08122   3.09391
 Alpha virt. eigenvalues --    3.09715   3.10436   3.13594   3.15658   3.17514
 Alpha virt. eigenvalues --    3.18962   3.19700   3.21791   3.22618   3.24637
 Alpha virt. eigenvalues --    3.26018   3.26754   3.28505   3.30190   3.30772
 Alpha virt. eigenvalues --    3.32581   3.33255   3.34683   3.36950   3.38813
 Alpha virt. eigenvalues --    3.39161   3.40564   3.41724   3.42787   3.43758
 Alpha virt. eigenvalues --    3.44472   3.47475   3.47726   3.48563   3.52170
 Alpha virt. eigenvalues --    3.53892   3.54837   3.55379   3.56358   3.58071
 Alpha virt. eigenvalues --    3.60786   3.63418   3.66045   3.69103   3.70427
 Alpha virt. eigenvalues --    3.71570   3.71792   3.72905   3.73806   3.74993
 Alpha virt. eigenvalues --    3.77555   3.77955   3.78453   3.79701   3.80880
 Alpha virt. eigenvalues --    3.82600   3.85369   3.90528   3.92903   3.96064
 Alpha virt. eigenvalues --    3.98558   4.00562   4.03975   4.05450   4.07820
 Alpha virt. eigenvalues --    4.09887   4.13296   4.14445   4.17275   4.19288
 Alpha virt. eigenvalues --    4.22054   4.22985   4.24307   4.26261   4.27732
 Alpha virt. eigenvalues --    4.29541   4.30828   4.32103   4.33475   4.34460
 Alpha virt. eigenvalues --    4.35973   4.36463   4.37552   4.39922   4.40426
 Alpha virt. eigenvalues --    4.41991   4.43388   4.43879   4.45882   4.46530
 Alpha virt. eigenvalues --    4.47002   4.49004   4.49455   4.51125   4.51497
 Alpha virt. eigenvalues --    4.52668   4.54246   4.55263   4.55824   4.56149
 Alpha virt. eigenvalues --    4.56772   4.58430   4.60417   4.60733   4.62216
 Alpha virt. eigenvalues --    4.62308   4.62709   4.63716   4.64645   4.66097
 Alpha virt. eigenvalues --    4.67109   4.68273   4.68878   4.69369   4.71178
 Alpha virt. eigenvalues --    4.71356   4.73864   4.75479   4.77583   4.78603
 Alpha virt. eigenvalues --    4.79905   4.81016   4.82532   4.83418   4.84142
 Alpha virt. eigenvalues --    4.85858   4.86397   4.88052   4.88944   4.92807
 Alpha virt. eigenvalues --    4.93150   4.93527   4.94704   4.96170   4.96934
 Alpha virt. eigenvalues --    4.99665   5.02792   5.05658   5.06709   5.08019
 Alpha virt. eigenvalues --    5.10132   5.14594   5.17566   5.20158   5.24659
 Alpha virt. eigenvalues --    5.27181   5.28676   5.32399   5.34540   5.36928
 Alpha virt. eigenvalues --    5.38395   5.41834   5.42986   5.45816   5.48167
 Alpha virt. eigenvalues --    5.51918   5.53972   5.54512   5.55535   5.60316
 Alpha virt. eigenvalues --    5.66043   5.70045   5.74240   5.76480   5.78403
 Alpha virt. eigenvalues --    5.84697   5.92852   5.97720   6.02981   6.17054
 Alpha virt. eigenvalues --    6.38679   6.96729   7.13943   8.10431   9.53834
 Alpha virt. eigenvalues --   10.35757  11.23956  11.28693  11.32580  11.43043
 Alpha virt. eigenvalues --   11.45670  11.46487  11.81062  11.85502  12.03230
 Alpha virt. eigenvalues --   12.11385  12.50685  12.54777  13.68577  20.73828
          Condensed to atoms (all electrons):
               1          2          3          4          5          6
     1  N    6.550800   0.385645  -0.039806   0.002057  -0.000041   0.000000
     2  C    0.385645   4.802618   0.422138  -0.030307   0.001083  -0.000024
     3  C   -0.039806   0.422138   4.828507   0.362185  -0.034528   0.001583
     4  C    0.002057  -0.030307   0.362185   4.901894   0.421416  -0.028418
     5  C   -0.000041   0.001083  -0.034528   0.421416   4.795517   0.319351
     6  O    0.000000  -0.000024   0.001583  -0.028418   0.319351   7.684481
     7  C    0.000000  -0.000001  -0.000017   0.001822  -0.073188   0.396675
     8  C   -0.000000  -0.000000   0.000013  -0.000336   0.000395  -0.039330
     9  C   -0.000000  -0.000000  -0.000000  -0.000003  -0.000024   0.001818
    10  C    0.000000   0.000000  -0.000000   0.000001   0.000045  -0.000159
    11  N    0.000000  -0.000000   0.000000   0.000000   0.000096  -0.000085
    12  N    0.000000   0.000000  -0.000001   0.000082   0.000087  -0.000843
    13  S    0.000000  -0.000000   0.000000  -0.000000  -0.000019  -0.000034
    14  C   -0.000000   0.000000  -0.000000   0.000004  -0.000030   0.002755
    15  C    0.000000  -0.000000   0.000004  -0.000185   0.005210  -0.036536
    16  H    0.337437  -0.043101   0.005363  -0.000286   0.000001  -0.000000
    17  H    0.341248  -0.052830  -0.003493  -0.000291   0.000002   0.000000
    18  H   -0.046904   0.375919  -0.046184   0.002887   0.000125   0.000002
    19  H   -0.021592   0.357257  -0.019114  -0.005583   0.000059   0.000001
    20  H    0.004383  -0.029740   0.364220  -0.032149  -0.002357   0.000040
    21  H   -0.001777  -0.038230   0.370692  -0.036147  -0.002584   0.000038
    22  H    0.000021  -0.002918  -0.027414   0.359484  -0.027949   0.002339
    23  H    0.000087  -0.003771  -0.028027   0.362322  -0.027808   0.002051
    24  H    0.000003  -0.000054   0.001421  -0.031052   0.347473  -0.032432
    25  H    0.000005  -0.000072  -0.000826  -0.037032   0.363875  -0.023766
    26  H    0.000000   0.000000   0.000000   0.000000   0.000006   0.000011
    27  H    0.000000  -0.000000  -0.000000  -0.000000   0.000000  -0.000038
    28  H    0.000000  -0.000000   0.000002  -0.000010  -0.001100   0.003058
               7          8          9         10         11         12
     1  N    0.000000  -0.000000  -0.000000   0.000000   0.000000   0.000000
     2  C   -0.000001  -0.000000  -0.000000   0.000000  -0.000000   0.000000
     3  C   -0.000017   0.000013  -0.000000  -0.000000   0.000000  -0.000001
     4  C    0.001822  -0.000336  -0.000003   0.000001   0.000000   0.000082
     5  C   -0.073188   0.000395  -0.000024   0.000045   0.000096   0.000087
     6  O    0.396675  -0.039330   0.001818  -0.000159  -0.000085  -0.000843
     7  C    4.466823   0.422326  -0.003850   0.013236   0.003354  -0.030995
     8  C    0.422326   5.305427   0.350680  -0.072913  -0.183798   0.377085
     9  C   -0.003850   0.350680   5.439329   0.447316  -0.112837  -0.104432
    10  C    0.013236  -0.072913   0.447316   4.905011   0.399795  -0.136640
    11  N    0.003354  -0.183798  -0.112837   0.399795   6.470236   0.581406
    12  N   -0.030995   0.377085  -0.104432  -0.136640   0.581406   6.450689
    13  S   -0.020053   0.017670  -0.029708   0.313906  -0.039148   0.005708
    14  C    0.001037  -0.021750  -0.007615  -0.012579   0.002596   0.000104
    15  C    0.449245  -0.035843  -0.019516  -0.005835   0.002621   0.000342
    16  H    0.000000  -0.000000  -0.000000   0.000000  -0.000000   0.000000
    17  H    0.000000  -0.000000   0.000000   0.000000   0.000000   0.000000
    18  H    0.000000  -0.000000   0.000000  -0.000000   0.000000   0.000000
    19  H    0.000000   0.000000   0.000000   0.000000   0.000000  -0.000000
    20  H    0.000020  -0.000012   0.000000  -0.000000   0.000000  -0.000000
    21  H    0.000013   0.000002   0.000000  -0.000000  -0.000000  -0.000000
    22  H    0.000187   0.000017   0.000000   0.000000   0.000000  -0.000001
    23  H    0.000628  -0.000035   0.000000   0.000000   0.000000   0.000001
    24  H    0.000524   0.018098  -0.000446   0.000034   0.000121  -0.000169
    25  H    0.003170  -0.002396   0.000042   0.000009  -0.000039   0.001478
    26  H   -0.001707  -0.043045   0.342253  -0.030467   0.008273   0.001842
    27  H    0.004378   0.000109   0.000432   0.001612   0.000010  -0.000027
    28  H   -0.031709   0.007674  -0.000055   0.000005  -0.000088  -0.000086
              13         14         15         16         17         18
     1  N    0.000000  -0.000000   0.000000   0.337437   0.341248  -0.046904
     2  C   -0.000000   0.000000  -0.000000  -0.043101  -0.052830   0.375919
     3  C    0.000000  -0.000000   0.000004   0.005363  -0.003493  -0.046184
     4  C   -0.000000   0.000004  -0.000185  -0.000286  -0.000291   0.002887
     5  C   -0.000019  -0.000030   0.005210   0.000001   0.000002   0.000125
     6  O   -0.000034   0.002755  -0.036536  -0.000000   0.000000   0.000002
     7  C   -0.020053   0.001037   0.449245   0.000000   0.000000   0.000000
     8  C    0.017670  -0.021750  -0.035843  -0.000000  -0.000000  -0.000000
     9  C   -0.029708  -0.007615  -0.019516  -0.000000   0.000000   0.000000
    10  C    0.313906  -0.012579  -0.005835   0.000000   0.000000  -0.000000
    11  N   -0.039148   0.002596   0.002621  -0.000000   0.000000   0.000000
    12  N    0.005708   0.000104   0.000342   0.000000   0.000000   0.000000
    13  S   15.565094   0.285092  -0.022827   0.000000   0.000000   0.000000
    14  C    0.285092   4.976403   0.573667   0.000000   0.000000  -0.000000
    15  C   -0.022827   0.573667   4.880338  -0.000000   0.000000  -0.000000
    16  H    0.000000   0.000000  -0.000000   0.515209  -0.031451  -0.004443
    17  H    0.000000   0.000000   0.000000  -0.031451   0.518912  -0.005802
    18  H    0.000000  -0.000000  -0.000000  -0.004443  -0.005802   0.691723
    19  H   -0.000000  -0.000000   0.000000  -0.002289   0.006695  -0.051328
    20  H    0.000000  -0.000000  -0.000000  -0.000127  -0.000500   0.006726
    21  H    0.000000  -0.000000  -0.000000  -0.000012   0.005756  -0.006853
    22  H   -0.000000   0.000001  -0.000001   0.000001   0.000004   0.004980
    23  H    0.000000  -0.000000  -0.000016   0.000003   0.000016  -0.000445
    24  H   -0.000009   0.000036   0.001148   0.000000   0.000001   0.000002
    25  H   -0.000001  -0.000051   0.000187  -0.000000  -0.000001   0.000011
    26  H    0.004154  -0.000073   0.000184   0.000000   0.000000   0.000000
    27  H   -0.041891   0.354403  -0.022599  -0.000000  -0.000000   0.000000
    28  H    0.005840  -0.051285   0.347082  -0.000000   0.000000   0.000000
              19         20         21         22         23         24
     1  N   -0.021592   0.004383  -0.001777   0.000021   0.000087   0.000003
     2  C    0.357257  -0.029740  -0.038230  -0.002918  -0.003771  -0.000054
     3  C   -0.019114   0.364220   0.370692  -0.027414  -0.028027   0.001421
     4  C   -0.005583  -0.032149  -0.036147   0.359484   0.362322  -0.031052
     5  C    0.000059  -0.002357  -0.002584  -0.027949  -0.027808   0.347473
     6  O    0.000001   0.000040   0.000038   0.002339   0.002051  -0.032432
     7  C    0.000000   0.000020   0.000013   0.000187   0.000628   0.000524
     8  C    0.000000  -0.000012   0.000002   0.000017  -0.000035   0.018098
     9  C    0.000000   0.000000   0.000000   0.000000   0.000000  -0.000446
    10  C    0.000000  -0.000000  -0.000000   0.000000   0.000000   0.000034
    11  N    0.000000   0.000000  -0.000000   0.000000   0.000000   0.000121
    12  N   -0.000000  -0.000000  -0.000000  -0.000001   0.000001  -0.000169
    13  S   -0.000000   0.000000   0.000000  -0.000000   0.000000  -0.000009
    14  C   -0.000000  -0.000000  -0.000000   0.000001  -0.000000   0.000036
    15  C    0.000000  -0.000000  -0.000000  -0.000001  -0.000016   0.001148
    16  H   -0.002289  -0.000127  -0.000012   0.000001   0.000003   0.000000
    17  H    0.006695  -0.000500   0.005756   0.000004   0.000016   0.000001
    18  H   -0.051328   0.006726  -0.006853   0.004980  -0.000445   0.000002
    19  H    0.626855  -0.006237   0.005986  -0.000553   0.004491   0.000007
    20  H   -0.006237   0.616970  -0.041259   0.005929  -0.005096   0.004533
    21  H    0.005986  -0.041259   0.644895  -0.005581   0.006000  -0.000539
    22  H   -0.000553   0.005929  -0.005581   0.627183  -0.042610   0.005670
    23  H    0.004491  -0.005096   0.006000  -0.042610   0.621177  -0.006178
    24  H    0.000007   0.004533  -0.000539   0.005670  -0.006178   0.617795
    25  H    0.000006  -0.000400   0.004976  -0.005829   0.005868  -0.049280
    26  H   -0.000000   0.000000   0.000000   0.000000   0.000000  -0.000080
    27  H   -0.000000   0.000000  -0.000000  -0.000000   0.000000  -0.000000
    28  H    0.000000   0.000000   0.000000   0.000068   0.000004   0.000025
              25         26         27         28
     1  N    0.000005   0.000000   0.000000   0.000000
     2  C   -0.000072   0.000000  -0.000000  -0.000000
     3  C   -0.000826   0.000000  -0.000000   0.000002
     4  C   -0.037032   0.000000  -0.000000  -0.000010
     5  C    0.363875   0.000006   0.000000  -0.001100
     6  O   -0.023766   0.000011  -0.000038   0.003058
     7  C    0.003170  -0.001707   0.004378  -0.031709
     8  C   -0.002396  -0.043045   0.000109   0.007674
     9  C    0.000042   0.342253   0.000432  -0.000055
    10  C    0.000009  -0.030467   0.001612   0.000005
    11  N   -0.000039   0.008273   0.000010  -0.000088
    12  N    0.001478   0.001842  -0.000027  -0.000086
    13  S   -0.000001   0.004154  -0.041891   0.005840
    14  C   -0.000051  -0.000073   0.354403  -0.051285
    15  C    0.000187   0.000184  -0.022599   0.347082
    16  H   -0.000000   0.000000  -0.000000  -0.000000
    17  H   -0.000001   0.000000  -0.000000   0.000000
    18  H    0.000011   0.000000   0.000000   0.000000
    19  H    0.000006  -0.000000  -0.000000   0.000000
    20  H   -0.000400   0.000000   0.000000   0.000000
    21  H    0.004976   0.000000  -0.000000   0.000000
    22  H   -0.005829   0.000000  -0.000000   0.000068
    23  H    0.005868   0.000000   0.000000   0.000004
    24  H   -0.049280  -0.000080  -0.000000   0.000025
    25  H    0.616260   0.000003   0.000000   0.000187
    26  H    0.000003   0.565141   0.000004   0.000011
    27  H    0.000000   0.000004   0.564962  -0.011828
    28  H    0.000187   0.000011  -0.011828   0.610556
 Mulliken charges:
               1
     1  N   -0.511566
     2  C   -0.143612
     3  C   -0.156720
     4  C   -0.212354
     5  C   -0.085114
     6  O   -0.252536
     7  C    0.398084
     8  C   -0.100039
     9  C   -0.303385
    10  C    0.177624
    11  N   -0.132513
    12  N   -0.145629
    13  S   -0.043775
    14  C   -0.102715
    15  C   -0.116670
    16  H    0.223694
    17  H    0.221732
    18  H    0.079586
    19  H    0.105341
    20  H    0.115057
    21  H    0.094627
    22  H    0.106971
    23  H    0.111340
    24  H    0.123346
    25  H    0.123615
    26  H    0.153490
    27  H    0.150473
    28  H    0.121648
 Sum of Mulliken charges =  -0.00000
 Mulliken charges with hydrogens summed into heavy atoms:
               1
     1  N   -0.066140
     2  C    0.041315
     3  C    0.052963
     4  C    0.005958
     5  C    0.161847
     6  O   -0.252536
     7  C    0.398084
     8  C   -0.100039
     9  C   -0.149895
    10  C    0.177624
    11  N   -0.132513
    12  N   -0.145629
    13  S   -0.043775
    14  C    0.047759
    15  C    0.004978
 Electronic spatial extent (au):  <R**2>=           5812.4610
 Charge=             -0.0000 electrons
 Dipole moment (field-independent basis, Debye):
    X=              2.5393    Y=              3.5243    Z=             -0.1566  Tot=              4.3466
 Quadrupole moment (field-independent basis, Debye-Ang):
   XX=            -88.7321   YY=            -95.8585   ZZ=            -97.1181
   XY=              0.7319   XZ=             -5.2930   YZ=             -6.0791
 Traceless Quadrupole moment (field-independent basis, Debye-Ang):
   XX=              5.1708   YY=             -1.9556   ZZ=             -3.2152
   XY=              0.7319   XZ=             -5.2930   YZ=             -6.0791
 Octapole moment (field-independent basis, Debye-Ang**2):
  XXX=            106.2802  YYY=             24.5798  ZZZ=             -5.3329  XYY=            -16.5687
  XXY=             61.3365  XXZ=            -26.6468  XZZ=             29.7938  YZZ=              1.4076
  YYZ=              4.5117  XYZ=             18.6703
 Hexadecapole moment (field-independent basis, Debye-Ang**3):
 XXXX=          -6214.0524 YYYY=           -684.4267 ZZZZ=           -271.4056 XXXY=            275.7899
 XXXZ=           -173.3729 YYYX=            -39.9770 YYYZ=            -35.8705 ZZZX=             -7.6047
 ZZZY=              0.4992 XXYY=          -1298.8616 XXZZ=          -1145.5910 YYZZ=           -163.7665
 XXYZ=             -8.2762 YYXZ=            -12.4300 ZZXY=            -12.0818
 N-N= 1.044819121598D+03 E-N=-4.496845392121D+03  KE= 1.020963353965D+03
 PrsmSu:  requested number of processors reduced to:  13 ShMem   1 Linda.
 Calling FoFJK, ICntrl=      2127 FMM=F ISym2X=0 I1Cent= 0 IOpClX= 0 NMat=1 NMatS=1 NMatT=0.
 ***** Axes restored to original set *****
 -------------------------------------------------------------------
 Center     Atomic                   Forces (Hartrees/Bohr)
 Number     Number              X              Y              Z
 -------------------------------------------------------------------
      1        7          -0.010508385    0.005497370   -0.000282686
      2        6          -0.007042518   -0.006825877   -0.000549526
      3        6           0.005574573    0.003693984    0.001407632
      4        6           0.004592097   -0.001653737   -0.002633581
      5        6          -0.008372559    0.005915918    0.014033651
      6        8           0.004420977   -0.031627796   -0.024037620
      7        6           0.024023859   -0.002089258    0.070226288
      8        6          -0.008759125    0.006500291   -0.051278079
      9        6          -0.006576987    0.086655144    0.007304980
     10        6           0.055225373   -0.048794202   -0.005292241
     11        7          -0.033858600   -0.024667064    0.016091405
     12        7          -0.067980873   -0.038420220    0.001112021
     13       16           0.015134350   -0.013706208   -0.022374183
     14        6           0.006717106   -0.000579456   -0.008422010
     15        6          -0.019354225    0.030358588    0.023498120
     16        1          -0.000235942   -0.001453547   -0.003164653
     17        1           0.001533541    0.002582083    0.001048657
     18        1           0.010895666   -0.001379309    0.001778200
     19        1          -0.000165019    0.000721038   -0.000146981
     20        1          -0.002613279   -0.000476406    0.001768936
     21        1          -0.001556246   -0.000171288    0.000037274
     22        1           0.000312015   -0.001525932   -0.002475174
     23        1          -0.000379363   -0.000073145   -0.002185172
     24        1           0.001464237   -0.001034386   -0.006130094
     25        1          -0.000932522    0.000956558   -0.004056182
     26        1           0.037232863    0.028604544    0.009283226
     27        1           0.000894450    0.000084771   -0.009447354
     28        1           0.000314537    0.002907544   -0.005114853
 -------------------------------------------------------------------
 Cartesian Forces:  Max     0.086655144 RMS     0.021039249

 GradGradGradGradGradGradGradGradGradGradGradGradGradGradGradGradGradGrad
 Berny optimization.
 FormGI is forming the generalized inverse of G from B-inverse, IUseBI=4.
 Internal  Forces:  Max     0.077931149 RMS     0.014031712
 Search for a local minimum.
 Step number   1 out of a maximum of  155
 All quantities printed in internal units (Hartrees-Bohrs-Radians)
 Mixed Optimization -- RFO/linear search
 Second derivative matrix not updated -- first step.
 ITU=  0
     Eigenvalues ---    0.00322   0.00390   0.00414   0.00921   0.01377
     Eigenvalues ---    0.01413   0.01898   0.01913   0.02086   0.02098
     Eigenvalues ---    0.02293   0.02461   0.03502   0.03645   0.03657
     Eigenvalues ---    0.04510   0.04529   0.04836   0.04890   0.05303
     Eigenvalues ---    0.05509   0.05791   0.05906   0.07110   0.08055
     Eigenvalues ---    0.08218   0.08303   0.08767   0.09092   0.10074
     Eigenvalues ---    0.11154   0.11996   0.12113   0.12576   0.13644
     Eigenvalues ---    0.15985   0.15999   0.16000   0.16000   0.19073
     Eigenvalues ---    0.21821   0.21911   0.21925   0.21987   0.22079
     Eigenvalues ---    0.22347   0.23075   0.24942   0.25000   0.29049
     Eigenvalues ---    0.29095   0.29568   0.29742   0.29968   0.30982
     Eigenvalues ---    0.33254   0.33868   0.33924   0.33964   0.33981
     Eigenvalues ---    0.34138   0.34157   0.34203   0.34231   0.34399
     Eigenvalues ---    0.34456   0.35782   0.37178   0.40494   0.41889
     Eigenvalues ---    0.44419   0.44451   0.46010   0.48501   0.49881
     Eigenvalues ---    0.51228   0.55792   0.70116
 RFO step:  Lambda=-8.76251490D-02 EMin= 3.21726166D-03
 Linear search not attempted -- first point.
 Maximum step size (   0.300) exceeded in Quadratic search.
    -- Step size scaled by   0.770
 Iteration  1 RMS(Cart)=  0.07403791 RMS(Int)=  0.00304217
 Iteration  2 RMS(Cart)=  0.00386239 RMS(Int)=  0.00045730
 Iteration  3 RMS(Cart)=  0.00001330 RMS(Int)=  0.00045718
 Iteration  4 RMS(Cart)=  0.00000001 RMS(Int)=  0.00045718
 Variable       Old X    -DE/DX   Delta X   Delta X   Delta X     New X
                                 (Linear)    (Quad)   (Total)
    R1        2.75578   0.00926   0.00000   0.01554   0.01554   2.77132
    R2        1.92619  -0.00320   0.00000  -0.00463  -0.00463   1.92157
    R3        1.92657  -0.00303   0.00000  -0.00439  -0.00439   1.92217
    R4        2.88482   0.00043   0.00000   0.00086   0.00086   2.88568
    R5        2.06990   0.00567   0.00000   0.01017   0.01017   2.08007
    R6        2.06942   0.00060   0.00000   0.00108   0.00108   2.07050
    R7        2.88833   0.00420   0.00000   0.00845   0.00845   2.89678
    R8        2.07363  -0.00070   0.00000  -0.00127  -0.00127   2.07236
    R9        2.07390   0.00069   0.00000   0.00124   0.00124   2.07515
   R10        2.89805  -0.00524   0.00000  -0.01066  -0.01066   2.88739
   R11        2.07554  -0.00092   0.00000  -0.00167  -0.00167   2.07387
   R12        2.07459  -0.00050   0.00000  -0.00091  -0.00091   2.07368
   R13        2.69064   0.00756   0.00000   0.01150   0.01150   2.70214
   R14        2.06663   0.00347   0.00000   0.00619   0.00619   2.07282
   R15        2.07097  -0.00012   0.00000  -0.00021  -0.00021   2.07077
   R16        2.61408  -0.02743   0.00000  -0.03690  -0.03690   2.57718
   R17        2.57647   0.04657   0.00000   0.05891   0.05883   2.63530
   R18        2.76634  -0.01544   0.00000  -0.02301  -0.02314   2.74321
   R19        2.81931   0.03895   0.00000   0.06974   0.07045   2.88975
   R20        2.65844   0.04213   0.00000   0.05224   0.05225   2.71069
   R21        2.53921   0.07793   0.00000   0.09815   0.09809   2.63730
   R22        2.08607  -0.00355   0.00000  -0.00652  -0.00652   2.07955
   R23        2.61609   0.05965   0.00000   0.08479   0.08452   2.70061
   R24        3.32653   0.00095   0.00000  -0.00168  -0.00155   3.32497
   R25        2.40331   0.00711   0.00000   0.00232   0.00188   2.40519
   R26        3.29509   0.00236   0.00000   0.00650   0.00656   3.30164
   R27        2.52820   0.02670   0.00000   0.03348   0.03344   2.56163
   R28        2.06567  -0.00400   0.00000  -0.00714  -0.00714   2.05853
   R29        2.07066  -0.00553   0.00000  -0.00992  -0.00992   2.06074
    A1        1.91125   0.00235   0.00000   0.00714   0.00714   1.91839
    A2        1.91696  -0.00134   0.00000  -0.00433  -0.00433   1.91263
    A3        1.85344  -0.00069   0.00000  -0.00250  -0.00249   1.85095
    A4        1.91729   0.00178   0.00000   0.00589   0.00586   1.92315
    A5        1.91031   0.00702   0.00000   0.03213   0.03221   1.94252
    A6        1.90280  -0.00273   0.00000  -0.01040  -0.01036   1.89244
    A7        1.92741  -0.00515   0.00000  -0.01672  -0.01693   1.91048
    A8        1.92298  -0.00033   0.00000  -0.00543  -0.00550   1.91748
    A9        1.88255  -0.00056   0.00000  -0.00536  -0.00546   1.87709
   A10        1.95340   0.00349   0.00000   0.00949   0.00949   1.96290
   A11        1.91332  -0.00279   0.00000  -0.00963  -0.00968   1.90364
   A12        1.91493  -0.00154   0.00000  -0.00553  -0.00556   1.90937
   A13        1.90520   0.00115   0.00000   0.00708   0.00711   1.91231
   A14        1.90606  -0.00055   0.00000   0.00024   0.00026   1.90632
   A15        1.86897   0.00011   0.00000  -0.00207  -0.00213   1.86684
   A16        1.93183   0.00464   0.00000   0.01121   0.01123   1.94306
   A17        1.92348  -0.00034   0.00000   0.00117   0.00121   1.92469
   A18        1.92456  -0.00129   0.00000  -0.00234  -0.00232   1.92224
   A19        1.92415  -0.00304   0.00000  -0.01029  -0.01031   1.91385
   A20        1.91455  -0.00198   0.00000  -0.00631  -0.00632   1.90822
   A21        1.84341   0.00179   0.00000   0.00607   0.00603   1.84944
   A22        1.89558  -0.00039   0.00000   0.00017   0.00016   1.89575
   A23        1.91048   0.00419   0.00000   0.01405   0.01403   1.92451
   A24        1.90798   0.00277   0.00000   0.01184   0.01179   1.91977
   A25        1.93665  -0.00352   0.00000  -0.01492  -0.01492   1.92173
   A26        1.89267   0.00038   0.00000   0.00248   0.00243   1.89510
   A27        1.92007  -0.00335   0.00000  -0.01321  -0.01333   1.90674
   A28        2.04666  -0.00396   0.00000  -0.00903  -0.00903   2.03762
   A29        2.18535  -0.00933   0.00000  -0.01730  -0.01703   2.16832
   A30        1.91895   0.00533   0.00000   0.01500   0.01530   1.93426
   A31        2.17655   0.00439   0.00000   0.00471   0.00352   2.18007
   A32        2.03837  -0.01680   0.00000  -0.04895  -0.04931   1.98906
   A33        2.04470  -0.01872   0.00000  -0.03881  -0.03807   2.00663
   A34        1.75149   0.04119   0.00000   0.10742   0.10825   1.85974
   A35        1.73623  -0.03370   0.00000  -0.08203  -0.08094   1.65529
   A36        1.77650   0.01641   0.00000   0.07820   0.07956   1.85606
   A37        1.99896   0.02285   0.00000   0.10012   0.10208   2.10104
   A38        1.86714  -0.00098   0.00000   0.02272   0.02266   1.88979
   A39        2.04003   0.00924   0.00000   0.01279   0.01128   2.05132
   A40        2.11428  -0.00234   0.00000  -0.00693  -0.00672   2.10755
   A41        1.87730   0.02136   0.00000   0.05381   0.05317   1.93047
   A42        1.91612  -0.02504   0.00000  -0.07773  -0.07800   1.83811
   A43        1.79082  -0.01234   0.00000  -0.04711  -0.04786   1.74296
   A44        2.29430   0.01324   0.00000   0.02910   0.02815   2.32245
   A45        1.97686  -0.01547   0.00000  -0.04197  -0.04181   1.93506
   A46        2.01191   0.00236   0.00000   0.01341   0.01358   2.02548
   A47        2.30819  -0.00238   0.00000  -0.00618  -0.00725   2.30094
   A48        1.95520   0.00092   0.00000   0.00178   0.00215   1.95735
   A49        2.01856   0.00117   0.00000   0.00306   0.00340   2.02195
    D1        3.10846   0.00015   0.00000   0.00512   0.00521   3.11368
    D2        0.98946   0.00090   0.00000   0.00156   0.00145   0.99091
    D3       -1.06593  -0.00087   0.00000  -0.00443  -0.00441  -1.07035
    D4        1.07950   0.00039   0.00000   0.00650   0.00660   1.08610
    D5       -1.03951   0.00114   0.00000   0.00294   0.00283  -1.03667
    D6       -3.09490  -0.00063   0.00000  -0.00305  -0.00303  -3.09793
    D7        3.13108  -0.00258   0.00000  -0.01314  -0.01311   3.11797
    D8        1.01449  -0.00442   0.00000  -0.02176  -0.02168   0.99280
    D9       -1.03331  -0.00202   0.00000  -0.01034  -0.01032  -1.04363
   D10       -1.04338   0.00402   0.00000   0.01996   0.01986  -1.02352
   D11        3.12321   0.00218   0.00000   0.01135   0.01129   3.13450
   D12        1.07542   0.00458   0.00000   0.02276   0.02265   1.09807
   D13        1.03451  -0.00011   0.00000  -0.00058  -0.00054   1.03397
   D14       -1.08209  -0.00196   0.00000  -0.00919  -0.00911  -1.09120
   D15       -3.12988   0.00045   0.00000   0.00223   0.00225  -3.12763
   D16       -3.12707  -0.00012   0.00000  -0.00108  -0.00109  -3.12815
   D17        1.02302   0.00082   0.00000   0.00357   0.00355   1.02657
   D18       -1.00536  -0.00040   0.00000  -0.00313  -0.00314  -1.00850
   D19       -1.00579  -0.00058   0.00000  -0.00216  -0.00213  -1.00792
   D20       -3.13888   0.00037   0.00000   0.00250   0.00251  -3.13638
   D21        1.11593  -0.00085   0.00000  -0.00421  -0.00419   1.11173
   D22        1.03221  -0.00010   0.00000  -0.00050  -0.00050   1.03171
   D23       -1.10089   0.00084   0.00000   0.00415   0.00414  -1.09675
   D24       -3.12926  -0.00038   0.00000  -0.00256  -0.00256  -3.13182
   D25       -3.11328  -0.00147   0.00000  -0.00726  -0.00727  -3.12055
   D26        1.05302   0.00053   0.00000   0.00233   0.00236   1.05538
   D27       -1.05121   0.00034   0.00000   0.00257   0.00256  -1.04865
   D28       -0.98057  -0.00083   0.00000  -0.00521  -0.00524  -0.98582
   D29       -3.09746   0.00117   0.00000   0.00438   0.00438  -3.09307
   D30        1.08150   0.00098   0.00000   0.00462   0.00459   1.08609
   D31        1.04231  -0.00157   0.00000  -0.00748  -0.00747   1.03484
   D32       -1.07457   0.00043   0.00000   0.00211   0.00215  -1.07242
   D33        3.10438   0.00024   0.00000   0.00235   0.00236   3.10674
   D34       -3.05135   0.00097   0.00000   0.00840   0.00841  -3.04294
   D35       -0.95062   0.00372   0.00000   0.01669   0.01665  -0.93397
   D36        1.16009  -0.00234   0.00000  -0.00727  -0.00723   1.15286
   D37        0.71574  -0.01147   0.00000  -0.07909  -0.07905   0.63669
   D38       -2.49656  -0.00533   0.00000  -0.04217  -0.04221  -2.53876
   D39        2.39928  -0.00349   0.00000   0.05249   0.05181   2.45109
   D40       -1.80648   0.02415   0.00000   0.12876   0.12871  -1.67777
   D41       -0.66144  -0.01042   0.00000   0.01006   0.00953  -0.65191
   D42        1.41598   0.01722   0.00000   0.08634   0.08644   1.50242
   D43       -3.11991  -0.01645   0.00000  -0.09172  -0.09217   3.07111
   D44        0.07874  -0.00990   0.00000  -0.06110  -0.06151   0.01723
   D45       -0.04859  -0.01103   0.00000  -0.05612  -0.05603  -0.10462
   D46       -3.13313  -0.00448   0.00000  -0.02550  -0.02537   3.12468
   D47        1.58851  -0.00042   0.00000   0.02271   0.02138   1.60989
   D48       -2.64041   0.01789   0.00000   0.12604   0.12480  -2.51562
   D49       -0.64081   0.00189   0.00000   0.01909   0.01865  -0.62215
   D50        1.41346   0.02020   0.00000   0.12242   0.12207   1.53553
   D51       -1.80720   0.00570   0.00000   0.00821   0.00790  -1.79930
   D52        0.41793   0.00484   0.00000   0.00559   0.00442   0.42236
   D53        0.65703  -0.01470   0.00000  -0.05739  -0.05710   0.59994
   D54       -1.77863  -0.01981   0.00000  -0.08620  -0.08603  -1.86466
   D55       -1.22248  -0.02289   0.00000  -0.13539  -0.13496  -1.35744
   D56        2.62504  -0.02800   0.00000  -0.16420  -0.16389   2.46115
   D57       -0.43191  -0.00200   0.00000   0.01331   0.01531  -0.41660
   D58        1.96732   0.00909   0.00000   0.05410   0.05478   2.02211
   D59        0.93505   0.00736   0.00000   0.01063   0.00968   0.94473
   D60       -1.39564  -0.00012   0.00000  -0.03663  -0.03670  -1.43234
   D61       -0.02831   0.00520   0.00000  -0.00264  -0.00152  -0.02983
   D62       -0.09203   0.01397   0.00000   0.06345   0.06286  -0.02917
   D63        3.06694   0.00481   0.00000   0.02274   0.02281   3.08975
   D64        0.06847  -0.00299   0.00000  -0.01280  -0.01303   0.05544
   D65       -3.13180  -0.00973   0.00000  -0.04434  -0.04463   3.10676
   D66       -3.09077   0.00619   0.00000   0.02813   0.02820  -3.06257
   D67       -0.00785  -0.00056   0.00000  -0.00341  -0.00340  -0.01125
         Item               Value     Threshold  Converged?
 Maximum Force            0.077931     0.000450     NO 
 RMS     Force            0.014032     0.000300     NO 
 Maximum Displacement     0.284652     0.001800     NO 
 RMS     Displacement     0.074732     0.001200     NO 
 Predicted change in Energy=-5.204671D-02
 GradGradGradGradGradGradGradGradGradGradGradGradGradGradGradGradGradGrad

                          Input orientation:                          
 ---------------------------------------------------------------------
 Center     Atomic      Atomic             Coordinates (Angstroms)
 Number     Number       Type             X           Y           Z
 ---------------------------------------------------------------------
      1          7           0        0.923391    0.002226   -0.120379
      2          6           0        2.388808   -0.044185   -0.087583
      3          6           0        2.928538   -0.587978   -1.408499
      4          6           0        4.460533   -0.627798   -1.443303
      5          6           0        4.972427   -1.157643   -2.781894
      6          8           0        6.401215   -1.196863   -2.741078
      7          6           0        7.039282   -1.533963   -3.898293
      8          6           0        6.610937   -1.153845   -5.169815
      9          6           0        7.746599   -0.766613   -6.117838
     10          6           0        7.891996   -2.045954   -6.656207
     11          7           0        6.601718   -2.657784   -6.712584
     12          7           0        5.818357   -2.130786   -5.859023
     13         16           0        9.307697   -2.974140   -6.176518
     14          6           0        9.139835   -2.899612   -4.439043
     15          6           0        8.241660   -2.298526   -3.620805
     16          1           0        0.567515    0.339868    0.770313
     17          1           0        0.554836   -0.939253   -0.231832
     18          1           0        2.750507   -0.670627    0.742080
     19          1           0        2.763919    0.971897    0.077771
     20          1           0        2.558584    0.036158   -2.230825
     21          1           0        2.536687   -1.600457   -1.573437
     22          1           0        4.843330   -1.254272   -0.627590
     23          1           0        4.868556    0.376006   -1.269922
     24          1           0        4.636221   -0.509713   -3.600620
     25          1           0        4.599860   -2.174428   -2.949595
     26          1           0        7.364529    0.058135   -6.738168
     27          1           0        9.920965   -3.479108   -3.948475
     28          1           0        8.385629   -2.465043   -2.552757
 ---------------------------------------------------------------------
                    Distance matrix (angstroms):
                    1          2          3          4          5
     1  N    0.000000
     2  C    1.466519   0.000000
     3  C    2.455241   1.527035   0.000000
     4  C    3.828634   2.543742   1.532908   0.000000
     5  C    4.982334   3.895405   2.527492   1.527939   0.000000
     6  O    6.189704   4.946626   3.769084   2.402977   1.429909
     7  C    7.350962   6.194179   4.898181   3.673970   2.379045
     8  C    7.692951   6.699761   5.294126   4.334496   2.896014
     9  C    9.116842   8.098876   6.739696   5.715661   4.356313
    10  C    9.771057   8.799941   7.368857   6.400037   4.931864
    11  N    9.098145   8.274669   6.775668   6.039109   4.511689
    12  N    7.838525   7.030307   5.526163   4.858111   3.336364
    13  S   10.762535   9.671131   8.313931   7.169633   5.798077
    14  C    9.725301   8.524378   7.287528   6.002621   4.811225
    15  C    8.432290   7.198721   6.004127   4.672233   3.562762
    16  H    1.016848   2.049534   3.344032   4.581710   5.853542
    17  H    1.017171   2.045828   2.672527   4.101114   5.105450
    18  H    2.129535   1.100726   2.159518   2.775234   4.194342
    19  H    2.089753   1.095660   2.160857   2.784096   4.194059
    20  H    2.670017   2.151456   1.096646   2.162971   2.748723
    21  H    2.698647   2.156760   1.098120   2.159673   2.754865
    22  H    4.147526   2.789372   2.172601   1.097447   2.160331
    23  H    4.126195   2.779142   2.170745   1.097345   2.156137
    24  H    5.114613   4.196309   2.779874   2.167678   1.096887
    25  H    5.124326   4.197356   2.772205   2.163421   1.095802
    26  H    9.235070   8.306536   6.964255   6.077770   4.780416
    27  H   10.379323   9.134471   7.981488   6.649975   5.589109
    28  H    8.227326   6.920946   5.883243   4.473559   3.662206
                    6          7          8          9         10
     6  O    0.000000
     7  C    1.363787   0.000000
     8  C    2.438155   1.394538   0.000000
     9  C    3.660285   2.452652   1.529191   0.000000
    10  C    4.274532   2.931782   2.155535   1.395598   0.000000
    11  N    4.236432   3.061808   2.154543   2.289323   1.429101
    12  N    3.306587   2.385648   1.434436   2.376146   2.223213
    13  S    4.838243   3.522800   3.405795   2.704375   1.759501
    14  C    3.644514   2.563148   3.158647   3.051089   2.683589
    15  C    2.318366   1.451643   2.523684   2.971029   3.065897
    16  H    6.980219   8.197005   8.604606  10.010503  10.700157
    17  H    6.367325   7.472929   7.817038   9.294963   9.814851
    18  H    5.073163   6.377461   7.077212   8.486968   9.113786
    19  H    5.087175   6.353514   6.845106   8.138494   8.986159
    20  H    4.067741   5.032136   5.145419   6.532137   7.236331
    21  H    4.057198   5.067815   5.452790   6.963481   7.396780
    22  H    2.626239   3.949422   4.875073   6.229736   6.801864
    23  H    2.643343   3.907476   4.537125   5.752479   6.634693
    24  H    2.079951   2.629145   2.603226   4.009593   4.721940
    25  H    2.060095   2.694625   3.164712   4.682059   4.959197
    26  H    4.298805   3.271918   2.120502   1.100453   2.170744
    27  H    4.365214   3.477097   4.225494   4.097759   3.674570
    28  H    2.362550   2.118969   3.423122   4.000353   4.154228
                   11         12         13         14         15
    11  N    0.000000
    12  N    1.272772   0.000000
    13  S    2.776647   3.603824   0.000000
    14  C    3.416066   3.693190   1.747155   0.000000
    15  C    3.518177   3.303052   2.850361   1.355557   0.000000
    16  H   10.069324   8.810423  11.646110  10.541171   9.226892
    17  H    9.028748   7.796774  10.774629   9.759398   8.509996
    18  H    8.622798   7.424172   9.806626   8.522671   7.199832
    19  H    8.603035   7.362184   9.874632   8.720234   7.374332
    20  H    6.609874   5.337189   8.377405   7.537098   6.299218
    21  H    6.637263   5.423731   8.301924   7.314442   6.101290
    22  H    6.487599   5.393222   7.326604   5.974469   4.647414
    23  H    6.467636   5.314694   7.416477   6.246345   4.904855
    24  H    4.261656   3.020878   5.876337   5.166925   4.024854
    25  H    4.289657   3.154586   5.763358   4.832775   3.705216
    26  H    2.821126   2.820447   3.645003   4.145594   4.005142
    27  H    4.396848   4.722241   2.365431   1.089329   2.078751
    28  H    4.530303   4.199287   3.773729   2.077439   1.090496
                   16         17         18         19         20
    16  H    0.000000
    17  H    1.624994   0.000000
    18  H    2.405691   2.416948   0.000000
    19  H    2.388151   2.937413   1.771827   0.000000
    20  H    3.614336   2.993727   3.061788   2.499477   0.000000
    21  H    3.624315   2.482907   2.504381   3.065147   1.763845
    22  H    4.772631   4.318222   2.568374   3.126869   3.075002
    23  H    4.760547   4.627711   3.103179   2.569213   2.524837
    24  H    6.031684   5.309514   4.737178   4.385344   2.547722
    25  H    6.034833   5.027337   4.394314   4.736558   3.093563
    26  H   10.131933   9.470961   8.818980   8.273910   6.588910
    27  H   11.150720  10.391760   9.016892   9.340525   8.337390
    28  H    8.946129   8.308794   6.769822   7.094777   6.349339
                   21         22         23         24         25
    21  H    0.000000
    22  H    2.516958   0.000000
    23  H    3.071830   1.752436   0.000000
    24  H    3.115644   3.071835   2.504123   0.000000
    25  H    2.545572   2.509516   3.065650   1.787858   0.000000
    26  H    7.261779   6.739290   6.019356   4.196466   5.194326
    27  H    7.981084   6.462240   6.896622   6.071806   5.569031
    28  H    5.993055   4.209527   4.699684   4.356535   3.817588
                   26         27         28
    26  H    0.000000
    27  H    5.179753   0.000000
    28  H    4.992668   2.309461   0.000000
 Stoichiometry    C10H13N3OS
 Framework group  C1[X(C10H13N3OS)]
 Deg. of freedom    78
 Full point group                 C1      NOp   1
 Largest Abelian subgroup         C1      NOp   1
 Largest concise Abelian subgroup C1      NOp   1
[...]
 0039496,0.00054104,0.00153858,0.00248486,-0.00127703,-0.00556939,0.010
 34498,0.01468374,0.00671860,0.04929346,0.07644939,0.08702086,0.0001765
 2,-0.00051882,0.00040526,0.00107426,0.00061943,-0.00173469,-0.00750541
 ,0.02736666,-0.01983743,-0.05427624,0.03328093,-0.02811288,0.00026044,
 -0.00802355,0.00756421,0.00156263,-0.00048974,-0.00067211,-0.00009057,
 -0.00021463,0.00034924,-0.00040408,0.00012910,-0.00002144,-0.00002251,
 -0.00000695,-0.00002462,0.00001260,0.00002514,0.00003826,-0.00002867,0
 .00000483,-0.00003284,0.00009176,-0.00001306,-0.00000686,0.00000611,-0
 .00002952,-0.00002191,-0.00003065,0.00003603,0.00004915,0.00012160,0.0
 0000962,0.00000050,0.00005655,-0.00010552,0.00011767,-0.00006489,0.000
 06494,-0.00013451,-0.00002205,-0.00048380,0.00098380,-0.00001912,-0.00
 006439,0.00020912,-0.00613655,0.00120550,0.00060249,0.00145894,-0.0005
 7734,-0.00014807,0.06095968,-0.00021653,0.00038307,-0.00046666,-0.0004
 2199,-0.00035813,0.00098571,0.00185194,-0.00625381,0.00393117,0.033422
 07,-0.20692479,0.11813175,-0.00111690,0.00637875,-0.00550802,-0.000818
 79,0.00037986,0.00036854,-0.00020935,0.00013841,-0.00018318,0.00021957
 ,0.00000501,-0.00011667,-0.00001241,-0.00003567,-0.00003177,-0.0000171
 2,-0.00002688,-0.00000397,0.00003134,-0.00001144,-0.00001861,-0.000047
 05,0.00005508,0.00004721,0.00000732,-0.00000781,-0.00001248,-0.0000027
 0,0.00000041,-0.00002842,-0.00005875,-0.00001077,0.00007434,0.00006683
 ,-0.00002677,-0.00006123,0.00000446,-0.00002891,0.00010219,0.00027366,
 0.00038463,-0.00082334,0.00005760,0.00000479,0.00003955,0.00152025,0.0
 0135432,-0.00028317,0.00025132,0.00089355,-0.00032443,-0.04003088,0.22
 172776,0.00008292,-0.00003912,-0.00011558,0.00033748,-0.00085304,0.000
 65844,-0.00068398,-0.00105904,0.00056690,-0.02647301,0.11613644,-0.137
 01654,-0.00541655,0.02732311,-0.02342034,-0.00134208,-0.00040239,0.002
 55669,-0.00001150,0.00024147,-0.00031978,0.00071016,-0.00048863,-0.000
 01960,-0.00007208,0.00004310,0.00016083,-0.00006864,-0.00016195,-0.000
 15353,0.00019417,-0.00010339,0.00001166,-0.00017915,0.00024146,0.00005
 014,-0.00000042,0.00004459,-0.00006040,0.00001866,-0.00000645,0.000051
 60,-0.00000892,-0.00003261,-0.00012050,-0.00002384,-0.00002011,0.00003
 042,-0.00003250,0.00003414,-0.00005200,0.00004239,0.00018387,0.0003787
 1,0.00001529,-0.00003871,-0.00001524,0.00048633,-0.00034577,0.00043228
 ,-0.00021821,0.00011180,0.00001064,0.02876314,-0.12958197,0.15257104,0
 .00029548,0.00045515,0.00017655,0.00084741,-0.00143411,-0.00146612,-0.
 01975761,-0.02574280,-0.01053578,-0.11799918,-0.10550743,-0.04617124,0
 .00402960,0.00899073,0.00484681,0.00189683,-0.00010345,-0.00091329,-0.
 00000206,-0.00013595,0.00043047,-0.00008529,0.00008215,-0.00012002,-0.
 00002710,-0.00001955,0.00000053,-0.00001564,-0.00001650,-0.00000931,0.
 00003535,-0.00004676,-0.00001962,0.00001445,0.00017825,0.00015818,-0.0
 0002219,-0.00001267,-0.00002204,-0.00001066,0.00001417,0.00006399,0.00
 008516,-0.00006760,-0.00007105,0.00002571,0.00004135,0.00008149,0.0004
 0719,0.00008742,-0.00021327,0.00001399,0.00011330,0.00014535,0.0000730
 1,0.00083524,0.00095043,0.00149515,0.00026954,-0.00017608,-0.00610426,
 0.00207642,0.00040153,0.00287599,0.00447646,0.00213375,0.13211271,0.00
 002750,0.00031555,0.00028287,0.00006862,0.00025276,0.00013368,0.004539
 45,0.00643988,0.00287330,-0.10504336,-0.20283623,-0.06432267,-0.004032
 24,-0.00676853,-0.00323576,0.00003013,0.00065995,0.00078369,0.00030588
 ,0.00000185,-0.00031440,0.00012497,-0.00010166,0.00010046,0.00003690,0
 .00001824,-0.00001046,0.00003429,0.00002620,-0.00000975,-0.00000597,0.
 00004367,0.00007442,-0.00006646,-0.00011284,-0.00011196,0.00000571,0.0
 0002893,0.00001955,0.00004904,-0.00002306,-0.00001533,-0.00004425,0.00
 006945,-0.00009816,-0.00010490,-0.00004906,0.00002493,0.00006620,-0.00
 009780,-0.00004110,-0.00006402,-0.00000351,-0.00007938,-0.00026673,0.0
 0023164,0.00027292,-0.00057286,0.00087407,0.00012096,0.00219027,0.0010
 5119,-0.00023517,-0.01354359,-0.01974553,-0.00866556,0.11507103,0.2174
 0137,0.00011165,0.00003767,-0.00001629,0.00035534,0.00083504,0.0005523
 4,0.00003831,0.00112411,-0.00012330,-0.04379040,-0.06294319,-0.0770825
 3,-0.01831715,-0.02813870,-0.01411690,-0.00084964,0.00158853,0.0023202
 1,0.00014158,0.00009155,-0.00021101,0.00001078,-0.00005711,0.00011916,
 0.00007905,0.00002961,-0.00006740,0.00011465,0.00006667,0.00002840,-0.
 00000339,0.00012874,0.00010482,-0.00010837,-0.00027730,-0.00042286,0.0
 0004436,0.00003747,0.00001337,0.00005406,-0.00002963,-0.00001853,-0.00
 003721,0.00002510,-0.00006083,0.00000277,-0.00001399,-0.00000214,-0.00
 001452,-0.00004532,-0.00010412,0.00003010,0.00003036,0.00002164,0.0000
 1569,-0.00018012,0.00026358,-0.00019180,-0.00031094,-0.00001648,0.0004
 4531,-0.00023136,0.00048841,0.01055539,0.01495476,0.00671500,0.0490070
 3,0.07369132,0.08513902,-0.00012615,0.00010932,-0.00003867,0.00003705,
 -0.00008969,0.00004815,0.00117695,-0.00079036,0.00014768,0.00184585,-0
 .00790124,0.00513664,-0.04892085,0.00695432,-0.00896100,-0.02574438,0.
 03168970,-0.01749334,0.00389010,0.00290337,-0.00808623,0.00155009,-0.0
 0070289,0.00066975,-0.00010984,0.00001961,0.00038075,-0.00038777,-0.00
 038774,-0.00034437,0.00051372,-0.00033143,-0.00054269,-0.00009983,0.00
 057051,0.00102314,-0.00017354,0.00028134,0.00050463,0.00046635,-0.0005
 6278,-0.00081447,-0.00175495,-0.00014057,0.00032766,-0.00000626,-0.000
 02317,0.00001183,0.00000922,-0.00001898,0.00002032,-0.00008225,0.00012
 313,-0.00009737,0.00000312,0.00000108,-0.00002627,-0.00013369,0.000434
 90,-0.00005121,-0.00001532,-0.00003324,0.00002980,-0.00021084,0.001140
 08,0.00210122,0.00024483,0.00059317,-0.00042001,0.06365643,0.00000815,
 -0.00003660,0.00008496,-0.00019405,0.00026538,-0.00019700,-0.00057462,
 0.00038679,0.00015185,-0.00103286,0.00813613,-0.00644968,0.01477270,-0
 .20365025,0.12191137,0.01066127,-0.00515210,0.00189812,-0.00212088,0.0
 0019788,0.00453875,-0.00208646,0.00053881,-0.00108443,-0.00019246,-0.0
 0017439,0.00008209,-0.00004533,-0.00009304,0.00003260,-0.00008923,-0.0
 0010612,-0.00087673,0.00117100,-0.00009213,0.00029624,-0.00019104,-0.0
 0009503,0.00026287,-0.00002454,0.00006381,-0.00007616,0.00055286,-0.00
 002737,0.00004452,-0.00001814,0.00001033,-0.00000271,-0.00000569,-0.00
 000943,0.00000932,0.00008503,-0.00011182,-0.00004239,-0.00001528,-0.00
 001746,-0.00000997,-0.00022127,0.00013057,0.00020165,0.00011090,-0.000
 06289,0.00004943,0.00095059,0.00076889,-0.00242706,-0.00028462,0.00097
 120,0.00057522,-0.02246073,0.21696171,0.00010053,-0.00014769,0.0000434
 0,0.00004236,-0.00022659,-0.00002846,-0.00126491,0.00077156,0.00054760
 ,-0.00153391,0.02240438,-0.01767465,-0.01324902,0.12304119,-0.14880457
 ,-0.00558056,0.00388363,-0.00203839,0.00275380,-0.00225277,0.00169201,
 -0.00102736,-0.00016322,0.00054704,0.00042668,0.00039206,-0.00077124,0
 .00039519,0.00066550,0.00084946,-0.00101835,0.00005684,0.00089872,0.00
 008055,-0.00054264,-0.00129518,0.00030095,-0.00009766,-0.00050182,-0.0
 0018136,0.00018193,0.00077310,0.00014921,-0.00050343,-0.00050606,0.000
 00288,0.00000991,-0.00000450,-0.00000636,0.00001105,-0.00002396,-0.000
 04103,-0.00011585,0.00032390,-0.00001972,0.00000217,-0.00003123,0.0008
 2273,-0.00061196,0.00029687,0.00009042,-0.00010364,0.00001310,0.001739
 60,-0.00172477,-0.00434657,-0.00071169,-0.00007444,0.00144406,0.016652
 97,-0.13604561,0.16166588,-0.00008581,0.00000859,-0.00000513,0.0001632
 4,0.00016525,0.00000548,0.00155513,0.00025070,0.00004485,0.00623129,0.
 00827992,0.00346021,-0.09863828,-0.09468849,-0.04389036,-0.04085607,-0
 .02139980,-0.00615908,0.00217697,-0.00080083,-0.00969618,0.00102481,-0
 .00125608,0.00240994,0.00089256,0.00016591,-0.00079651,0.00075594,0.00
 098387,0.00039962,-0.00113514,0.00074016,0.00105050,-0.00081352,-0.001
 88088,-0.00156636,0.00029454,0.00013610,0.00010090,0.00005548,0.000099
 21,-0.00051862,-0.00089100,0.00173420,0.00109263,-0.00000135,-0.000013
 94,0.00000890,-0.00001709,-0.00000759,0.00000867,-0.00000432,-0.000006
 78,-0.00002075,-0.00013273,-0.00008352,0.00000261,-0.00005933,0.000042
 49,-0.00001144,-0.00006852,-0.00030544,-0.00002872,0.00018210,-0.00035
 107,-0.00038957,-0.00043611,0.00057286,0.00270297,0.00416626,0.0012553
 2,0.00112250,0.12574144,0.00006758,-0.00003576,-0.00004540,0.00028358,
 0.00022233,0.00007341,-0.00050257,-0.00000864,0.00009790,-0.00260474,-
 0.00404412,-0.00155256,-0.10360430,-0.22466274,-0.07734574,0.00894139,
 0.01144328,0.00346135,0.00023070,0.00045586,0.00169337,-0.00060775,-0.
 00077884,-0.00119817,-0.00025184,0.00004534,0.00014932,-0.00006565,-0.
 00038521,-0.00004768,0.00114738,-0.00024071,-0.00032380,0.00011885,0.0
 0085518,-0.00059240,-0.00004333,0.00015944,0.00021355,0.00020928,-0.00
 025985,-0.00034882,-0.00037197,-0.00027129,-0.00002245,0.00002113,-0.0
 0000498,-0.00000108,0.00001399,0.00000773,-0.00004000,-0.00000061,-0.0
 0001948,0.00003102,-0.00006497,0.00005521,0.00016454,-0.00004605,-0.00
 002880,-0.00003530,0.00071228,0.00020553,-0.00016658,0.00041314,0.0009
 5998,-0.00012908,0.00067037,0.00141189,-0.00094443,-0.01141494,-0.0188
 2999,-0.00888595,0.10667120,0.23372644,0.00007546,0.00010160,0.0000539
 7,0.00008115,0.00018576,-0.00011929,-0.00157476,0.00001985,0.00084467,
 -0.01326486,-0.02530228,-0.01182253,-0.04734197,-0.07880645,-0.0865520
 2,-0.00103578,0.00095134,0.00075124,0.00075227,-0.00023322,0.00187951,
 -0.00094223,-0.00033591,-0.00024400,-0.00025450,-0.00027324,-0.0002032
 6,-0.00013961,-0.00001703,0.00037653,0.00034603,-0.00086380,-0.0001068
 8,0.00062420,0.00208023,-0.00066342,0.00002098,-0.00002529,-0.00010548
 ,0.00004468,-0.00005762,0.00000305,-0.00021581,-0.00019121,-0.00019713
 ,-0.00001363,-0.00001419,-0.00000430,0.00006029,-0.00001618,-0.0000231
 7,-0.00002672,-0.00000211,-0.00001877,-0.00000393,0.00019506,0.0002215
 7,0.00017287,0.00006420,0.00001901,0.00097103,0.00028257,0.00024376,-0
 .00061768,0.00052454,0.00140242,0.00203995,-0.00117623,-0.00497592,0.0
 0966670,0.01713512,0.00706061,0.05060315,0.08577508,0.09220951,-0.0000
 1687,0.00001633,0.00000688,0.00000250,-0.00000674,-0.00001914,0.000019
 23,-0.00000985,0.00003407,-0.00001475,-0.00000069,-0.00002404,0.000236
 18,-0.00020454,0.00000323,-0.00045440,-0.00004353,0.00079280,-0.000371
 60,0.00022948,-0.00086665,-0.00936937,-0.01248030,-0.00492006,-0.20518
 101,-0.15971072,0.00491379,0.00460384,0.00516252,-0.00054272,-0.000383
 24,0.00173446,0.00448546,-0.00031723,-0.00418644,0.00264656,0.00082163
 ,0.00159835,-0.00101686,0.00006791,0.00102040,-0.00025167,-0.00012038,
 0.00034168,-0.00009146,-0.00000335,-0.00000542,0.00000311,0.00000355,-
 0.00000163,-0.00000004,-0.00000199,0.00000383,-0.00000159,0.00000064,0
 .00000212,0.00000379,-0.00000585,0.00000393,-0.00000345,0.00000330,0.0
 0000291,-0.00000143,0.00000213,0.00000471,0.00000043,0.00000383,0.0000
 0524,0.00001763,-0.00001155,0.00003572,-0.00005074,-0.00000863,0.00003
 968,-0.00003385,0.21039461,0.00000979,-0.00001053,-0.00000443,-0.00000
 094,0.00000688,0.00001359,-0.00001340,0.00000234,-0.00002352,0.0000212
 6,0.00001461,0.00001943,-0.00009698,0.00000949,0.00002344,0.00031847,-
 0.00013267,-0.00009537,-0.00070354,0.00022161,-0.00036940,0.00751487,0
 .00340282,-0.00181043,-0.15326246,-0.19393427,-0.00807715,-0.01843815,
 -0.00637113,0.00564453,-0.00224866,-0.00349673,-0.00250643,0.00071272,
 0.00072166,-0.00337532,-0.00031352,-0.00097149,-0.00034512,-0.00034308
 ,-0.00004100,0.00074981,0.00031895,-0.00028919,0.00017381,0.00000250,0
 .00000329,-0.00000287,-0.00000133,0.00000070,-0.00000016,0.00000119,-0
 .00000269,0.00000031,-0.00000059,-0.00000174,-0.00000211,0.00000238,-0
 .00000083,0.00000267,-0.00000061,-0.00000099,0.00000061,-0.00000246,-0
 .00000508,-0.00000362,-0.00000351,-0.00000191,-0.00000670,0.00000839,0
 .00001490,0.00000679,0.00000992,-0.00000207,0.00000241,0.16647535,0.20
 060254,-0.00002289,0.00001356,0.00000949,0.00001281,-0.00000578,-0.000
 02400,0.00002413,0.00000112,0.00002013,0.00000653,-0.00003762,0.000007
 73,0.00010765,-0.00007270,0.00000330,-0.00024279,-0.00027570,0.0001093
 4,-0.00023958,0.00071450,0.00081499,0.00751797,0.01597451,0.00821867,0
 .00424731,-0.01028624,-0.04350313,-0.01346879,-0.01215820,-0.00041028,
 0.00141712,-0.00509854,0.00381171,0.00607087,-0.00143105,-0.00280551,-
 0.00023576,0.00131095,-0.00188154,-0.00038507,0.00165243,0.00123648,0.
 00018539,-0.00027741,-0.00047832,-0.00000317,-0.00000444,0.00000457,0.
 00000276,-0.00000219,-0.00000005,-0.00000361,0.00000162,0.00000258,-0.
 00000020,0.00000006,-0.00000051,0.00000153,-0.00000022,-0.00000113,-0.
 00000642,-0.00000317,-0.00000014,-0.00000753,0.00000460,0.00002217,0.0
 0000025,-0.00000139,-0.00000721,0.00005219,-0.00002315,-0.00005446,-0.
 00006254,0.00002671,0.00005685,-0.00512413,0.01011324,0.03467427,-0.00
 001240,0.00000629,0.00001319,0.00000167,0.00000543,-0.00002337,0.00001
 172,-0.00000326,0.00002736,-0.00002155,-0.00002440,-0.00003052,0.00031
 523,-0.00064658,-0.00016356,-0.00070481,0.00022750,0.00113424,0.001873
 07,0.00590980,-0.00001765,0.00077216,-0.00110286,0.00043497,-0.0009338
 8,0.00081602,-0.00001436,0.00114485,0.00151979,0.00059618,-0.00043719,
 -0.00116068,0.00098369,0.00084729,0.00032557,-0.00118749,0.00159307,0.
 00029768,-0.00302286,-0.22742809,0.09536445,-0.09469852,-0.01391041,0.
 01002143,-0.00826309,-0.00000373,-0.00000176,0.00000143,0.00000255,0.0
 0000027,-0.00000225,-0.00000131,-0.00000226,0.00000428,-0.00000062,0.0
 0000063,0.00000159,-0.00000014,-0.00000114,0.00000067,-0.00000109,0.00
 000115,-0.00000026,-0.00000275,-0.00000060,0.00000796,0.00000966,-0.00
 000563,-0.00000466,0.00002431,0.00001522,0.00001928,-0.00020841,0.0000
 2445,0.00001844,0.00003425,0.00000684,0.00005397,0.23789187,0.00000234
 ,-0.00000509,-0.00000584,0.00001246,0.00000337,0.00001063,-0.00000852,
 -0.00001544,-0.00005300,0.00010645,-0.00003146,0.00005244,0.00020913,-
 0.00038840,-0.00046426,0.00145616,-0.00002893,0.00177359,0.00255793,0.
 00718361,-0.00490481,0.00061677,-0.00189972,0.00153726,-0.00078885,0.0
 0150349,-0.00014309,0.00242318,0.00139712,-0.00080428,-0.00108822,-0.0
 0065120,0.00070051,0.00128098,0.00051015,-0.00111203,-0.00343445,0.003
 39698,-0.00469433,0.09513098,-0.08641291,0.04413893,0.01273170,-0.0006
 7083,0.00684312,0.00000213,0.00000216,-0.00000035,-0.00000091,-0.00000
 014,0.00000034,-0.00000001,-0.00000020,-0.00000029,-0.00000092,-0.0000
 0233,-0.00000087,-0.00000102,0.00000052,0.00000249,-0.00000648,0.00000
 193,0.00000240,-0.00000269,0.00000636,-0.00000270,0.00000399,-0.000015
 58,-0.00001535,-0.00000150,0.00001357,0.00006127,-0.00014178,-0.000008
 85,-0.00000477,-0.00006746,0.00022860,-0.00008509,-0.10832985,0.080764
 82,-0.00000349,0.00000078,0.00000002,0.00000881,-0.00000371,0.00000101
 ,-0.00000168,-0.00000275,-0.00001879,0.00006076,0.00000836,0.00002329,
 0.00014054,0.00010060,-0.00007567,0.00037500,-0.00015549,0.00068834,0.
 00075735,-0.00334268,-0.00264362,0.00080908,-0.00028547,0.00013366,-0.
 00027437,-0.00106006,-0.00404889,-0.00390164,0.00268320,-0.00248118,0.
 00138350,0.00074672,-0.00127011,-0.00122938,-0.00009717,0.00149947,-0.
 01690054,0.00704941,-0.00999613,-0.10562673,0.04843130,-0.10039813,0.0
 1875696,-0.01077331,0.00551313,0.00000106,-0.00000115,0.00000048,0.000
 00099,0.00000028,-0.00000118,-0.00000061,0.00000068,0.00000046,-0.0000
 0025,0.00000019,0.00000026,-0.00000010,-0.00000195,0.00000005,0.000000
 05,0.00000112,-0.00000085,0.00000013,0.00000019,0.00000139,-0.00000684
 ,0.00000178,0.00000424,0.00000227,0.00002235,-0.00008574,0.00007606,0.
 00000172,-0.00005722,0.00004061,-0.00009102,0.00014554,0.10347455,-0.0
 4342045,0.11200825,0.00003377,-0.00002366,-0.00001077,-0.00001532,0.00
 001270,0.00003058,-0.00003348,-0.00000067,-0.00002838,0.00001317,0.000
 02933,-0.00000821,-0.00018641,-0.00007921,0.00026522,0.00166767,-0.000
 65846,-0.00039927,-0.00556993,0.00191517,-0.02692982,-0.00381265,0.000
 76630,-0.00378697,-0.00152479,0.00103879,0.00084110,-0.00097715,-0.000
 85163,-0.00037990,0.00128151,-0.00110835,0.00021232,-0.00024406,0.0025
 6831,0.00041197,0.00001806,0.00445008,0.00249377,0.00484996,0.00242695
 ,0.01932308,-0.07305936,0.00909972,-0.07560512,0.00000480,0.00000737,-
 0.00000600,-0.00000430,0.00000325,-0.00000136,0.00000339,-0.00000627,0
 .00000224,-0.00000108,0.00000008,-0.00000017,0.00001343,-0.00000835,0.
 00000377,0.00001258,0.00000555,0.00000123,-0.00002698,-0.00002346,0.00
 002654,-0.00000627,0.00002874,0.00001049,0.00019291,-0.00006153,-0.000
 01463,0.00011652,0.00001372,-0.00001189,0.00006660,0.00002660,0.000102
 00,-0.00085534,-0.00266152,0.00205792,0.07804274,-0.00000102,-0.000009
 15,-0.00000195,0.00000956,0.00001639,0.00000182,-0.00000474,-0.0000175
 1,-0.00001546,0.00004824,0.00006462,0.00001171,-0.00000030,-0.00039207
 ,-0.00013154,-0.00144345,-0.00089596,-0.00069840,0.00786403,0.00003516
 ,0.01352062,0.00137064,0.00202817,-0.00021131,0.00047255,0.00049001,0.
 00027616,0.00035696,-0.00061423,0.00124063,-0.00012804,0.00055681,0.00
 085955,-0.00016678,0.00022121,0.00014821,0.00510000,0.00433087,-0.0026
 5132,0.00128269,-0.00001920,-0.01786952,0.00552499,-0.03272405,0.00761
 125,0.00000200,0.00000352,-0.00000137,-0.00000246,0.00000012,0.0000008
 0,0.00000053,-0.00000290,0.00000242,-0.00000080,-0.00000819,-0.0000037
 7,0.00000140,0.00000109,0.00000318,-0.00001486,-0.00000155,-0.00000230
 ,0.00000102,-0.00000529,0.00000121,0.00000937,-0.00004214,-0.00002203,
 0.00003035,-0.00000137,0.00000793,-0.00017949,0.00003310,0.00000178,0.
 00004061,0.00003289,-0.00005043,-0.00326348,-0.00488162,0.00018651,-0.
 01690954,0.03180126,-0.00000170,0.00000336,0.00000757,-0.00000567,-0.0
 0000191,-0.00001085,0.00000304,0.00000541,0.00002310,-0.00003972,-0.00
 004112,-0.00003294,-0.00024113,0.00007044,0.00029263,0.00115689,-0.000
 40260,0.00141413,-0.00091455,0.00089678,-0.00650708,-0.00086405,0.0000
 3534,0.00028358,-0.00065118,-0.00017060,0.00038372,-0.00006987,0.00037
 671,0.00048408,0.00011856,-0.00031236,-0.00005797,0.00001460,0.0003231
 6,0.00024891,0.00124972,-0.00119884,0.00137903,-0.00388586,-0.00151680
 ,-0.02028339,-0.07808074,0.00364977,-0.30517191,-0.00000245,-0.0000011
 0,0.00000127,0.00000076,0.00000085,-0.00000260,0.00000018,-0.00000083,
 0.00000251,0.00000038,0.00000244,0.00000222,0.00000094,-0.00000375,-0.
 00000193,0.00000448,0.00000259,-0.00000100,-0.00000538,0.00000417,0.00
 001975,0.00000003,0.00001186,0.00001126,0.00009993,-0.00006157,0.00001
 109,0.00005629,-0.00000854,-0.00002933,-0.00000051,-0.00003698,0.00002
 846,0.00065678,0.00058853,0.00105792,0.08140023,-0.00221439,0.32644775
 \\-0.00000925,-0.00000955,0.00001055,0.00001183,0.00001276,-0.00000072
 ,-0.00000725,-0.00000323,-0.00000128,-0.00001436,0.00000848,0.00000549
 ,0.00000814,0.00000527,-0.00001833,-0.00001739,0.00001018,-0.00001353,
 -0.00000888,-0.00004125,0.00001273,-0.00004705,-0.00004076,-0.00004119
 ,0.00003991,-0.00005689,0.00000572,0.00003331,0.00006968,-0.00002356,-
 0.00006916,-0.00003697,0.00004265,0.00004149,0.00003293,-0.00001295,0.
 00001045,0.00003426,0.00004499,-0.00006888,-0.00000497,-0.00002589,0.0
 0008851,-0.00000355,-0.00000584,0.00000379,0.00000212,-0.00000651,0.00
 000433,0.00000500,-0.00000212,-0.00000465,-0.00000299,-0.00000019,-0.0
 0000398,-0.00000197,-0.00000191,0.00000215,-0.00000006,-0.00000116,0.0
 0000301,-0.00000023,0.00000158,0.00000298,0.00000072,0.00000473,0.0000
 0054,0.00000158,0.00000565,-0.00000084,-0.00000263,0.00001488,0.000006
 97,-0.00000050,0.00001344,0.00000698,0.00000709,0.00000851,0.00000514,
 -0.00000172,-0.00001359,-0.00001788,0.00001718,-0.00000213\\\@


 IT IS DOUBTED WHETHER A MAN EVER BRINGS HIS FACULTIES TO BEAR WITH THEIR FULL FORCE
 ON A SUBJECT UNTIL HE WRITES UPON IT.

                          -- CICERO
 Job cpu time:       0 days  7 hours 14 minutes 35.7 seconds.
 Elapsed time:       0 days  1 hours 48 minutes 41.6 seconds.
 File lengths (MBytes):  RWF=    514 Int=      0 D2E=      0 Chk=     20 Scr=      1
 Normal termination of Gaussian 16 at Thu May 18 15:06:24 2023.
### All Done ###
