### Starting Gaussian ###
 Entering Gaussian System, Link 0=g16
 Initial command:
 /cluster/software/gaussian/gaussian-16-A.03/avx2/g16/l1.exe "/local/scratch/cz9n3/Gau-25259.inp" -scrdir="/local/scratch/cz9n3/"
 Entering Link 1 = /cluster/software/gaussian/gaussian-16-A.03/avx2/g16/l1.exe PID=     25260.
  
 Copyright (c) 1988,1990,1992,1993,1995,1998,2003,2009,2016,
            Gaussian, Inc.  All Rights Reserved.
  
 This is part of the Gaussian(R) 16 program.  It is based on
 the Gaussian(R) 09 system (copyright 2009, Gaussian, Inc.),
 the Gaussian(R) 03 system (copyright 2003, Gaussian, Inc.),
 the Gaussian(R) 98 system (copyright 1998, Gaussian, Inc.),
 the Gaussian(R) 94 system (copyright 1995, Gaussian, Inc.),
 the Gaussian 92(TM) system (copyright 1992, Gaussian, Inc.),
 the Gaussian 90(TM) system (copyright 1990, Gaussian, Inc.),
 the Gaussian 88(TM) system (copyright 1988, Gaussian, Inc.),
 the Gaussian 86(TM) system (copyright 1986, Carnegie Mellon
 University), and the Gaussian 82(TM) system (copyright 1983,
 Carnegie Mellon University). Gaussian is a federally registered
 trademark of Gaussian, Inc.
  
 This software contains proprietary and confidential information,
 including trade secrets, belonging to Gaussian, Inc.
  
 This software is provided under written license and may be
 used, copied, transmitted, or stored only in accord with that
 written license.
  
 The following legend is applicable only to US Government
 contracts under FAR:
  
                    RESTRICTED RIGHTS LEGEND
  
 Use, reproduction and disclosure by the US Government is
 subject to restrictions as set forth in subparagraphs (a)
 and (c) of the Commercial Computer Software - Restricted
 Rights clause in FAR 52.227-19.
  
 Gaussian, Inc.
 340 Quinnipiac St., Bldg. 40, Wallingford CT 06492
  
  
 ---------------------------------------------------------------
 Warning -- This program may not be used in any manner that
 competes with the business of Gaussian, Inc. or will provide
 assistance to any competitor of Gaussian, Inc.  The licensee
 of this program is prohibited from giving any competitor of
 Gaussian, Inc. access to this program.  By using this program,
 the user acknowledges that Gaussian, Inc. is engaged in the
 business of creating and licensing software in the field of
 computational chemistry and represents and warrants to the
 licensee that it is not a competitor of Gaussian, Inc. and that
 it will not use this program in any manner prohibited above.
 ---------------------------------------------------------------
  

 Cite this work as:
 Gaussian 16, Revision A.03,
 M. J. Frisch, G. W. Trucks, H. B. Schlegel, G. E. Scuseria, 
 M. A. Robb, J. R. Cheeseman, G. Scalmani, V. Barone, 
 G. A. Petersson, H. Nakatsuji, X. Li, M. Caricato, A. V. Marenich, 
 J. Bloino, B. G. Janesko, R. Gomperts, B. Mennucci, H. P. Hratchian, 
 J. V. Ortiz, A. F. Izmaylov, J. L. Sonnenberg, D. Williams-Young, 
 F. Ding, F. Lipparini, F. Egidi, J. Goings, B. Peng, A. Petrone, 
 T. Henderson, D. Ranasinghe, V. G. Zakrzewski, J. Gao, N. Rega, 
 G. Zheng, W. Liang, M. Hada, M. Ehara, K. Toyota, R. Fukuda, 
 J. Hasegawa, M. Ishida, T. Nakajima, Y. Honda, O. Kitao, H. Nakai, 
 T. Vreven, K. Throssell, J. A. Montgomery, Jr., J. E. Peralta, 
 F. Ogliaro, M. J. Bearpark, J. J. Heyd, E. N. Brothers, K. N. Kudin, 
 V. N. Staroverov, T. A. Keith, R. Kobayashi, J. Normand, 
 K. Raghavachari, A. P. Rendell, J. C. Burant, S. S. Iyengar, 
 J. Tomasi, M. Cossi, J. M. Millam, M. Klene, C. Adamo, R. Cammi, 
 J. W. Ochterski, R. L. Martin, K. Morokuma, O. Farkas, 
 J. B. Foresman, and D. J. Fox, Gaussian, Inc., Wallingford CT, 2016.
 
 ******************************************
 Gaussian 16:  ES64L-G16RevA.03 25-Dec-2016
                15-May-2023 
 ******************************************
 %chk=Nd[SH]12CdC1CdCCdCC2dS.chk
 %NProcShared=20
 Will use up to   20 processors via shared memory.
 -----------------------------
 # opt freq b3lyp/6-31g(2df,p)
 -----------------------------
 1/18=20,19=15,26=3,38=1/1,3;
 2/9=110,12=2,17=6,18=5,40=1/2;
 3/5=1,6=6,7=104,11=2,25=1,30=1,71=1,74=-5/1,2,3;
 4//1;
 5/5=2,38=5/2;
 6/7=2,8=2,9=2,10=2,28=1/1;
 7//1,2,3,16;
 1/18=20,19=15,26=3/3(2);
 2/9=110/2;
 99//99;
 2/9=110/2;
 3/5=1,6=6,7=104,11=2,25=1,30=1,71=1,74=-5/1,2,3;
 4/5=5,16=3,69=1/1;
 5/5=2,38=5/2;
 7//1,2,3,16;
 1/18=20,19=15,26=3/3(-5);
 2/9=110/2;
 6/7=2,8=2,9=2,10=2,19=2,28=1/1;
 99/9=1/99;
 -------------------
 Title Card Required
 -------------------
 Symbolic Z-matrix:
 Charge =  0 Multiplicity = 1
 N                     1.02517   0.06958   0.06727 
 S                     2.60037   0.06958   0.06727 
 C                     2.37759   2.48641  -0.91882 
 C                     3.23438   1.4348   -0.81526 
 C                     4.43419   1.6267   -1.41514 
 C                     5.58857   0.97967  -1.30092 
 C                     5.85842  -0.27191  -0.78615 
 C                     5.05989  -1.31511  -0.78382 
 C                     3.34804  -1.51851  -1.00659 
 S                     2.55181  -2.65722  -1.83941 
 H                     0.53292   0.77587   0.54486 
 H                     2.11158   1.14811  -0.60165 
 H                     1.98827   3.40984  -1.16527 
 H                     4.45471   2.41643  -2.07916 
 H                     6.41215   1.49304  -1.65192 
 H                     6.7877   -0.40252  -0.35672 
 H                     5.55503  -2.20434  -0.61315 
 

 GradGradGradGradGradGradGradGradGradGradGradGradGradGradGradGradGradGrad
 Berny optimization.
 Initialization pass.
                           ----------------------------
                           !    Initial Parameters    !
                           ! (Angstroms and Degrees)  !
 --------------------------                            --------------------------
 ! Name  Definition              Value          Derivative Info.                !
 --------------------------------------------------------------------------------
 ! R1    R(1,2)                  1.5752         estimate D2E/DX2                !
 ! R2    R(1,11)                 0.9845         estimate D2E/DX2                !
 ! R3    R(2,4)                  1.7449         estimate D2E/DX2                !
 ! R4    R(2,9)                  2.0577         estimate D2E/DX2                !
 ! R5    R(2,12)                 1.36           estimate D2E/DX2                !
 ! R6    R(3,4)                  1.3604         estimate D2E/DX2                !
 ! R7    R(3,13)                 1.032          estimate D2E/DX2                !
 ! R8    R(4,5)                  1.3551         estimate D2E/DX2                !
 ! R9    R(4,12)                 1.1783         estimate D2E/DX2                !
 ! R10   R(5,6)                  1.3283         estimate D2E/DX2                !
 ! R11   R(5,14)                 1.032          estimate D2E/DX2                !
 ! R12   R(6,7)                  1.3799         estimate D2E/DX2                !
 ! R13   R(6,15)                 1.032          estimate D2E/DX2                !
 ! R14   R(7,8)                  1.3137         estimate D2E/DX2                !
 ! R15   R(7,16)                 1.032          estimate D2E/DX2                !
 ! R16   R(8,9)                  1.7382         estimate D2E/DX2                !
 ! R17   R(8,17)                 1.032          estimate D2E/DX2                !
 ! R18   R(9,10)                 1.6199         estimate D2E/DX2                !
 ! A1    A(2,1,11)             119.9999         estimate D2E/DX2                !
 ! A2    A(1,2,4)              111.3062         estimate D2E/DX2                !
 ! A3    A(1,2,9)              111.306          estimate D2E/DX2                !
 ! A4    A(1,2,12)              68.9364         estimate D2E/DX2                !
 ! A5    A(4,2,9)              101.9974         estimate D2E/DX2                !
 ! A6    A(9,2,12)             119.0747         estimate D2E/DX2                !
 ! A7    A(4,3,13)             161.3445         estimate D2E/DX2                !
 ! A8    A(2,4,3)              114.4862         estimate D2E/DX2                !
 ! A9    A(2,4,5)              131.0277         estimate D2E/DX2                !
 ! A10   A(3,4,5)              114.4861         estimate D2E/DX2                !
 ! A11   A(3,4,12)              66.5315         estimate D2E/DX2                !
 ! A12   A(5,4,12)             163.4131         estimate D2E/DX2                !
 ! A13   A(4,5,6)              131.4875         estimate D2E/DX2                !
 ! A14   A(4,5,14)             114.2563         estimate D2E/DX2                !
 ! A15   A(6,5,14)             114.2563         estimate D2E/DX2                !
 ! A16   A(5,6,7)              130.0787         estimate D2E/DX2                !
 ! A17   A(5,6,15)             114.9609         estimate D2E/DX2                !
 ! A18   A(7,6,15)             114.9604         estimate D2E/DX2                !
 ! A19   A(6,7,8)              127.0132         estimate D2E/DX2                !
 ! A20   A(6,7,16)             116.4936         estimate D2E/DX2                !
 ! A21   A(8,7,16)             116.4932         estimate D2E/DX2                !
 ! A22   A(7,8,9)              133.7328         estimate D2E/DX2                !
 ! A23   A(7,8,17)             113.1338         estimate D2E/DX2                !
 ! A24   A(9,8,17)             113.1335         estimate D2E/DX2                !
 ! A25   A(2,9,8)              101.5746         estimate D2E/DX2                !
 ! A26   A(2,9,10)             129.2129         estimate D2E/DX2                !
 ! A27   A(8,9,10)             129.2125         estimate D2E/DX2                !
 ! D1    D(11,1,2,4)           -66.9465         estimate D2E/DX2                !
 ! D2    D(11,1,2,9)          -180.0            estimate D2E/DX2                !
 ! D3    D(11,1,2,12)          -65.8742         estimate D2E/DX2                !
 ! D4    D(1,2,4,3)             23.0094         estimate D2E/DX2                !
 ! D5    D(1,2,4,5)           -156.9892         estimate D2E/DX2                !
 ! D6    D(9,2,4,3)            141.7989         estimate D2E/DX2                !
 ! D7    D(9,2,4,5)            -38.1997         estimate D2E/DX2                !
 ! D8    D(1,2,9,8)           -177.6237         estimate D2E/DX2                !
 ! D9    D(1,2,9,10)             2.3766         estimate D2E/DX2                !
 ! D10   D(4,2,9,8)             63.5866         estimate D2E/DX2                !
 ! D11   D(4,2,9,10)          -116.4131         estimate D2E/DX2                !
 ! D12   D(12,2,9,8)           105.3524         estimate D2E/DX2                !
 ! D13   D(12,2,9,10)          -74.6474         estimate D2E/DX2                !
 ! D14   D(13,3,4,2)           179.9993         estimate D2E/DX2                !
 ! D15   D(13,3,4,5)            -0.0019         estimate D2E/DX2                !
 ! D16   D(13,3,4,12)         -161.8697         estimate D2E/DX2                !
 ! D17   D(2,4,5,6)            -15.8272         estimate D2E/DX2                !
 ! D18   D(2,4,5,14)           164.1744         estimate D2E/DX2                !
 ! D19   D(3,4,5,6)            164.1742         estimate D2E/DX2                !
 ! D20   D(3,4,5,14)           -15.8242         estimate D2E/DX2                !
 ! D21   D(12,4,5,6)          -106.0506         estimate D2E/DX2                !
 ! D22   D(12,4,5,14)           73.951          estimate D2E/DX2                !
 ! D23   D(4,5,6,7)             17.4006         estimate D2E/DX2                !
 ! D24   D(4,5,6,15)          -162.6004         estimate D2E/DX2                !
 ! D25   D(14,5,6,7)          -162.6011         estimate D2E/DX2                !
 ! D26   D(14,5,6,15)           17.398          estimate D2E/DX2                !
 ! D27   D(5,6,7,8)             30.0445         estimate D2E/DX2                !
 ! D28   D(5,6,7,16)          -149.9564         estimate D2E/DX2                !
 ! D29   D(15,6,7,8)          -149.9545         estimate D2E/DX2                !
 ! D30   D(15,6,7,16)           30.0446         estimate D2E/DX2                !
 ! D31   D(6,7,8,9)            -17.4492         estimate D2E/DX2                !
 ! D32   D(6,7,8,17)           162.5519         estimate D2E/DX2                !
 ! D33   D(16,7,8,9)           162.5517         estimate D2E/DX2                !
 ! D34   D(16,7,8,17)          -17.4472         estimate D2E/DX2                !
 ! D35   D(7,8,9,2)            -41.5496         estimate D2E/DX2                !
 ! D36   D(7,8,9,10)           138.4501         estimate D2E/DX2                !
 ! D37   D(17,8,9,2)           138.4493         estimate D2E/DX2                !
 ! D38   D(17,8,9,10)          -41.551          estimate D2E/DX2                !
 --------------------------------------------------------------------------------
 Trust Radius=3.00D-01 FncErr=1.00D-07 GrdErr=1.00D-06 EigMax=2.50D+02 EigMin=1.00D-04
 Number of steps in this run=     93 maximum allowed number of steps=    102.
 GradGradGradGradGradGradGradGradGradGradGradGradGradGradGradGradGradGrad

                          Input orientation:                          
 ---------------------------------------------------------------------
 Center     Atomic      Atomic             Coordinates (Angstroms)
 Number     Number       Type             X           Y           Z
 ---------------------------------------------------------------------
      1          7           0        1.025170    0.069580    0.067270
      2         16           0        2.600370    0.069580    0.067270
      3          6           0        2.377590    2.486410   -0.918820
      4          6           0        3.234380    1.434800   -0.815260
      5          6           0        4.434190    1.626700   -1.415140
      6          6           0        5.588570    0.979670   -1.300920
      7          6           0        5.858420   -0.271910   -0.786150
      8          6           0        5.059890   -1.315110   -0.783820
      9          6           0        3.348040   -1.518510   -1.006590
     10         16           0        2.551810   -2.657220   -1.839410
     11          1           0        0.532920    0.775870    0.544860
     12          1           0        2.111580    1.148110   -0.601650
     13          1           0        1.988270    3.409840   -1.165270
     14          1           0        4.454710    2.416430   -2.079160
     15          1           0        6.412150    1.493040   -1.651920
     16          1           0        6.787700   -0.402520   -0.356720
     17          1           0        5.555030   -2.204340   -0.613150
 ---------------------------------------------------------------------
                    Distance matrix (angstroms):
                    1          2          3          4          5
     1  N    0.000000
     2  S    1.575200   0.000000
     3  C    2.939810   2.619746   0.000000
     4  C    2.742862   1.744894   1.360403   0.000000
     5  C    4.030332   2.825784   2.283646   1.355074   0.000000
     6  C    4.850240   3.410212   3.567444   2.446471   1.328265
     7  C    4.919883   3.385237   4.443209   3.130382   2.455357
     8  C    4.349791   2.948043   4.654515   3.300830   3.073160
     9  C    3.011798   2.057721   4.121755   2.961683   3.352459
    10  S    3.660805   3.327646   5.228266   4.273103   4.698439
    11  H    0.984504   2.236356   2.910518   3.095481   4.448080
    12  H    1.670619   1.359999   1.400859   1.178346   2.507056
    13  H    3.688367   3.612639   1.032003   2.361373   3.037194
    14  H    4.677244   3.681500   2.380276   2.012522   1.031997
    15  H    5.831072   4.417185   4.219229   3.286581   1.996561
    16  H    5.797361   4.235136   5.301975   4.026424   3.282834
    17  H    5.114031   3.789947   5.673861   4.320834   4.071405
                    6          7          8          9         10
     6  C    0.000000
     7  C    1.379949   0.000000
     8  C    2.410998   1.313743   0.000000
     9  C    3.368606   2.811514   1.738226   0.000000
    10  S    4.768527   4.211025   3.034138   1.619948   0.000000
    11  H    5.385911   5.588415   5.160528   3.949187   4.641850
    12  H    3.550607   4.011148   3.846189   2.967098   4.025716
    13  H    4.345836   5.355098   5.648496   5.114957   6.130356
    14  H    1.988863   3.296885   3.996065   4.225977   5.424061
    15  H    1.032005   2.042357   3.235415   4.344497   5.671158
    16  H    2.059096   1.032003   2.000141   3.674102   5.022430
    17  H    3.257618   1.963736   1.031999   2.344347   3.275385
                   11         12         13         14         15
    11  H    0.000000
    12  H    1.986257   0.000000
    13  H    3.461269   2.334158   0.000000
    14  H    4.995734   3.046626   2.811652   0.000000
    15  H    6.317082   4.440377   4.845788   2.206072   0.000000
    16  H    6.428353   4.932600   6.182424   4.044270   2.326312
    17  H    5.953505   4.805872   6.674251   4.971057   3.935012
                   16         17
    16  H    0.000000
    17  H    2.198133   0.000000
 Stoichiometry    C7H7NS2
 Framework group  C1[X(C7H7NS2)]
 Deg. of freedom    45
 Full point group                 C1      NOp   1
 Largest Abelian subgroup         C1      NOp   1
 Largest concise Abelian subgroup C1      NOp   1
                         Standard orientation:                         
 ---------------------------------------------------------------------
 Center     Atomic      Atomic             Coordinates (Angstroms)
 Number     Number       Type             X           Y           Z
 ---------------------------------------------------------------------
      1          7           0       -0.273917   -2.479673   -0.455271
      2         16           0        0.126854   -0.981542   -0.731389
      3          6           0        2.277890   -1.535193    0.657705
      4          6           0        1.497928   -0.503370    0.236164
      5          6           0        1.918670    0.719949    0.639515
      6          6           0        1.604150    1.940748    0.221166
      7          6           0        0.529990    2.373522   -0.529264
      8          6           0       -0.674661    1.850328   -0.560980
      9          6           0       -1.331066    0.315099   -0.077626
     10         16           0       -2.722625   -0.009143    0.685697
     11          1           0        0.333841   -3.208259   -0.718027
     12          1           0        0.961457   -1.550954    0.178997
     13          1           0        3.037314   -2.063371    1.115236
     14          1           0        2.606092    0.699446    1.408962
     15          1           0        2.266409    2.681109    0.501008
     16          1           0        0.690250    3.196948   -1.130360
     17          1           0       -1.383011    2.487274   -0.957920
 ---------------------------------------------------------------------
 Rotational constants (GHZ):           1.2310923           0.9773027           0.6251927
 Standard basis: 6-31G(2df,p) (6D, 7F)
 There are   353 symmetry adapted cartesian basis functions of A   symmetry.
 There are   323 symmetry adapted basis functions of A   symmetry.
   323 basis functions,   537 primitive gaussians,   353 cartesian basis functions
    44 alpha electrons       44 beta electrons
       nuclear repulsion energy       660.9684336262 Hartrees.
 NAtoms=   17 NActive=   17 NUniq=   17 SFac= 1.00D+00 NAtFMM=   60 NAOKFM=F Big=F
 Integral buffers will be    131072 words long.
 Raffenetti 2 integral format.
 Two-electron integral symmetry is turned on.
 One-electron integrals computed using PRISM.
 PrsmSu:  requested number of processors reduced to:  13 ShMem   1 Linda.
 NBasis=   323 RedAO= T EigKep=  3.34D-04  NBF=   323
 NBsUse=   323 1.00D-06 EigRej= -1.00D+00 NBFU=   323
 ExpMin= 1.17D-01 ExpMax= 2.19D+04 ExpMxC= 3.30D+03 IAcc=3 IRadAn=         5 AccDes= 0.00D+00
 Harris functional with IExCor=  402 and IRadAn=       5 diagonalized for initial guess.
 HarFok:  IExCor=  402 AccDes= 0.00D+00 IRadAn=         5 IDoV= 1 UseB2=F ITyADJ=14
 ICtDFT=  3500011 ScaDFX=  1.000000  1.000000  1.000000  1.000000
 FoFCou: FMM=F IPFlag=           0 FMFlag=      100000 FMFlg1=           0
         NFxFlg=           0 DoJE=T BraDBF=F KetDBF=T FulRan=T
         wScrn=  0.000000 ICntrl=       500 IOpCl=  0 I1Cent=   200000004 NGrid=           0
         NMat0=    1 NMatS0=      1 NMatT0=    0 NMatD0=    1 NMtDS0=    0 NMtDT0=    0
 Petite list used in FoFCou.
 Requested convergence on RMS density matrix=1.00D-08 within 128 cycles.
 Requested convergence on MAX density matrix=1.00D-06.
 Requested convergence on             energy=1.00D-06.
 No special actions if energy rises.
 Integral accuracy reduced to 1.0D-05 until final iterations.
 EnCoef did     5 forward-backward iterations
 EnCoef did     3 forward-backward iterations
 EnCoef did     4 forward-backward iterations
 Initial convergence to 1.0D-05 achieved.  Increase integral accuracy.
 SCF Done:  E(RB3LYP) =  -1121.61251475     A.U. after   20 cycles
            NFock= 20  Conv=0.83D-08     -V/T= 2.0034

 **********************************************************************

            Population analysis using the SCF density.

 **********************************************************************

 Orbital symmetries:
       Occupied  (A) (A) (A) (A) (A) (A) (A) (A) (A) (A) (A) (A)
                 (A) (A) (A) (A) (A) (A) (A) (A) (A) (A) (A) (A)
                 (A) (A) (A) (A) (A) (A) (A) (A) (A) (A) (A) (A)
                 (A) (A) (A) (A) (A) (A) (A) (A)
       Virtual   (A) (A) (A) (A) (A) (A) (A) (A) (A) (A) (A) (A)
                 (A) (A) (A) (A) (A) (A) (A) (A) (A) (A) (A) (A)
                 (A) (A) (A) (A) (A) (A) (A) (A) (A) (A) (A) (A)
                 (A) (A) (A) (A) (A) (A) (A) (A) (A) (A) (A) (A)
                 (A) (A) (A) (A) (A) (A) (A) (A) (A) (A) (A) (A)
                 (A) (A) (A) (A) (A) (A) (A) (A) (A) (A) (A) (A)
                 (A) (A) (A) (A) (A) (A) (A) (A) (A) (A) (A) (A)
                 (A) (A) (A) (A) (A) (A) (A) (A) (A) (A) (A) (A)
                 (A) (A) (A) (A) (A) (A) (A) (A) (A) (A) (A) (A)
                 (A) (A) (A) (A) (A) (A) (A) (A) (A) (A) (A) (A)
                 (A) (A) (A) (A) (A) (A) (A) (A) (A) (A) (A) (A)
                 (A) (A) (A) (A) (A) (A) (A) (A) (A) (A) (A) (A)
                 (A) (A) (A) (A) (A) (A) (A) (A) (A) (A) (A) (A)
                 (A) (A) (A) (A) (A) (A) (A) (A) (A) (A) (A) (A)
                 (A) (A) (A) (A) (A) (A) (A) (A) (A) (A) (A) (A)
                 (A) (A) (A) (A) (A) (A) (A) (A) (A) (A) (A) (A)
                 (A) (A) (A) (A) (A) (A) (A) (A) (A) (A) (A) (A)
                 (A) (A) (A) (A) (A) (A) (A) (A) (A) (A) (A) (A)
                 (A) (A) (A) (A) (A) (A) (A) (A) (A) (A) (A) (A)
                 (A) (A) (A) (A) (A) (A) (A) (A) (A) (A) (A) (A)
                 (A) (A) (A) (A) (A) (A) (A) (A) (A) (A) (A) (A)
                 (A) (A) (A) (A) (A) (A) (A) (A) (A) (A) (A) (A)
                 (A) (A) (A) (A) (A) (A) (A) (A) (A) (A) (A) (A)
                 (A) (A) (A)
 The electronic state is 1-A.
 Alpha  occ. eigenvalues --  -88.98065 -88.89222 -14.30880 -10.31015 -10.23915
 Alpha  occ. eigenvalues --  -10.22090 -10.20126 -10.19052 -10.18362 -10.18292
 Alpha  occ. eigenvalues --   -8.03447  -7.95608  -5.99854  -5.99610  -5.99216
 Alpha  occ. eigenvalues --   -5.91906  -5.91852  -5.91189  -0.98537  -0.86121
 Alpha  occ. eigenvalues --   -0.83166  -0.79837  -0.76032  -0.69607  -0.67093
 Alpha  occ. eigenvalues --   -0.59108  -0.57671  -0.55151  -0.51965  -0.49390
 Alpha  occ. eigenvalues --   -0.47510  -0.45039  -0.43171  -0.41899  -0.40263
 Alpha  occ. eigenvalues --   -0.37950  -0.34307  -0.33200  -0.30681  -0.29171
 Alpha  occ. eigenvalues --   -0.25628  -0.22865  -0.21158  -0.19225
 Alpha virt. eigenvalues --   -0.11169  -0.05952  -0.03446  -0.00543   0.02727
 Alpha virt. eigenvalues --    0.06783   0.07129   0.09081   0.10906   0.11629
 Alpha virt. eigenvalues --    0.12628   0.14052   0.15458   0.17790   0.19493
 Alpha virt. eigenvalues --    0.20271   0.21065   0.24377   0.27693   0.29406
 Alpha virt. eigenvalues --    0.31524   0.31960   0.32903   0.34483   0.35001
 Alpha virt. eigenvalues --    0.36881   0.37363   0.38195   0.39613   0.40426
 Alpha virt. eigenvalues --    0.42136   0.43871   0.44624   0.46030   0.48155
 Alpha virt. eigenvalues --    0.48716   0.49076   0.50280   0.51819   0.52785
 Alpha virt. eigenvalues --    0.54028   0.55197   0.57083   0.57956   0.59085
 Alpha virt. eigenvalues --    0.61634   0.62842   0.64553   0.66615   0.66987
 Alpha virt. eigenvalues --    0.68368   0.69246   0.71900   0.72138   0.74222
 Alpha virt. eigenvalues --    0.74768   0.76147   0.78582   0.78946   0.80365
 Alpha virt. eigenvalues --    0.80600   0.81658   0.82292   0.83241   0.84240
 Alpha virt. eigenvalues --    0.86356   0.87532   0.88306   0.90368   0.91506
 Alpha virt. eigenvalues --    0.91973   0.94420   0.96513   0.97722   0.98917
 Alpha virt. eigenvalues --    0.99560   1.02037   1.03550   1.05616   1.07646
 Alpha virt. eigenvalues --    1.08764   1.11539   1.12421   1.13499   1.15440
 Alpha virt. eigenvalues --    1.16512   1.17548   1.23419   1.24608   1.25881
 Alpha virt. eigenvalues --    1.29069   1.31322   1.32201   1.33475   1.35865
 Alpha virt. eigenvalues --    1.36638   1.40828   1.42515   1.43870   1.47007
 Alpha virt. eigenvalues --    1.49718   1.50474   1.56070   1.60122   1.61250
 Alpha virt. eigenvalues --    1.63187   1.63865   1.64995   1.66431   1.67734
 Alpha virt. eigenvalues --    1.70105   1.71919   1.72882   1.75101   1.77280
 Alpha virt. eigenvalues --    1.81438   1.82679   1.86639   1.88984   1.89389
 Alpha virt. eigenvalues --    1.92799   1.93600   1.95487   1.99161   2.01029
 Alpha virt. eigenvalues --    2.02126   2.04125   2.05239   2.06304   2.09920
 Alpha virt. eigenvalues --    2.12733   2.12964   2.16855   2.18067   2.19630
 Alpha virt. eigenvalues --    2.20850   2.24237   2.27276   2.28651   2.32031
 Alpha virt. eigenvalues --    2.34635   2.34860   2.37270   2.39509   2.41329
 Alpha virt. eigenvalues --    2.42178   2.43089   2.45872   2.51459   2.53144
 Alpha virt. eigenvalues --    2.54524   2.56430   2.58995   2.64569   2.66017
 Alpha virt. eigenvalues --    2.68629   2.73666   2.77356   2.78768   2.83165
 Alpha virt. eigenvalues --    2.83917   2.85451   2.89520   2.89820   2.92400
 Alpha virt. eigenvalues --    2.95268   2.96184   2.96589   2.99686   3.01501
 Alpha virt. eigenvalues --    3.02051   3.06035   3.08002   3.10989   3.14175
 Alpha virt. eigenvalues --    3.14445   3.14899   3.17856   3.20228   3.22455
 Alpha virt. eigenvalues --    3.23237   3.25595   3.28263   3.28844   3.31681
 Alpha virt. eigenvalues --    3.33595   3.34258   3.36616   3.37142   3.40051
 Alpha virt. eigenvalues --    3.40333   3.44833   3.46265   3.48384   3.49557
 Alpha virt. eigenvalues --    3.52326   3.54234   3.57255   3.60805   3.62653
 Alpha virt. eigenvalues --    3.65751   3.67564   3.69326   3.71400   3.76391
 Alpha virt. eigenvalues --    3.78481   3.80428   3.84291   3.87002   3.87067
 Alpha virt. eigenvalues --    3.90384   3.93340   3.96626   4.01307   4.04504
 Alpha virt. eigenvalues --    4.08716   4.09498   4.14244   4.15985   4.17009
 Alpha virt. eigenvalues --    4.20633   4.21620   4.25120   4.27003   4.30160
 Alpha virt. eigenvalues --    4.32097   4.33700   4.35829   4.38753   4.39640
 Alpha virt. eigenvalues --    4.42284   4.44825   4.45963   4.47919   4.49416
 Alpha virt. eigenvalues --    4.53277   4.55232   4.56413   4.57826   4.58330
 Alpha virt. eigenvalues --    4.61763   4.66065   4.68531   4.69482   4.72154
 Alpha virt. eigenvalues --    4.77405   4.79852   4.82142   4.83588   4.88929
 Alpha virt. eigenvalues --    4.91020   4.93092   4.99948   5.02035   5.04685
 Alpha virt. eigenvalues --    5.06669   5.11286   5.22713   5.28574   5.32206
 Alpha virt. eigenvalues --    5.34311   5.38663   5.51821   5.58015   5.60666
 Alpha virt. eigenvalues --    5.69994   5.86586   5.95131   6.03687   6.79369
 Alpha virt. eigenvalues --    9.70734   9.98088  10.46100  10.60813  11.05261
 Alpha virt. eigenvalues --   11.43444  11.59769  11.81337  12.22341
          Condensed to atoms (all electrons):
               1          2          3          4          5          6
     1  N    6.747042   0.467799  -0.026630  -0.058243   0.001683   0.000030
     2  S    0.467799  15.410391  -0.064301   0.100386  -0.030855  -0.004572
     3  C   -0.026630  -0.064301   5.590682   0.430643  -0.017434   0.009187
     4  C   -0.058243   0.100386   0.430643   5.088689   0.434903   0.013751
     5  C    0.001683  -0.030855  -0.017434   0.434903   4.827349   0.563553
     6  C    0.000030  -0.004572   0.009187   0.013751   0.563553   4.801022
     7  C    0.000052   0.004196   0.001108  -0.031941   0.017918   0.448781
     8  C    0.000345  -0.027354   0.000160   0.005886  -0.031566  -0.001744
     9  C   -0.019232   0.104804   0.002215   0.015328   0.000757  -0.007790
    10  S    0.011013  -0.034547  -0.000241  -0.002390   0.000492   0.000623
    11  H    0.326033  -0.044068   0.009867  -0.002513  -0.000022   0.000009
    12  H    0.040312  -0.023585   0.140587  -0.049190  -0.024139   0.001764
    13  H   -0.000324   0.005909   0.386321  -0.024683  -0.001106  -0.000088
    14  H   -0.000111   0.004029  -0.014866  -0.048151   0.386197  -0.053772
    15  H    0.000000  -0.000294  -0.001220   0.009577  -0.033106   0.362462
    16  H    0.000000  -0.000275   0.000012   0.000221   0.005574  -0.042869
    17  H   -0.000007   0.001304  -0.000000  -0.000216   0.000824   0.005209
               7          8          9         10         11         12
     1  N    0.000052   0.000345  -0.019232   0.011013   0.326033   0.040312
     2  S    0.004196  -0.027354   0.104804  -0.034547  -0.044068  -0.023585
     3  C    0.001108   0.000160   0.002215  -0.000241   0.009867   0.140587
     4  C   -0.031941   0.005886   0.015328  -0.002390  -0.002513  -0.049190
     5  C    0.017918  -0.031566   0.000757   0.000492  -0.000022  -0.024139
     6  C    0.448781  -0.001744  -0.007790   0.000623   0.000009   0.001764
     7  C    4.708074   0.609733  -0.022044   0.002469  -0.000006  -0.000828
     8  C    0.609733   5.018488   0.341450  -0.037181  -0.000025   0.000402
     9  C   -0.022044   0.341450   5.052331   0.513822   0.002009  -0.008580
    10  S    0.002469  -0.037181   0.513822  15.691546  -0.000797   0.001448
    11  H   -0.000006  -0.000025   0.002009  -0.000797   0.446722  -0.000694
    12  H   -0.000828   0.000402  -0.008580   0.001448  -0.000694   0.626189
    13  H    0.000009   0.000001   0.000008  -0.000004  -0.000020  -0.017169
    14  H    0.008514  -0.000004  -0.000180   0.000007  -0.000002  -0.001451
    15  H   -0.061538   0.006561   0.000040   0.000012   0.000000   0.000088
    16  H    0.368811  -0.045464   0.004114  -0.000185  -0.000000  -0.000008
    17  H   -0.021376   0.352932  -0.037100   0.002190   0.000001  -0.000029
              13         14         15         16         17
     1  N   -0.000324  -0.000111   0.000000   0.000000  -0.000007
     2  S    0.005909   0.004029  -0.000294  -0.000275   0.001304
     3  C    0.386321  -0.014866  -0.001220   0.000012  -0.000000
     4  C   -0.024683  -0.048151   0.009577   0.000221  -0.000216
     5  C   -0.001106   0.386197  -0.033106   0.005574   0.000824
     6  C   -0.000088  -0.053772   0.362462  -0.042869   0.005209
     7  C    0.000009   0.008514  -0.061538   0.368811  -0.021376
     8  C    0.000001  -0.000004   0.006561  -0.045464   0.352932
     9  C    0.000008  -0.000180   0.000040   0.004114  -0.037100
    10  S   -0.000004   0.000007   0.000012  -0.000185   0.002190
    11  H   -0.000020  -0.000002   0.000000  -0.000000   0.000001
    12  H   -0.017169  -0.001451   0.000088  -0.000008  -0.000029
    13  H    0.468850   0.002094  -0.000007   0.000000  -0.000000
    14  H    0.002094   0.624664  -0.013890  -0.000246   0.000011
    15  H   -0.000007  -0.013890   0.644972  -0.008277  -0.000470
    16  H    0.000000  -0.000246  -0.008277   0.620714  -0.011750
    17  H   -0.000000   0.000011  -0.000470  -0.011750   0.580715
 Mulliken charges:
               1
     1  N   -0.489762
     2  S    0.131033
     3  C   -0.446092
     4  C    0.117944
     5  C   -0.101022
     6  C   -0.095557
     7  C   -0.031930
     8  C   -0.192619
     9  C    0.058049
    10  S   -0.148277
    11  H    0.263507
    12  H    0.314884
    13  H    0.180208
    14  H    0.107155
    15  H    0.095088
    16  H    0.109627
    17  H    0.127764
 Sum of Mulliken charges =  -0.00000
 Mulliken charges with hydrogens summed into heavy atoms:
               1
     1  N   -0.226255
     2  S    0.131033
     3  C   -0.265884
     4  C    0.432827
     5  C    0.006132
     6  C   -0.000469
     7  C    0.077697
     8  C   -0.064854
     9  C    0.058049
    10  S   -0.148277
 Electronic spatial extent (au):  <R**2>=           1835.4028
 Charge=             -0.0000 electrons
 Dipole moment (field-independent basis, Debye):
    X=              2.4903    Y=              2.1624    Z=             -0.3585  Tot=              3.3175
 Quadrupole moment (field-independent basis, Debye-Ang):
   XX=            -70.9661   YY=            -68.3687   ZZ=            -71.9346
   XY=             -2.8851   XZ=              2.6520   YZ=             -1.2843
 Traceless Quadrupole moment (field-independent basis, Debye-Ang):
   XX=             -0.5430   YY=              2.0545   ZZ=             -1.5115
   XY=             -2.8851   XZ=              2.6520   YZ=             -1.2843
 Octapole moment (field-independent basis, Debye-Ang**2):
  XXX=              9.1470  YYY=              7.2172  ZZZ=              1.7113  XYY=             18.1754
  XXY=             -2.1596  XXZ=              7.0098  XZZ=              0.9425  YZZ=             -1.7296
  YYZ=            -12.0958  XYZ=              1.4614
 Hexadecapole moment (field-independent basis, Debye-Ang**3):
 XXXX=          -1216.2444 YYYY=           -923.8449 ZZZZ=           -236.8383 XXXY=             -7.9093
 XXXZ=             22.4977 YYYX=            -15.7866 YYYZ=             -0.7615 ZZZX=             -1.1867
 ZZZY=              0.3978 XXYY=           -361.3185 XXZZ=           -233.9087 YYZZ=           -199.3977
 XXYZ=            -11.5442 YYXZ=              6.8240 ZZXY=             -3.0932
 N-N= 6.609684336262D+02 E-N=-3.968820823430D+03  KE= 1.117767851828D+03
 PrsmSu:  requested number of processors reduced to:  13 ShMem   1 Linda.
 Calling FoFJK, ICntrl=      2127 FMM=F ISym2X=0 I1Cent= 0 IOpClX= 0 NMat=1 NMatS=1 NMatT=0.
 ***** Axes restored to original set *****
 -------------------------------------------------------------------
 Center     Atomic                   Forces (Hartrees/Bohr)
 Number     Number              X              Y              Z
 -------------------------------------------------------------------
      1        7           0.013492918   -0.031547956   -0.038749935
      2       16           0.045362792   -0.165864518    0.114373509
      3        6          -0.005550655   -0.094011820    0.038155196
      4        6          -0.000969664    0.127464346   -0.045928661
      5        6           0.078248203   -0.038138532   -0.014888122
      6        6          -0.015779158    0.016255843    0.001068974
      7        6          -0.027815713    0.003654067    0.005294373
      8        6          -0.094899666   -0.021547716   -0.009165532
      9        6           0.059516985    0.024890064   -0.003378071
     10       16           0.009863355    0.018444176    0.017712231
     11        1          -0.003451058    0.020290256    0.020216428
     12        1          -0.134677461    0.111974759   -0.060572117
     13        1          -0.007232143    0.026845741   -0.008887220
     14        1          -0.001565006    0.039278943   -0.017719810
     15        1           0.035933889    0.019832692   -0.019831573
     16        1           0.044739078   -0.012421012    0.007386029
     17        1           0.004783303   -0.045399334    0.014914302
 -------------------------------------------------------------------
 Cartesian Forces:  Max     0.165864518 RMS     0.052785569

 GradGradGradGradGradGradGradGradGradGradGradGradGradGradGradGradGradGrad
 Berny optimization.
 FormGI is forming the generalized inverse of G from B-inverse, IUseBI=4.
 Internal  Forces:  Max     0.134562314 RMS     0.030200568
 Search for a local minimum.
 Step number   1 out of a maximum of   93
 All quantities printed in internal units (Hartrees-Bohrs-Radians)
 Mixed Optimization -- RFO/linear search
 Second derivative matrix not updated -- first step.
 ITU=  0
     Eigenvalues ---    0.00230   0.01569   0.01872   0.02030   0.02613
     Eigenvalues ---    0.02620   0.02691   0.02821   0.02844   0.02944
     Eigenvalues ---    0.02947   0.03323   0.04359   0.06270   0.10125
     Eigenvalues ---    0.12970   0.13222   0.15614   0.16000   0.16000
     Eigenvalues ---    0.16000   0.16000   0.16000   0.16000   0.16442
     Eigenvalues ---    0.21315   0.21663   0.21942   0.23119   0.23955
     Eigenvalues ---    0.25000   0.27527   0.42477   0.42477   0.42477
     Eigenvalues ---    0.42478   0.42478   0.47281   0.47546   0.50520
     Eigenvalues ---    0.51655   0.52866   0.56329   0.58191   0.61440
 RFO step:  Lambda=-1.67844833D-01 EMin= 2.30000000D-03
 Linear search not attempted -- first point.
 Maximum step size (   0.300) exceeded in Quadratic search.
    -- Step size scaled by   0.496
 Iteration  1 RMS(Cart)=  0.05145611 RMS(Int)=  0.00092094
 Iteration  2 RMS(Cart)=  0.00136582 RMS(Int)=  0.00030052
 Iteration  3 RMS(Cart)=  0.00000050 RMS(Int)=  0.00030052
 Variable       Old X    -DE/DX   Delta X   Delta X   Delta X     New X
                                 (Linear)    (Quad)   (Total)
    R1        2.97670  -0.01004   0.00000  -0.00682  -0.00682   2.96988
    R2        1.86044   0.02609   0.00000   0.01925   0.01925   1.87969
    R3        3.29737   0.07440   0.00000   0.07124   0.07021   3.36759
    R4        3.88853  -0.02321   0.00000  -0.04338  -0.04334   3.84519
    R5        2.57003   0.13456   0.00000   0.16257   0.16329   2.73332
    R6        2.57079  -0.04610   0.00000  -0.03286  -0.03286   2.53793
    R7        1.95020   0.02887   0.00000   0.02419   0.02419   1.97439
    R8        2.56072   0.09885   0.00000   0.07134   0.07134   2.63206
    R9        2.22675   0.06319   0.00000   0.07866   0.07928   2.30604
   R10        2.51006   0.02540   0.00000   0.01954   0.01956   2.52962
   R11        1.95019   0.04143   0.00000   0.03471   0.03471   1.98490
   R12        2.60773   0.05337   0.00000   0.04276   0.04277   2.65049
   R13        1.95021   0.04529   0.00000   0.03794   0.03794   1.98815
   R14        2.48262   0.04331   0.00000   0.02649   0.02645   2.50906
   R15        1.95020   0.04493   0.00000   0.03764   0.03764   1.98785
   R16        3.28477  -0.07578   0.00000  -0.11945  -0.11949   3.16528
   R17        1.95020   0.04388   0.00000   0.03676   0.03676   1.98696
   R18        3.06126  -0.02692   0.00000  -0.02078  -0.02078   3.04048
    A1        2.09439  -0.02061   0.00000  -0.03121  -0.03121   2.06318
    A2        1.94266  -0.00678   0.00000  -0.00692  -0.00755   1.93511
    A3        1.94266  -0.01206   0.00000  -0.02638  -0.02633   1.91633
    A4        1.20317  -0.00973   0.00000  -0.01578  -0.01506   1.18811
    A5        1.78019   0.00978   0.00000   0.00852   0.00862   1.78881
    A6        2.07825   0.01144   0.00000   0.00963   0.00940   2.08765
    A7        2.81599  -0.00836   0.00000  -0.01267  -0.01267   2.80333
    A8        1.99816  -0.02645   0.00000  -0.03373  -0.03433   1.96383
    A9        2.28687  -0.03210   0.00000  -0.04228  -0.04144   2.24543
   A10        1.99816   0.05855   0.00000   0.07601   0.07576   2.07392
   A11        1.16119  -0.05753   0.00000  -0.07644  -0.07597   1.08523
   A12        2.85210  -0.00622   0.00000  -0.00698  -0.00628   2.84582
   A13        2.29489  -0.00117   0.00000  -0.00107  -0.00127   2.29361
   A14        1.99415  -0.00476   0.00000  -0.00756  -0.00746   1.98669
   A15        1.99415   0.00593   0.00000   0.00863   0.00873   2.00288
   A16        2.27030  -0.00905   0.00000  -0.00590  -0.00611   2.26419
   A17        2.00645   0.00534   0.00000   0.00418   0.00427   2.01071
   A18        2.00644   0.00372   0.00000   0.00173   0.00182   2.00825
   A19        2.21680   0.00977   0.00000   0.01324   0.01306   2.22986
   A20        2.03320  -0.00191   0.00000  -0.00212  -0.00206   2.03114
   A21        2.03319  -0.00785   0.00000  -0.01112  -0.01105   2.02214
   A22        2.33408  -0.00136   0.00000  -0.00914  -0.00941   2.32466
   A23        1.97456   0.01757   0.00000   0.03015   0.03028   2.00484
   A24        1.97455  -0.01621   0.00000  -0.02101  -0.02088   1.95368
   A25        1.77281   0.02651   0.00000   0.02861   0.02830   1.80111
   A26        2.25519  -0.01894   0.00000  -0.02106  -0.02117   2.23402
   A27        2.25518  -0.00757   0.00000  -0.00755  -0.00768   2.24751
    D1       -1.16844  -0.00668   0.00000  -0.01778  -0.01785  -1.18629
    D2       -3.14159  -0.00755   0.00000  -0.00857  -0.00885   3.13274
    D3       -1.14972   0.00556   0.00000   0.00453   0.00489  -1.14483
    D4        0.40159   0.01452   0.00000   0.02942   0.02916   0.43075
    D5       -2.73998   0.01411   0.00000   0.02460   0.02469  -2.71529
    D6        2.47486   0.00286   0.00000   0.00028  -0.00009   2.47477
    D7       -0.66671   0.00244   0.00000  -0.00455  -0.00457  -0.67128
    D8       -3.10012   0.01034   0.00000   0.01841   0.01821  -3.08191
    D9        0.04148  -0.00645   0.00000  -0.01526  -0.01523   0.02625
   D10        1.10980   0.01826   0.00000   0.03375   0.03410   1.14389
   D11       -2.03179   0.00147   0.00000   0.00008   0.00066  -2.03113
   D12        1.83875   0.02447   0.00000   0.04703   0.04637   1.88512
   D13       -1.30284   0.00768   0.00000   0.01336   0.01293  -1.28991
   D14        3.14158  -0.00523   0.00000  -0.00885  -0.00911   3.13247
   D15       -0.00003  -0.00489   0.00000  -0.00485  -0.00512  -0.00515
   D16       -2.82516   0.01011   0.00000   0.01366   0.01419  -2.81097
   D17       -0.27624   0.01086   0.00000   0.02017   0.01993  -0.25630
   D18        2.86538   0.00741   0.00000   0.01875   0.01850   2.88389
   D19        2.86538   0.01044   0.00000   0.01535   0.01522   2.88060
   D20       -0.27618   0.00700   0.00000   0.01393   0.01379  -0.26240
   D21       -1.85093   0.00103   0.00000  -0.00256  -0.00234  -1.85327
   D22        1.29069  -0.00242   0.00000  -0.00398  -0.00377   1.28692
   D23        0.30370  -0.00407   0.00000  -0.00703  -0.00715   0.29654
   D24       -2.83791  -0.00973   0.00000  -0.01493  -0.01504  -2.85295
   D25       -2.83792  -0.00062   0.00000  -0.00561  -0.00571  -2.84364
   D26        0.30365  -0.00628   0.00000  -0.01352  -0.01360   0.29006
   D27        0.52438  -0.00706   0.00000  -0.00529  -0.00537   0.51900
   D28       -2.61723  -0.01122   0.00000  -0.01650  -0.01653  -2.63376
   D29       -2.61720  -0.00140   0.00000   0.00262   0.00250  -2.61470
   D30        0.52438  -0.00555   0.00000  -0.00859  -0.00865   0.51572
   D31       -0.30455  -0.00273   0.00000   0.00397   0.00399  -0.30055
   D32        2.83707   0.00122   0.00000   0.00809   0.00818   2.84524
   D33        2.83706   0.00142   0.00000   0.01518   0.01510   2.85216
   D34       -0.30451   0.00537   0.00000   0.01930   0.01928  -0.28523
   D35       -0.72518  -0.00921   0.00000  -0.02014  -0.02019  -0.74537
   D36        2.41641   0.00757   0.00000   0.01353   0.01361   2.43002
   D37        2.41640  -0.01316   0.00000  -0.02426  -0.02429   2.39211
   D38       -0.72520   0.00362   0.00000   0.00941   0.00951  -0.71569
         Item               Value     Threshold  Converged?
 Maximum Force            0.134562     0.000450     NO 
 RMS     Force            0.030201     0.000300     NO 
 Maximum Displacement     0.181722     0.001800     NO 
 RMS     Displacement     0.051291     0.001200     NO 
 Predicted change in Energy=-7.104200D-02
 GradGradGradGradGradGradGradGradGradGradGradGradGradGradGradGradGradGrad

                          Input orientation:                          
 ---------------------------------------------------------------------
 Center     Atomic      Atomic             Coordinates (Angstroms)
 Number     Number       Type             X           Y           Z
 ---------------------------------------------------------------------
      1          7           0        1.050645    0.023277    0.045111
      2         16           0        2.621228    0.072448    0.072543
      3          6           0        2.327624    2.477925   -0.897049
      4          6           0        3.228173    1.483811   -0.830435
      5          6           0        4.469380    1.660265   -1.437262
      6          6           0        5.618638    0.984802   -1.315419
      7          6           0        5.856126   -0.292294   -0.786402
      8          6           0        5.031848   -1.333102   -0.773279
      9          6           0        3.378288   -1.488819   -0.990312
     10         16           0        2.570290   -2.622391   -1.797088
     11          1           0        0.549472    0.728847    0.535417
     12          1           0        2.057478    1.206389   -0.626362
     13          1           0        1.892107    3.399544   -1.126303
     14          1           0        4.502458    2.467066   -2.109007
     15          1           0        6.471856    1.483486   -1.676267
     16          1           0        6.802677   -0.451186   -0.355896
     17          1           0        5.492502   -2.259650   -0.586572
 ---------------------------------------------------------------------
                    Distance matrix (angstroms):
                    1          2          3          4          5
     1  N    0.000000
     2  S    1.571591   0.000000
     3  C    2.922951   2.610102   0.000000
     4  C    2.764303   1.782049   1.343015   0.000000
     5  C    4.070001   2.866416   2.355317   1.392827   0.000000
     6  C    4.862318   3.426850   3.638025   2.489687   1.338615
     7  C    4.887089   3.366807   4.487391   3.172163   2.481767
     8  C    4.284799   2.915832   4.674620   3.345371   3.117289
     9  C    2.962509   2.034787   4.104589   2.980709   3.362584
    10  S    3.564067   3.280286   5.184803   4.269441   4.698634
    11  H    0.994688   2.222000   2.876293   3.100156   4.486055
    12  H    1.692437   1.446410   1.327801   1.220302   2.584731
    13  H    3.671437   3.610875   1.044803   2.354282   3.124760
    14  H    4.746298   3.745982   2.489752   2.055562   1.050363
    15  H    5.872383   4.458330   4.332522   3.352149   2.024422
    16  H    5.785482   4.235832   5.375745   4.092246   3.327439
    17  H    5.033972   3.757304   5.705915   4.381798   4.139587
                    6          7          8          9         10
     6  C    0.000000
     7  C    1.402581   0.000000
     8  C    2.451717   1.327738   0.000000
     9  C    3.353157   2.759154   1.674995   0.000000
    10  S    4.747238   4.153018   2.961371   1.608954   0.000000
    11  H    5.402551   5.563319   5.104509   3.904881   4.555775
    12  H    3.633973   4.086733   3.913754   3.023432   4.036475
    13  H    4.444522   5.427582   5.690390   5.111098   6.097014
    14  H    2.018104   3.346007   4.062720   4.261955   5.452810
    15  H    1.052082   2.079513   3.289708   4.344570   5.665248
    16  H    2.093966   1.051923   2.021836   3.633952   4.970339
    17  H    3.327701   2.010633   1.051453   2.286282   3.183748
                   11         12         13         14         15
    11  H    0.000000
    12  H    1.962616   0.000000
    13  H    3.420030   2.255487   0.000000
    14  H    5.063644   3.124976   2.940945   0.000000
    15  H    6.366762   4.545967   4.994781   2.243483   0.000000
    16  H    6.425691   5.033649   6.287714   4.108600   2.365540
    17  H    5.884176   4.879999   6.729088   5.063579   4.019656
                   16         17
    16  H    0.000000
    17  H    2.245064   0.000000
 Stoichiometry    C7H7NS2
 Framework group  C1[X(C7H7NS2)]
 Deg. of freedom    45
 Full point group                 C1      NOp   1
 Largest Abelian subgroup         C1      NOp   1
 Largest concise Abelian subgroup C1      NOp   1
                         Standard orientation:                         
 ---------------------------------------------------------------------
 Center     Atomic      Atomic             Coordinates (Angstroms)
 Number     Number       Type             X           Y           Z
 ---------------------------------------------------------------------
      1          7           0       -0.332628   -2.444746   -0.438943
      2         16           0        0.113492   -0.967558   -0.736926
      3          6           0        2.258556   -1.593364    0.612036
      4          6           0        1.535369   -0.524074    0.241485
      5          6           0        1.957931    0.742546    0.637822
      6          6           0        1.609672    1.964376    0.216232
      7          6           0        0.492829    2.371299   -0.528287
      8          6           0       -0.715579    1.821518   -0.547782
      9          6           0       -1.304017    0.329050   -0.066231
     10         16           0       -2.679069   -0.013791    0.695626
     11          1           0        0.268860   -3.184079   -0.723553
     12          1           0        0.993385   -1.616952    0.209741
     13          1           0        3.013073   -2.169972    1.047744
     14          1           0        2.676133    0.729785    1.404167
     15          1           0        2.268999    2.737408    0.489337
     16          1           0        0.621353    3.218509   -1.138416
     17          1           0       -1.472728    2.432000   -0.947267
 ---------------------------------------------------------------------
 Rotational constants (GHZ):           1.2325782           0.9878784           0.6289692
 Standard basis: 6-31G(2df,p) (6D, 7F)
 There are   353 symmetry adapted cartesian basis functions of A   symmetry.
 There are   323 symmetry adapted basis functions of A   symmetry.
   323 basis functions,   537 primitive gaussians,   353 cartesian basis functions
    44 alpha electrons       44 beta electrons
       nuclear repulsion energy       660.5797541375 Hartrees.
 NAtoms=   17 NActive=   17 NUniq=   17 SFac= 1.00D+00 NAtFMM=   60 NAOKFM=F Big=F
 Integral buffers will be    131072 words long.
 Raffenetti 2 integral format.
 Two-electron integral symmetry is turned on.
 One-electron integrals computed using PRISM.
 PrsmSu:  requested number of processors reduced to:  13 ShMem   1 Linda.
 NBasis=   323 RedAO= T EigKep=  3.57D-04  NBF=   323
 NBsUse=   323 1.00D-06 EigRej= -1.00D+00 NBFU=   323
 Initial guess from the checkpoint file:  "Nd[SH]12CdC1CdCCdCC2dS.chk"
 B after Tr=     0.000000    0.000000   -0.000000
         Rot=    0.999983   -0.001785   -0.005471    0.000944 Ang=  -0.67 deg.
 ExpMin= 1.17D-01 ExpMax= 2.19D+04 ExpMxC= 3.30D+03 IAcc=2 IRadAn=         4 AccDes= 0.00D+00
 Harris functional with IExCor=  402 and IRadAn=       4 diagonalized for initial guess.
 HarFok:  IExCor=  402 AccDes= 0.00D+00 IRadAn=         4 IDoV= 1 UseB2=F ITyADJ=14
 ICtDFT=  3500011 ScaDFX=  1.000000  1.000000  1.000000  1.000000
 FoFCou: FMM=F IPFlag=           0 FMFlag=      100000 FMFlg1=           0
         NFxFlg=           0 DoJE=T BraDBF=F KetDBF=T FulRan=T
         wScrn=  0.000000 ICntrl=       500 IOpCl=  0 I1Cent=   200000004 NGrid=           0
         NMat0=    1 NMatS0=      1 NMatT0=    0 NMatD0=    1 NMtDS0=    0 NMtDT0=    0
 Petite list used in FoFCou.
 Requested convergence on RMS density matrix=1.00D-08 within 128 cycles.
 Requested convergence on MAX density matrix=1.00D-06.
 Requested convergence on             energy=1.00D-06.
 No special actions if energy rises.
 Integral accuracy reduced to 1.0D-05 until final iterations.
 Initial convergence to 1.0D-05 achieved.  Increase integral accuracy.
 SCF Done:  E(RB3LYP) =  -1121.68758713     A.U. after   15 cycles
            NFock= 15  Conv=0.69D-08     -V/T= 2.0038
 PrsmSu:  requested number of processors reduced to:  13 ShMem   1 Linda.
 Calling FoFJK, ICntrl=      2127 FMM=F ISym2X=0 I1Cent= 0 IOpClX= 0 NMat=1 NMatS=1 NMatT=0.
 ***** Axes restored to original set *****
 -------------------------------------------------------------------
 Center     Atomic                   Forces (Hartrees/Bohr)
 Number     Number              X              Y              Z
 -------------------------------------------------------------------
      1        7           0.008057794   -0.021002984   -0.033660954
      2       16           0.046981127   -0.134995975    0.088315806
      3        6          -0.004443791   -0.083637329    0.028103003
      4        6           0.028081455    0.100585856   -0.047263184
      5        6           0.052073737   -0.029287424   -0.005725163
      6        6          -0.013420934    0.011563016    0.001579630
      7        6          -0.020473407    0.003084784    0.006622888
      8        6          -0.079578683   -0.017135734   -0.006808192
      9        6           0.058666820    0.030172921    0.002855304
     10       16           0.004218496    0.010754638    0.011877842
     11        1          -0.000173437    0.011635077    0.016429085
     12        1          -0.127024524    0.100666681   -0.045367217
     13        1          -0.003459779    0.016742692   -0.006296047
     14        1          -0.001588485    0.027555474   -0.008568714
     15        1           0.022313176    0.009971826   -0.013520080
     16        1           0.028684814   -0.009264035    0.000212147
     17        1           0.001085621   -0.027409483    0.011213845
 -------------------------------------------------------------------
 Cartesian Forces:  Max     0.134995975 RMS     0.044054325

 GradGradGradGradGradGradGradGradGradGradGradGradGradGradGradGradGradGrad
 Berny optimization.
 Using GEDIIS/GDIIS optimizer.
 FormGI is forming the generalized inverse of G from B-inverse, IUseBI=4.
 Internal  Forces:  Max     0.111466965 RMS     0.023768389
 Search for a local minimum.
 Step number   2 out of a maximum of   93
 All quantities printed in internal units (Hartrees-Bohrs-Radians)
 Mixed Optimization -- RFO/linear search
 Update second derivatives using D2CorX and points    1    2
 DE= -7.51D-02 DEPred=-7.10D-02 R= 1.06D+00
 TightC=F SS=  1.41D+00  RLast= 3.17D-01 DXNew= 5.0454D-01 9.4960D-01
 Trust test= 1.06D+00 RLast= 3.17D-01 DXMaxT set to 5.05D-01
 ITU=  1  0
 Use linear search instead of GDIIS.
 Linear search step of   0.600 exceeds DXMaxT=   0.505 but not scaled.
 Quartic linear search produced a step of  2.00000.
 Iteration  1 RMS(Cart)=  0.09675020 RMS(Int)=  0.01326617
 Iteration  2 RMS(Cart)=  0.01407386 RMS(Int)=  0.00169081
 Iteration  3 RMS(Cart)=  0.00014542 RMS(Int)=  0.00168815
 Iteration  4 RMS(Cart)=  0.00000015 RMS(Int)=  0.00168815
 Variable       Old X    -DE/DX   Delta X   Delta X   Delta X     New X
                                 (Linear)    (Quad)   (Total)
    R1        2.96988  -0.00729  -0.01364   0.00000  -0.01364   2.95624
    R2        1.87969   0.01644   0.03849   0.00000   0.03849   1.91818
    R3        3.36759   0.05571   0.14043   0.00000   0.13554   3.50312
    R4        3.84519  -0.02607  -0.08668   0.00000  -0.08638   3.75881
    R5        2.73332   0.11147   0.32659   0.00000   0.32997   3.06329
    R6        2.53793  -0.04530  -0.06572   0.00000  -0.06572   2.47221
    R7        1.97439   0.01759   0.04838   0.00000   0.04838   2.02277
    R8        2.63206   0.05832   0.14269   0.00000   0.14268   2.77474
    R9        2.30604   0.06201   0.15857   0.00000   0.16134   2.46738
   R10        2.52962   0.01157   0.03912   0.00000   0.03917   2.56879
   R11        1.98490   0.02660   0.06942   0.00000   0.06942   2.05431
   R12        2.65049   0.03112   0.08554   0.00000   0.08551   2.73601
   R13        1.98815   0.02746   0.07588   0.00000   0.07588   2.06403
   R14        2.50906   0.02375   0.05289   0.00000   0.05265   2.56171
   R15        1.98785   0.02730   0.07529   0.00000   0.07529   2.06313
   R16        3.16528  -0.07111  -0.23898   0.00000  -0.23919   2.92610
   R17        1.98696   0.02662   0.07352   0.00000   0.07352   2.06048
   R18        3.04048  -0.01565  -0.04155   0.00000  -0.04155   2.99893
    A1        2.06318  -0.01760  -0.06242   0.00000  -0.06242   2.00076
    A2        1.93511  -0.00435  -0.01510   0.00000  -0.01868   1.91642
    A3        1.91633  -0.01110  -0.05266   0.00000  -0.05236   1.86396
    A4        1.18811  -0.00950  -0.03011   0.00000  -0.02590   1.16221
    A5        1.78881   0.00595   0.01724   0.00000   0.01769   1.80650
    A6        2.08765   0.01229   0.01881   0.00000   0.01810   2.10575
    A7        2.80333  -0.00934  -0.02533   0.00000  -0.02533   2.77800
    A8        1.96383  -0.02499  -0.06866   0.00000  -0.07193   1.89190
    A9        2.24543  -0.02616  -0.08287   0.00000  -0.07809   2.16734
   A10        2.07392   0.05115   0.15152   0.00000   0.14997   2.22389
   A11        1.08523  -0.05224  -0.15193   0.00000  -0.14897   0.93626
   A12        2.84582   0.00045  -0.01256   0.00000  -0.00801   2.83781
   A13        2.29361   0.00152  -0.00255   0.00000  -0.00368   2.28994
   A14        1.98669  -0.00612  -0.01492   0.00000  -0.01436   1.97233
   A15        2.00288   0.00460   0.01746   0.00000   0.01803   2.02091
   A16        2.26419  -0.00501  -0.01221   0.00000  -0.01341   2.25078
   A17        2.01071   0.00379   0.00853   0.00000   0.00905   2.01976
   A18        2.00825   0.00119   0.00363   0.00000   0.00417   2.01243
   A19        2.22986   0.00611   0.02611   0.00000   0.02494   2.25480
   A20        2.03114  -0.00165  -0.00411   0.00000  -0.00367   2.02747
   A21        2.02214  -0.00450  -0.02210   0.00000  -0.02164   2.00050
   A22        2.32466  -0.00133  -0.01883   0.00000  -0.02037   2.30430
   A23        2.00484   0.01132   0.06057   0.00000   0.06132   2.06616
   A24        1.95368  -0.01000  -0.04175   0.00000  -0.04100   1.91267
   A25        1.80111   0.02089   0.05660   0.00000   0.05496   1.85608
   A26        2.23402  -0.01665  -0.04235   0.00000  -0.04306   2.19096
   A27        2.24751  -0.00469  -0.01536   0.00000  -0.01621   2.23129
    D1       -1.18629  -0.00964  -0.03570   0.00000  -0.03607  -1.22236
    D2        3.13274  -0.00818  -0.01770   0.00000  -0.01953   3.11321
    D3       -1.14483   0.00640   0.00977   0.00000   0.01197  -1.13286
    D4        0.43075   0.01139   0.05833   0.00000   0.05658   0.48733
    D5       -2.71529   0.01274   0.04938   0.00000   0.04985  -2.66543
    D6        2.47477  -0.00018  -0.00019   0.00000  -0.00254   2.47222
    D7       -0.67128   0.00117  -0.00913   0.00000  -0.00927  -0.68054
    D8       -3.08191   0.00760   0.03643   0.00000   0.03534  -3.04656
    D9        0.02625  -0.00598  -0.03046   0.00000  -0.03033  -0.00408
   D10        1.14389   0.01438   0.06820   0.00000   0.07029   1.21418
   D11       -2.03113   0.00080   0.00132   0.00000   0.00461  -2.02652
   D12        1.88512   0.02146   0.09275   0.00000   0.08911   1.97423
   D13       -1.28991   0.00787   0.02587   0.00000   0.02343  -1.26648
   D14        3.13247  -0.00228  -0.01821   0.00000  -0.01987   3.11261
   D15       -0.00515  -0.00329  -0.01024   0.00000  -0.01219  -0.01735
   D16       -2.81097   0.00572   0.02838   0.00000   0.03199  -2.77898
   D17       -0.25630   0.01003   0.03987   0.00000   0.03849  -0.21782
   D18        2.88389   0.00743   0.03701   0.00000   0.03554   2.91942
   D19        2.88060   0.01127   0.03044   0.00000   0.02982   2.91042
   D20       -0.26240   0.00867   0.02758   0.00000   0.02687  -0.23552
   D21       -1.85327  -0.00218  -0.00467   0.00000  -0.00338  -1.85665
   D22        1.28692  -0.00477  -0.00753   0.00000  -0.00633   1.28059
   D23        0.29654  -0.00353  -0.01431   0.00000  -0.01498   0.28156
   D24       -2.85295  -0.00837  -0.03008   0.00000  -0.03065  -2.88360
   D25       -2.84364  -0.00091  -0.01142   0.00000  -0.01194  -2.85558
   D26        0.29006  -0.00575  -0.02719   0.00000  -0.02762   0.26244
   D27        0.51900  -0.00539  -0.01075   0.00000  -0.01121   0.50779
   D28       -2.63376  -0.00948  -0.03306   0.00000  -0.03328  -2.66704
   D29       -2.61470  -0.00057   0.00500   0.00000   0.00438  -2.61032
   D30        0.51572  -0.00467  -0.01731   0.00000  -0.01769   0.49804
   D31       -0.30055  -0.00131   0.00798   0.00000   0.00800  -0.29255
   D32        2.84524   0.00167   0.01636   0.00000   0.01677   2.86201
   D33        2.85216   0.00275   0.03019   0.00000   0.02970   2.88186
   D34       -0.28523   0.00573   0.03857   0.00000   0.03846  -0.24677
   D35       -0.74537  -0.00716  -0.04039   0.00000  -0.04079  -0.78616
   D36        2.43002   0.00689   0.02721   0.00000   0.02756   2.45757
   D37        2.39211  -0.01003  -0.04858   0.00000  -0.04879   2.34332
   D38       -0.71569   0.00402   0.01902   0.00000   0.01956  -0.69613
         Item               Value     Threshold  Converged?
 Maximum Force            0.111467     0.000450     NO 
 RMS     Force            0.023768     0.000300     NO 
 Maximum Displacement     0.349080     0.001800     NO 
 RMS     Displacement     0.101046     0.001200     NO 
 Predicted change in Energy=-1.018476D-01
 GradGradGradGradGradGradGradGradGradGradGradGradGradGradGradGradGradGrad

                          Input orientation:                          
 ---------------------------------------------------------------------
 Center     Atomic      Atomic             Coordinates (Angstroms)
 Number     Number       Type             X           Y           Z
 ---------------------------------------------------------------------
      1          7           0        1.111261   -0.062718   -0.003872
      2         16           0        2.666893    0.078632    0.081550
      3          6           0        2.237377    2.448834   -0.854634
      4          6           0        3.213938    1.578330   -0.860851
      5          6           0        4.537016    1.726143   -1.480216
      6          6           0        5.676200    0.997177   -1.343531
      7          6           0        5.847589   -0.328148   -0.786433
      8          6           0        4.972308   -1.362728   -0.752191
      9          6           0        3.439195   -1.430784   -0.958467
     10         16           0        2.607232   -2.551366   -1.713846
     11          1           0        0.593463    0.640488    0.513551
     12          1           0        1.947888    1.319925   -0.673390
     13          1           0        1.707382    3.359117   -1.045039
     14          1           0        4.593479    2.567743   -2.166001
     15          1           0        6.586960    1.465162   -1.723649
     16          1           0        6.826336   -0.545945   -0.354503
     17          1           0        5.356271   -2.359442   -0.533059
 ---------------------------------------------------------------------
                    Distance matrix (angstroms):
                    1          2          3          4          5
     1  N    0.000000
     2  S    1.564374   0.000000
     3  C    2.880941   2.584334   0.000000
     4  C    2.801553   1.853773   1.308238   0.000000
     5  C    4.137077   2.941219   2.490376   1.468331   0.000000
     6  C    4.874088   3.454057   3.764550   2.575550   1.359344
     7  C    4.807874   3.322001   4.555207   3.252125   2.533584
     8  C    4.142184   2.843867   4.692371   3.428337   3.203222
     9  C    2.863937   1.989076   4.062830   3.019112   3.382843
    10  S    3.369763   3.184948   5.086947   4.260291   4.698482
    11  H    1.015057   2.191214   2.800803   3.104097   4.550315
    12  H    1.749257   1.621022   1.179444   1.305679   2.742182
    13  H    3.626064   3.598812   1.070404   2.339837   3.295878
    14  H    4.870314   3.867673   2.699081   2.141375   1.087096
    15  H    5.939303   4.533005   4.543310   3.483462   2.080779
    16  H    5.746175   4.228617   5.502488   4.221179   3.416226
    17  H    4.855418   3.681671   5.740246   4.494784   4.273206
                    6          7          8          9         10
     6  C    0.000000
     7  C    1.447832   0.000000
     8  C    2.532647   1.355598   0.000000
     9  C    3.323772   2.654386   1.548424   0.000000
    10  S    4.706151   4.037662   2.816243   1.586967   0.000000
    11  H    5.423117   5.498550   4.978881   3.815127   4.382293
    12  H    3.801785   4.235161   4.043508   3.141921   4.062533
    13  H    4.628108   5.550145   5.748158   5.094097   6.015882
    14  H    2.077359   3.444152   4.194160   4.333443   5.509528
    15  H    1.092238   2.154299   3.398205   4.345162   5.654275
    16  H    2.163842   1.091762   2.064634   3.552526   4.865220
    17  H    3.467868   2.105172   1.090360   2.172224   2.998051
                   11         12         13         14         15
    11  H    0.000000
    12  H    1.924819   0.000000
    13  H    3.325802   2.086688   0.000000
    14  H    5.185984   3.283913   3.195682   0.000000
    15  H    6.450361   4.758690   5.278055   2.320631   0.000000
    16  H    6.403893   5.232821   6.475341   4.238187   2.444670
    17  H    5.725322   5.017421   6.802825   5.246475   4.190429
                   16         17
    16  H    0.000000
    17  H    2.341312   0.000000
 Stoichiometry    C7H7NS2
 Framework group  C1[X(C7H7NS2)]
 Deg. of freedom    45
 Full point group                 C1      NOp   1
 Largest Abelian subgroup         C1      NOp   1
 Largest concise Abelian subgroup C1      NOp   1
                         Standard orientation:                         
 ---------------------------------------------------------------------
 Center     Atomic      Atomic             Coordinates (Angstroms)
 Number     Number       Type             X           Y           Z
 ---------------------------------------------------------------------
      1          7           0       -0.455202   -2.364686   -0.397225
      2         16           0        0.081797   -0.937473   -0.746456
      3          6           0        2.195899   -1.711932    0.522232
      4          6           0        1.603399   -0.577894    0.249487
      5          6           0        2.039585    0.771135    0.631401
      6          6           0        1.634659    1.997101    0.206124
      7          6           0        0.437371    2.357919   -0.523623
      8          6           0       -0.780650    1.762899   -0.518950
      9          6           0       -1.249452    0.364565   -0.047245
     10         16           0       -2.593271   -0.007400    0.710552
     11          1           0        0.127144   -3.128126   -0.726425
     12          1           0        1.045547   -1.758285    0.266048
     13          1           0        2.926711   -2.390808    0.910568
     14          1           0        2.819202    0.767028    1.389002
     15          1           0        2.291429    2.830034    0.466619
     16          1           0        0.505055    3.250663   -1.148419
     17          1           0       -1.629959    2.317500   -0.918920
 ---------------------------------------------------------------------
 Rotational constants (GHZ):           1.2411859           1.0095232           0.6375788
 Standard basis: 6-31G(2df,p) (6D, 7F)
 There are   353 symmetry adapted cartesian basis functions of A   symmetry.
 There are   323 symmetry adapted basis functions of A   symmetry.
   323 basis functions,   537 primitive gaussians,   353 cartesian basis functions
    44 alpha electrons       44 beta electrons
       nuclear repulsion energy       661.3901207726 Hartrees.
 NAtoms=   17 NActive=   17 NUniq=   17 SFac= 1.00D+00 NAtFMM=   60 NAOKFM=F Big=F
 Integral buffers will be    131072 words long.
 Raffenetti 2 integral format.
 Two-electron integral symmetry is turned on.
 One-electron integrals computed using PRISM.
 PrsmSu:  requested number of processors reduced to:  13 ShMem   1 Linda.
 NBasis=   323 RedAO= T EigKep=  3.84D-04  NBF=   323
 NBsUse=   323 1.00D-06 EigRej= -1.00D+00 NBFU=   323
 Initial guess from the checkpoint file:  "Nd[SH]12CdC1CdCCdCC2dS.chk"
 B after Tr=     0.000000    0.000000   -0.000000
         Rot=    0.999927   -0.003321   -0.010479    0.005085 Ang=  -1.39 deg.
 ExpMin= 1.17D-01 ExpMax= 2.19D+04 ExpMxC= 3.30D+03 IAcc=2 IRadAn=         4 AccDes= 0.00D+00
 Harris functional with IExCor=  402 and IRadAn=       4 diagonalized for initial guess.
 HarFok:  IExCor=  402 AccDes= 0.00D+00 IRadAn=         4 IDoV= 1 UseB2=F ITyADJ=14
 ICtDFT=  3500011 ScaDFX=  1.000000  1.000000  1.000000  1.000000
 FoFCou: FMM=F IPFlag=           0 FMFlag=      100000 FMFlg1=           0
         NFxFlg=           0 DoJE=T BraDBF=F KetDBF=T FulRan=T
         wScrn=  0.000000 ICntrl=       500 IOpCl=  0 I1Cent=   200000004 NGrid=           0
         NMat0=    1 NMatS0=      1 NMatT0=    0 NMatD0=    1 NMtDS0=    0 NMtDT0=    0
 Petite list used in FoFCou.
 Requested convergence on RMS density matrix=1.00D-08 within 128 cycles.
 Requested convergence on MAX density matrix=1.00D-06.
 Requested convergence on             energy=1.00D-06.
 No special actions if energy rises.
 Integral accuracy reduced to 1.0D-05 until final iterations.
 Initial convergence to 1.0D-05 achieved.  Increase integral accuracy.
 SCF Done:  E(RB3LYP) =  -1121.79087408     A.U. after   15 cycles
            NFock= 15  Conv=0.63D-08     -V/T= 2.0043
 PrsmSu:  requested number of processors reduced to:  13 ShMem   1 Linda.
 Calling FoFJK, ICntrl=      2127 FMM=F ISym2X=0 I1Cent= 0 IOpClX= 0 NMat=1 NMatS=1 NMatT=0.
 ***** Axes restored to original set *****
 -------------------------------------------------------------------
 Center     Atomic                   Forces (Hartrees/Bohr)
 Number     Number              X              Y              Z
 -------------------------------------------------------------------
      1        7          -0.004518210   -0.003280747   -0.021061511
      2       16           0.047446768   -0.089532060    0.050305169
      3        6          -0.015025797   -0.040735387    0.006639069
      4        6           0.085146407    0.047089079   -0.045865871
      5        6           0.015302193   -0.011078488    0.005553528
      6        6          -0.011597472    0.003597049    0.002403342
      7        6          -0.006316898   -0.000371191    0.009305671
      8        6          -0.038599159   -0.008253419   -0.000820971
      9        6           0.044434497    0.037775035    0.012511189
     10       16          -0.009916026   -0.006643915   -0.001446690
     11        1           0.005308050   -0.003504467    0.008836531
     12        1          -0.117692017    0.071233825   -0.019866348
     13        1           0.007187020    0.001028974   -0.002843557
     14        1          -0.001133064    0.005810091    0.006092803
     15        1          -0.002137775   -0.004708250   -0.002437513
     16        1           0.001839081   -0.001697304   -0.011245756
     17        1           0.000272402    0.003271175    0.003940915
 -------------------------------------------------------------------
 Cartesian Forces:  Max     0.117692017 RMS     0.032073767

 GradGradGradGradGradGradGradGradGradGradGradGradGradGradGradGradGradGrad
 Berny optimization.
 Using GEDIIS/GDIIS optimizer.
 FormGI is forming the generalized inverse of G from B-inverse, IUseBI=4.
 Internal  Forces:  Max     0.076890907 RMS     0.015354397
 Search for a local minimum.
 Step number   3 out of a maximum of   93
 All quantities printed in internal units (Hartrees-Bohrs-Radians)
 Mixed Optimization -- RFO/linear search
 Update second derivatives using D2CorX and points    2    3
 ITU=  0  1  0
 Use linear search instead of GDIIS.
 Linear search step of   0.614 exceeds DXMaxT=   0.505 but not scaled.
 Quartic linear search produced a step of  1.02426.
 Iteration  1 RMS(Cart)=  0.09722617 RMS(Int)=  0.01472704
 Iteration  2 RMS(Cart)=  0.01571921 RMS(Int)=  0.00218296
 Iteration  3 RMS(Cart)=  0.00015899 RMS(Int)=  0.00218033
 Iteration  4 RMS(Cart)=  0.00000027 RMS(Int)=  0.00218033
 Variable       Old X    -DE/DX   Delta X   Delta X   Delta X     New X
                                 (Linear)    (Quad)   (Total)
    R1        2.95624   0.00049  -0.01397   0.00000  -0.01397   2.94227
    R2        1.91818  -0.00063   0.03942   0.00000   0.03942   1.95760
    R3        3.50312   0.03147   0.13883   0.00000   0.13455   3.63767
    R4        3.75881  -0.02605  -0.08848   0.00000  -0.08791   3.67090
    R5        3.06329   0.07689   0.33797   0.00000   0.34085   3.40414
    R6        2.47221  -0.02055  -0.06731   0.00000  -0.06731   2.40490
    R7        2.02277  -0.00218   0.04955   0.00000   0.04955   2.07232
    R8        2.77474  -0.00218   0.14614   0.00000   0.14617   2.92092
    R9        2.46738   0.06848   0.16525   0.00000   0.16786   2.63523
   R10        2.56879  -0.01308   0.04012   0.00000   0.03998   2.60877
   R11        2.05431   0.00060   0.07110   0.00000   0.07110   2.12541
   R12        2.73601  -0.00594   0.08759   0.00000   0.08724   2.82324
   R13        2.06403  -0.00295   0.07772   0.00000   0.07772   2.14175
   R14        2.56171  -0.00929   0.05393   0.00000   0.05341   2.61512
   R15        2.06313  -0.00246   0.07711   0.00000   0.07711   2.14024
   R16        2.92610  -0.04350  -0.24499   0.00000  -0.24520   2.68090
   R17        2.06048  -0.00210   0.07531   0.00000   0.07531   2.13579
   R18        2.99893   0.01058  -0.04256   0.00000  -0.04256   2.95637
    A1        2.00076  -0.01093  -0.06394   0.00000  -0.06394   1.93682
    A2        1.91642   0.00195  -0.01914   0.00000  -0.02360   1.89282
    A3        1.86396  -0.00805  -0.05363   0.00000  -0.05328   1.81068
    A4        1.16221  -0.00789  -0.02653   0.00000  -0.02108   1.14113
    A5        1.80650  -0.00162   0.01812   0.00000   0.01852   1.82502
    A6        2.10575   0.01179   0.01854   0.00000   0.01905   2.12479
    A7        2.77800  -0.01512  -0.02595   0.00000  -0.02595   2.75205
    A8        1.89190  -0.00978  -0.07368   0.00000  -0.07719   1.81471
    A9        2.16734  -0.01621  -0.07999   0.00000  -0.07415   2.09319
   A10        2.22389   0.02601   0.15361   0.00000   0.15126   2.37515
   A11        0.93626  -0.03059  -0.15259   0.00000  -0.14823   0.78802
   A12        2.83781   0.01007  -0.00820   0.00000  -0.00090   2.83691
   A13        2.28994   0.00536  -0.00377   0.00000  -0.00484   2.28510
   A14        1.97233  -0.00631  -0.01470   0.00000  -0.01418   1.95816
   A15        2.02091   0.00094   0.01846   0.00000   0.01900   2.03991
   A16        2.25078   0.00374  -0.01374   0.00000  -0.01538   2.23540
   A17        2.01976   0.00010   0.00927   0.00000   0.00997   2.02973
   A18        2.01243  -0.00390   0.00427   0.00000   0.00502   2.01745
   A19        2.25480   0.00018   0.02555   0.00000   0.02380   2.27860
   A20        2.02747  -0.00167  -0.00376   0.00000  -0.00309   2.02438
   A21        2.00050   0.00138  -0.02217   0.00000  -0.02144   1.97905
   A22        2.30430  -0.00078  -0.02086   0.00000  -0.02264   2.28166
   A23        2.06616  -0.00145   0.06280   0.00000   0.06366   2.12982
   A24        1.91267   0.00222  -0.04199   0.00000  -0.04113   1.87154
   A25        1.85608   0.01052   0.05630   0.00000   0.05446   1.91054
   A26        2.19096  -0.01270  -0.04411   0.00000  -0.04518   2.14578
   A27        2.23129   0.00140  -0.01661   0.00000  -0.01794   2.21335
    D1       -1.22236  -0.01363  -0.03695   0.00000  -0.03733  -1.25969
    D2        3.11321  -0.00859  -0.02000   0.00000  -0.02295   3.09027
    D3       -1.13286   0.00608   0.01226   0.00000   0.01559  -1.11728
    D4        0.48733   0.00594   0.05795   0.00000   0.05534   0.54268
    D5       -2.66543   0.00840   0.05106   0.00000   0.05149  -2.61394
    D6        2.47222  -0.00324  -0.00260   0.00000  -0.00600   2.46622
    D7       -0.68054  -0.00078  -0.00949   0.00000  -0.00985  -0.69039
    D8       -3.04656   0.00400   0.03620   0.00000   0.03494  -3.01163
    D9       -0.00408  -0.00354  -0.03107   0.00000  -0.03112  -0.03520
   D10        1.21418   0.00586   0.07199   0.00000   0.07485   1.28903
   D11       -2.02652  -0.00168   0.00472   0.00000   0.00879  -2.01773
   D12        1.97423   0.01595   0.09127   0.00000   0.08727   2.06149
   D13       -1.26648   0.00841   0.02400   0.00000   0.02121  -1.24526
   D14        3.11261   0.00276  -0.02035   0.00000  -0.02318   3.08943
   D15       -0.01735   0.00056  -0.01249   0.00000  -0.01605  -0.03339
   D16       -2.77898  -0.00362   0.03276   0.00000   0.03915  -2.73983
   D17       -0.21782   0.00797   0.03942   0.00000   0.03775  -0.18007
   D18        2.91942   0.00650   0.03640   0.00000   0.03460   2.95402
   D19        2.91042   0.01060   0.03055   0.00000   0.03008   2.94051
   D20       -0.23552   0.00913   0.02753   0.00000   0.02693  -0.20859
   D21       -1.85665  -0.00530  -0.00346   0.00000  -0.00206  -1.85871
   D22        1.28059  -0.00677  -0.00648   0.00000  -0.00522   1.27538
   D23        0.28156  -0.00249  -0.01534   0.00000  -0.01612   0.26544
   D24       -2.88360  -0.00612  -0.03140   0.00000  -0.03217  -2.91577
   D25       -2.85558  -0.00098  -0.01223   0.00000  -0.01278  -2.86836
   D26        0.26244  -0.00460  -0.02829   0.00000  -0.02882   0.23362
   D27        0.50779  -0.00264  -0.01149   0.00000  -0.01216   0.49562
   D28       -2.66704  -0.00696  -0.03409   0.00000  -0.03454  -2.70158
   D29       -2.61032   0.00093   0.00449   0.00000   0.00373  -2.60659
   D30        0.49804  -0.00339  -0.01811   0.00000  -0.01865   0.47939
   D31       -0.29255   0.00038   0.00820   0.00000   0.00798  -0.28457
   D32        2.86201   0.00144   0.01717   0.00000   0.01756   2.87957
   D33        2.88186   0.00469   0.03042   0.00000   0.02963   2.91149
   D34       -0.24677   0.00575   0.03939   0.00000   0.03921  -0.20756
   D35       -0.78616  -0.00376  -0.04178   0.00000  -0.04250  -0.82866
   D36        2.45757   0.00506   0.02823   0.00000   0.02857   2.48615
   D37        2.34332  -0.00477  -0.04997   0.00000  -0.05040   2.29292
   D38       -0.69613   0.00405   0.02003   0.00000   0.02067  -0.67546
         Item               Value     Threshold  Converged?
 Maximum Force            0.076891     0.000450     NO 
 RMS     Force            0.015354     0.000300     NO 
 Maximum Displacement     0.330652     0.001800     NO 
 RMS     Displacement     0.101709     0.001200     NO 
 Predicted change in Energy=-4.017549D-02
 GradGradGradGradGradGradGradGradGradGradGradGradGradGradGradGradGradGrad

                          Input orientation:                          
 ---------------------------------------------------------------------
 Center     Atomic      Atomic             Coordinates (Angstroms)
 Number     Number       Type             X           Y           Z
 ---------------------------------------------------------------------
      1          7           0        1.184524   -0.142470   -0.059986
      2         16           0        2.717565    0.084995    0.089141
      3          6           0        2.160029    2.404586   -0.814713
      4          6           0        3.196551    1.670296   -0.892138
      5          6           0        4.602707    1.791853   -1.522283
      6          6           0        5.731996    1.012372   -1.370948
[...]
   yx        -0.428688D+02     -0.635250D+01     -0.706811D+01
   yy         0.126560D+03      0.187542D+02      0.208669D+02
   zx         0.163180D+00      0.241808D-01      0.269048D-01
   zy         0.176770D+02      0.261946D+01      0.291454D+01
   zz         0.166032D+03      0.246034D+02      0.273749D+02

 ----------------------------------------------------------------------
 1\1\GINC-LEWIS4-R630-HPC4RC-NODE378\Freq\RB3LYP\6-31G(2df,p)\C7H7N1S2\
 CZ9N3\15-May-2023\0\\#N Geom=AllCheck Guess=TCheck SCRF=Check GenChk R
 B3LYP/6-31G(2df,p) Freq\\Title Card Required\\0,1\N,1.1732736887,0.100
 0524253,0.1578398468\S,2.7465101715,0.1635863698,0.2162696238\C,2.1542
 465166,2.2408592161,-1.385292147\C,3.1702726521,1.4969483104,-0.930165
 7721\C,4.5633322443,1.8371831616,-1.1414377642\C,5.6712783045,1.064671
 9916,-1.0890809392\C,5.8108822466,-0.3691165213,-1.0050615879\C,4.8999
 01775,-1.3732636417,-0.9205457152\C,3.4746535471,-1.3168136369,-0.7169
 382105\S,2.4623630769,-2.5663779913,-0.9605561395\H,0.8699307303,-0.20
 52509451,1.081456071\H,1.1321655953,1.9619607317,-1.1564320606\H,2.345
 9297486,3.1223315189,-1.9887414503\H,4.7165748172,2.8850611417,-1.3901
 356497\H,6.6117976691,1.5855703867,-1.2453878065\H,6.8381516112,-0.703
 8641251,-1.1314632236\H,5.2795256052,-2.3831183926,-1.0489070754\\Vers
 ion=ES64L-G16RevA.03\State=1-A\HF=-1121.9747439\RMSD=5.194e-09\RMSF=9.
 719e-06\ZeroPoint=0.122323\Thermal=0.1321718\Dipole=1.4291838,1.087502
 1,-0.02145\DipoleDeriv=-0.906307,0.0877666,0.4201781,-0.0394644,-0.227
 0949,-0.0077326,-0.0058275,0.0067324,-0.2517236,0.6374128,-0.1219897,-
 0.4750638,0.0491383,0.019963,-0.033932,-0.1884439,-0.0323863,0.3020216
 ,-0.0532559,0.0158695,-0.0060798,-0.0297973,-0.027217,-0.0605933,0.002
 348,-0.0839505,-0.1123552,-0.2139179,0.2200113,0.023021,0.0890487,-0.0
 491931,-0.166286,0.0114296,-0.039402,-0.0687983,0.2965679,-0.3526503,-
 0.0113289,-0.0229903,0.0636469,0.0067971,0.0411932,-0.0298042,-0.06958
 67,-0.0214371,0.5070023,-0.0496503,0.1291709,-0.246501,-0.012351,-0.05
 16459,0.0679395,-0.1068937,0.2040148,-0.1183245,-0.0207976,0.0612997,0
 .6420155,-0.0536333,0.0033376,-0.0481685,-0.0372798,-0.4226885,-0.5887
 188,0.0764389,-0.0869291,-0.3038794,-0.0449274,0.0763652,0.0823716,-0.
 0676402,0.5282,0.907409,0.0146956,0.1155102,0.8121177,0.3280272,0.0381
 691,0.0895003,-0.0784322,-0.3208966,-0.4926843,-0.0200156,-0.2196183,-
 0.8334691,-0.1194195,-0.0281982,-0.086188,-0.1396954,0.2496739,0.00523
 82,-0.0567228,0.0009801,0.097952,0.0433,0.0215115,0.0253282,0.0649582,
 0.0965451,-0.0128152,-0.0028997,-0.0127178,0.0678182,0.0018246,0.02995
 61,-0.0389659,0.1090644,0.0839939,-0.0511546,0.0310487,-0.0236483,0.03
 52225,0.0832907,0.0046929,0.1148408,0.0865396,0.0114268,-0.0087376,0.0
 140027,-0.038218,-0.0627348,0.040525,0.0084836,-0.0195787,0.0954893,-0
 .063887,-0.0624458,0.0183916,-0.0550899,-0.0021228,0.0142396,0.0258211
 ,0.0347939,0.0974096,-0.0782392,0.0489021,0.0117435,0.0347838,0.034987
 5,-0.0016935,0.031514,-0.0059101,0.0808366,-0.0272059,0.0173218,0.0330
 384,0.0485415,-0.0215111,-0.0174356,-0.0207062,-0.0371525,0.0960859\Po
 lar=149.7498283,7.0778096,174.8059473,-9.1303933,-7.7897984,69.8327341
 \Quadrupole=0.2984166,0.516358,-0.8147746,-1.1848017,-1.7691553,-2.979
 4763\PG=C01 [X(C7H7N1S2)]\NImag=0\\0.39969080,0.06085650,0.07622125,-0
 .13566067,-0.13188810,0.41188063,-0.31742228,-0.02917771,-0.00159412,0
 .45778512,-0.00915836,-0.03532350,0.01167431,0.01878649,0.20589597,-0.
 01184621,0.01316391,-0.05510583,-0.01466234,-0.05476869,0.19093191,-0.
 00206077,0.00056629,0.00080310,0.01128596,0.00333965,-0.00627930,0.740
 26036,-0.00033994,-0.00156677,0.00067808,0.01437566,-0.02758828,0.0231
 1911,-0.06957666,0.52516456,-0.00173117,0.00132486,-0.00012793,-0.0089
 2544,0.02509274,-0.01213946,0.02433269,-0.27887559,0.30070693,-0.01308
 020,-0.01673386,0.03103351,-0.05894242,0.01670426,-0.00448033,-0.32587
 862,0.16891773,-0.10598756,0.68682451,0.00124438,-0.00127404,0.0036742
 5,-0.01469836,-0.06811572,0.03207656,0.16247521,-0.20679373,0.09585290
 ,-0.12461179,0.38454399,0.00517627,-0.00345323,0.00116051,0.01962702,0
 .04810005,-0.08364237,-0.09754552,0.09288368,-0.11039249,0.05900635,-0
 .16460887,0.23165202,-0.00083322,0.00258123,-0.00270239,-0.00008395,-0
 .01017131,0.00449461,-0.05078039,0.01050369,-0.00277189,-0.22468160,-0
 .04065364,0.03053086,0.69942002,-0.00284634,-0.00048288,0.00664784,-0.
 01871609,-0.00429839,0.00072280,0.02357883,0.00804324,-0.00182846,-0.0
 5484187,-0.09775014,0.01706495,-0.10638610,0.65038753,0.00143104,0.001
 18964,-0.00348955,0.01274007,0.00318901,0.00002398,-0.01103407,-0.0017
 2892,0.00707804,0.02793564,0.01598547,-0.07022360,-0.03067152,-0.10886
 243,0.16330355,0.00132758,-0.00185809,0.00087785,-0.00296069,0.0037632
 6,0.00008473,0.00333637,-0.00978072,0.00536598,-0.04501016,0.02041605,
 -0.00559413,-0.34172903,0.17874431,-0.00962349,0.73832224,-0.00201946,
 0.00124338,-0.00061083,0.00388889,0.00034003,-0.00162710,-0.01025417,0
 .00628046,-0.00184028,0.01328421,0.00923019,0.00159162,0.13779683,-0.2
 1931066,0.02303569,-0.07324728,0.63366808,-0.00027902,-0.00046064,0.00
 015105,-0.00026947,0.00060253,0.00042737,0.00228829,-0.00010140,0.0022
 6761,-0.00311065,-0.00289203,0.00532678,0.00253828,0.01599306,-0.05671
 674,-0.03802017,-0.05408918,0.13463717,0.00071605,0.00021298,-0.000238
 53,-0.00161161,-0.00127600,0.00089369,0.00151968,-0.00093631,0.0003368
 5,-0.00144779,0.00095448,-0.00092402,0.00994195,0.02452149,-0.00507930
 ,-0.11084562,0.03948550,0.00491528,0.68386482,0.00258192,-0.00276861,0
 .00185527,-0.00397034,0.00143026,-0.00035214,0.00375616,-0.00729660,0.
 00373129,-0.01458449,0.00564113,-0.00477808,0.04216879,-0.03355314,0.0
 0017192,-0.01778823,-0.24300841,0.01674239,0.07672466,0.67211451,-0.00
 026254,0.00050222,0.00029928,0.00125207,-0.00074920,-0.00196584,-0.000
 79543,0.00042436,-0.00007021,0.00041417,-0.00117433,-0.00513681,-0.004
 97168,0.00324947,0.00436378,0.00894386,0.00296498,-0.06269072,-0.06171
 587,-0.02093353,0.14531556,-0.00153795,0.00130301,-0.00193186,-0.00431
 098,0.00822593,0.00537517,-0.00145823,0.00503129,-0.00257385,0.0057326
 9,-0.00420740,0.00410475,-0.01861032,0.00890296,-0.00017593,0.02655846
 ,-0.03042562,-0.00080568,-0.25227795,-0.12715996,0.02556943,0.61724507
 ,0.00612130,0.00061521,-0.00513950,0.01367981,0.00487034,0.00008051,-0
 .00018417,0.00178900,-0.00042675,0.00145801,0.00046048,0.00097299,-0.0
 1253537,0.00457679,0.00047725,-0.01270350,-0.04042115,0.00305452,-0.18
 080993,-0.28910656,0.01732372,0.07872085,0.70634469,0.00102491,-0.0043
 8561,-0.00134275,0.00776164,-0.00253129,0.00604044,-0.00028568,-0.0008
 0894,0.00075831,0.00081215,-0.00103855,-0.00043466,0.00453291,-0.00096
 901,-0.00169086,-0.00490203,0.00689614,0.00557314,0.02054924,0.0044544
 9,-0.05643592,-0.06891996,0.03155080,0.13267174,-0.01593791,0.00742567
 ,0.02034290,-0.04709746,-0.00877861,-0.00407595,-0.00061985,-0.0072896
 5,0.00399114,0.00490834,0.00504638,-0.01049870,0.01452746,-0.00211797,
 0.00134583,-0.01051646,0.01787547,-0.00184310,-0.03874178,-0.03569120,
 0.00066632,-0.22839316,0.04004310,0.02636192,0.49443251,-0.01207560,-0
 .00545093,-0.00505357,0.01893310,-0.03093260,0.00564804,-0.00049184,0.
 00373104,-0.00354737,-0.00117621,-0.01833007,-0.00009798,-0.00047734,-
 0.00051379,-0.00087284,-0.00027261,0.00400459,-0.00070617,-0.02844912,
 0.00282750,0.00390071,0.01527148,-0.08073141,-0.00588255,0.11596614,0.
 31785582,0.00272688,0.00441982,0.00461303,0.01241015,-0.01592536,-0.05
 345523,0.00375871,0.00506923,-0.00280612,-0.00971811,0.00886751,0.0118
 2881,-0.00226258,0.00053459,-0.00059924,0.00052845,-0.00083678,-0.0055
 1828,0.00120581,0.00235220,0.00297011,0.02986447,-0.00989293,-0.066726
 18,-0.02181492,0.04135077,0.13626703,0.00385535,0.00634060,0.00074570,
 0.00197596,-0.00542672,-0.00110541,0.00005726,0.00134233,-0.00066777,0
 .00133477,-0.00121603,0.00102311,-0.00467833,0.00065459,-0.00045522,0.
 00350881,-0.00487311,0.00062932,0.00140014,0.01065150,0.00094325,-0.03
 911950,-0.03699568,-0.00283896,-0.15209011,-0.13405664,-0.02557559,0.1
 8361043,0.00122080,0.00571627,0.00573866,-0.01354743,-0.04124876,-0.02
 210607,-0.00096895,-0.00139482,0.00136774,0.00421722,0.00030104,-0.005
 07316,-0.00369312,0.00107128,0.00063208,0.00323762,-0.00617513,0.00056
 451,0.00563369,0.01239250,-0.00067864,-0.02511404,-0.01428193,-0.00015
 766,-0.13710650,-0.19160015,-0.03046961,0.16716510,0.23489852,-0.00097
 725,-0.00032453,-0.00053097,-0.00511781,-0.01493534,0.00481127,-0.0008
 9096,-0.00128939,0.00076455,0.00269093,-0.00174500,-0.00282295,0.00091
 012,0.00011484,0.00007137,-0.00039419,-0.00002133,0.00005899,0.0013668
 7,0.00027221,0.00245722,0.00041536,-0.00145251,0.01204914,-0.02735790,
 -0.03210520,-0.03895106,0.02962261,0.05033601,0.02407690,-0.05158566,-
 0.02726500,0.08209191,-0.02916563,-0.01316739,0.03427029,0.00014247,0.
 00156870,-0.00042875,-0.00667185,0.00156955,-0.00212167,0.00030832,-0.
 00206932,0.00126378,0.00016036,-0.00026562,0.00008528,0.00030941,-0.00
 014442,-0.00010823,0.00029878,0.00157167,0.00035130,-0.00360005,-0.000
 35531,0.00082585,-0.00010786,-0.00043006,0.00008535,0.09030831,-0.0451
 7768,-0.03627439,0.11231743,0.00752905,-0.00460282,0.00107878,-0.00201
 561,-0.00101609,0.00057161,-0.00663682,-0.00104682,0.00354682,0.000921
 16,-0.00179582,0.00166514,-0.00037312,-0.00031382,0.00001426,0.0000159
 5,-0.00011029,0.00004015,0.00044809,-0.00247616,0.00077871,0.00670142,
 0.00295991,-0.00430753,-0.00118360,-0.00082916,0.00077503,0.03983090,0
 .04469954,0.13783028,0.11817792,-0.35569537,-0.01938022,-0.00166052,-0
 .00227670,-0.00033639,0.00007870,0.00017037,-0.00267052,0.00022961,0.0
 0167585,0.00004194,-0.00052700,0.00079082,0.00005397,-0.00025363,0.000
 05184,0.00007582,0.00025752,0.00000646,-0.00026180,-0.00034445,0.00011
 713,0.00105174,0.00031495,-0.00096149,-0.00040433,0.00020249,0.0005810
 8,-0.11648031,-0.11551596,0.35558620,-0.00058182,-0.00232429,0.0013730
 2,-0.00199790,-0.00184210,0.00217173,-0.31177215,-0.06619369,0.0561915
 4,-0.01983813,-0.00337264,0.00235360,-0.00183035,0.00308660,-0.0009504
 4,-0.00025976,-0.00103108,0.00017065,-0.00003429,0.00022503,-0.0000326
 2,-0.00018758,-0.00002111,0.00005907,-0.00037126,0.00009267,-0.0002456
 9,-0.00000755,-0.00027392,-0.00018483,0.00019638,-0.00001569,0.0002520
 7,0.33450068,-0.00050320,-0.00283574,0.00031125,0.00304199,-0.00170408
 ,-0.00112210,-0.07048675,-0.06567228,0.02237678,0.01835447,0.01177761,
 -0.00361802,-0.00030634,-0.00064185,0.00655543,0.00132061,0.00005485,-
 0.00021297,-0.00003882,0.00108523,0.00007938,-0.00096377,0.00007004,0.
 00014188,0.00001129,-0.00106853,0.00045658,-0.00045548,-0.00052427,-0.
 00048332,-0.00087441,0.00104099,-0.00076911,0.06994037,0.05975606,0.00
 157750,-0.00023592,-0.00040851,-0.00373800,-0.00036751,-0.00454102,0.0
 5936865,0.02252707,-0.05563747,-0.00732710,-0.00285893,0.00847721,-0.0
 0261022,0.00624088,0.00616539,-0.00087797,-0.00093116,-0.00005180,0.00
 016276,-0.00003276,0.00007354,-0.00005827,-0.00015116,-0.00013706,0.00
 073098,-0.00061721,0.00094693,-0.00024835,-0.00038896,-0.00038308,0.00
 026109,-0.00057914,0.00010715,-0.05997213,-0.02681768,0.04537365,0.001
 20677,-0.00199842,0.00161509,-0.00474872,0.00180431,0.00014058,-0.0638
 4162,-0.04629813,0.03137896,0.00368100,0.02177333,-0.01475314,0.000888
 24,0.00094285,-0.00037084,0.00040093,-0.00033839,0.00007859,0.00001101
 ,0.00035568,-0.00010740,-0.00034229,-0.00029386,0.00020383,0.00089417,
 -0.00005113,-0.00135066,-0.00003891,0.00017885,0.00029678,0.00021995,-
 0.00014217,0.00033423,0.00217980,-0.01904954,0.01313726,0.05979568,0.0
 0019047,0.00107649,-0.00075701,0.00091016,0.00050577,0.00497933,-0.042
 31664,-0.23547647,0.13687472,-0.00548471,-0.01028414,0.01195528,-0.000
 40085,-0.00141784,-0.00370555,0.00012420,0.00083752,-0.00007315,-0.000
 17838,-0.00050087,0.00011328,0.00054088,-0.00025440,-0.00009000,-0.000
 02965,0.00112802,-0.00087605,0.00040471,0.00041305,0.00036976,0.000101
 49,-0.00003517,-0.00005394,0.00164639,-0.00146701,0.00380008,0.0436343
 7,0.24533267,-0.00032492,0.00125903,-0.00117302,-0.00122652,0.00246081
 ,0.00765122,0.02818983,0.13724569,-0.12829464,0.00152690,0.01008157,-0
 .00066179,0.00277999,-0.00286935,-0.00442169,0.00010684,0.00020070,0.0
 0009378,-0.00009918,-0.00010246,0.00003940,0.00012241,-0.00042329,0.00
 010644,0.00105656,0.00100741,-0.00245422,0.00019495,0.00091460,0.00092
 628,0.00011237,0.00004947,-0.00004124,-0.00138913,0.00390087,0.0010978
 8,-0.03059438,-0.15290504,0.12617094,-0.00131691,-0.00022470,0.0019043
 5,-0.00259158,0.00097175,-0.00201140,0.00067473,-0.00094342,0.00126260
 ,-0.00709101,-0.02847724,0.00931149,-0.05765624,-0.04092545,0.00849382
 ,0.00301294,0.02825761,-0.00495005,-0.00298467,0.00132863,0.00077346,-
 0.00025225,-0.00006573,-0.00010135,-0.00007796,0.00034970,0.00050921,0
 .00012260,-0.00021624,-0.00018663,-0.00048768,-0.00075284,-0.00021032,
 0.00023252,0.00007807,-0.00018248,-0.00036098,0.00070993,-0.00048341,0
 .06808593,-0.00015863,0.00009064,0.00045050,-0.00015600,0.00104840,-0.
 00098328,0.00159731,0.00120206,-0.00035177,-0.00056617,-0.00723109,0.0
 0373743,-0.03808082,-0.30806208,0.06431981,-0.00271051,-0.01767301,0.0
 0475490,0.00325356,0.00143529,0.00228829,-0.00011948,0.00010880,-0.000
 07580,0.00005584,0.00030320,0.00023447,-0.00010427,-0.00015592,-0.0001
 1998,-0.00013779,-0.00013973,-0.00020264,-0.00011209,0.00040174,0.0003
 5663,-0.00042512,0.00015911,-0.00078690,0.03770455,0.32839990,0.000693
 25,0.00034036,-0.00024723,0.00075454,-0.00034777,0.00181150,-0.0024064
 9,0.00088959,-0.00181252,0.00882455,0.00510131,0.00316672,0.00226477,0
 .06475041,-0.05174111,0.00452380,-0.00061130,0.00564991,0.00042385,0.0
 0259733,0.00978767,-0.00159648,-0.00040504,-0.00004589,0.00091958,0.00
 016225,0.00027329,-0.00061032,-0.00034210,-0.00019592,-0.00000833,-0.0
 0005829,-0.00009793,0.00010734,-0.00018567,-0.00035026,-0.00002592,0.0
 0022239,0.00070217,-0.01315961,-0.07144428,0.04055909,-0.00016807,-0.0
 0004151,0.00011836,0.00020736,0.00024260,-0.00032249,-0.00086775,-0.00
 067355,0.00058011,-0.00069312,0.00392556,-0.00016047,-0.02480147,-0.01
 298501,0.00480820,-0.26146708,-0.11518278,0.03566618,0.00298805,0.0044
 1156,-0.00041906,0.00145914,0.00084611,0.00020762,-0.00011456,0.000266
 34,0.00014901,0.00002353,-0.00006101,-0.00006956,-0.00000882,-0.000065
 43,-0.00001916,-0.00022240,0.00010118,-0.00037041,0.00005304,0.0000961
 9,0.00004193,0.00067682,0.00000635,-0.00048705,0.28162481,-0.00006962,
 0.00011666,-0.00008824,0.00012149,-0.00043730,0.00008705,0.00060079,0.
 00062110,-0.00037662,0.00267641,-0.00119358,0.00184890,0.01952357,0.00
 848548,-0.00278874,-0.11641493,-0.11696589,0.02150527,-0.02824018,-0.0
 1847718,0.00550554,0.00259609,-0.00382964,0.00013649,0.00088521,-0.000
 15726,-0.00014193,-0.00041958,-0.00003079,0.00005688,0.00001523,0.0000
 8748,0.00000438,0.00017282,-0.00026839,0.00000779,-0.00005149,-0.00001
 953,0.00003799,0.00100151,0.00092377,-0.00125705,0.11870884,0.13152146
 ,0.00006073,-0.00025488,0.00016467,-0.00095555,0.00000940,0.00011790,0
 .00114711,0.00004620,-0.00014908,0.00069085,0.00219775,0.01092428,0.00
 001588,0.00002575,0.00324815,0.03624249,0.02403138,-0.04363170,0.00399
 671,-0.00011335,0.00209547,-0.00040832,0.00100885,0.00295137,-0.000205
 92,-0.00023392,-0.00014728,0.00002985,0.00008589,-0.00005768,-0.000054
 25,-0.00008435,-0.00002798,0.00007525,-0.00072905,-0.00081801,0.000052
 70,0.00021877,0.00030876,-0.00103002,-0.00185687,-0.00647646,-0.039278
 98,-0.02432717,0.03271048,-0.00014864,0.00002059,0.00011172,0.00033685
 ,-0.00018897,-0.00045623,-0.00000762,-0.00008236,0.00000218,0.00002762
 ,0.00003579,0.00004486,0.00201005,0.00046054,0.00039275,-0.00276121,-0
 .00076799,0.00115650,-0.29932464,0.08005792,0.03110430,-0.02121654,0.0
 0682383,0.00396063,-0.00028722,-0.00322456,0.00116980,-0.00053651,-0.0
 0001119,-0.00021350,-0.00002431,-0.00000633,-0.00000771,0.00001322,0.0
 0002453,0.00001883,0.00001343,-0.00002404,-0.00001904,-0.00027452,0.00
 004261,-0.00003056,0.00137943,-0.00022642,-0.00059559,0.31991497,-0.00
 007763,0.00006136,-0.00001303,-0.00002647,-0.00030352,-0.00000983,0.00
 033478,0.00002708,-0.00004478,-0.00079896,-0.00009942,0.00007989,-0.00
 094591,-0.00489189,0.00070687,0.03121555,-0.01224033,-0.00386844,0.081
 27941,-0.08019295,-0.01035038,-0.02496022,0.00596017,0.00347596,-0.002
 96278,-0.00259667,0.00023069,-0.00036926,0.00021347,0.00004994,0.00000
 750,0.00007318,0.00001477,0.00001973,-0.00003142,0.00004913,-0.0000384
 8,0.00002058,-0.00005696,0.00109247,-0.00075765,0.00050560,0.00030935,
 0.00051423,-0.00027687,-0.08279028,0.09344910,0.00018613,0.00042990,0.
 00026843,-0.00050022,-0.00000158,-0.00085360,0.00009527,-0.00018407,-0
 .00002579,-0.00017351,0.00055246,-0.00044527,-0.00009980,-0.00033584,0
 .00332916,0.00032665,0.00342756,0.00487355,0.03171079,-0.01190268,-0.0
 4532577,0.00407415,-0.00220480,0.00629631,0.00149665,0.00012196,0.0112
 2489,0.00064581,0.00052894,-0.00160961,-0.00007785,-0.00014995,-0.0000
 1003,-0.00001295,0.00008267,0.00010162,-0.00002270,-0.00007724,-0.0000
 8247,0.00011834,-0.00016157,-0.00026160,-0.00052920,-0.00007430,-0.001
 39904,-0.03592026,0.00923790,0.03037053,-0.00212312,0.00031673,0.00111
 005,-0.00065803,-0.00382880,-0.00219114,0.00001018,0.00037503,-0.00035
 564,0.00082598,-0.00020362,0.00041933,-0.00141113,-0.00000402,-0.00005
 034,-0.00107769,-0.00218302,0.00174978,0.00651724,-0.02292321,-0.00125
 404,-0.08358739,0.09434467,0.01122275,-0.01691470,0.02975093,0.0078192
 1,0.00068993,-0.00023082,0.00000461,-0.00029211,0.00092273,0.00013072,
 -0.00001939,-0.00019420,0.00012785,-0.00001149,0.00007549,0.00000479,0
 .00028826,-0.00008935,-0.00018691,-0.00006890,-0.00087975,0.00021706,0
 .00088564,-0.00128880,-0.00131730,0.09694674,0.00021109,0.00083560,0.0
 0020270,-0.00097425,0.00046421,0.00001312,0.00004576,-0.00005350,0.000
 09898,-0.00017743,0.00016431,-0.00015230,0.00015554,0.00015414,0.00003
 016,-0.00367260,0.00044929,-0.00082744,0.00784703,-0.02191182,-0.00250
 602,0.09190991,-0.29369429,-0.03149507,-0.00003417,-0.00142868,-0.0010
 6568,-0.00145846,0.00123480,0.00050195,0.00004427,-0.00022084,0.000046
 90,0.00000299,0.00002703,-0.00000116,-0.00000268,-0.00001779,-0.000014
 15,0.00011141,-0.00005343,0.00008228,0.00009523,-0.00089061,0.00025249
 ,-0.00014366,0.00079467,0.00071064,-0.09395999,0.31414690,0.00037478,0
 .00019525,-0.00041645,0.00182420,0.00015841,0.00216445,-0.00040983,0.0
 0002661,-0.00029008,0.00053272,-0.00030167,-0.00045225,-0.00201930,0.0
 0004749,0.00050856,0.00235735,-0.00132649,0.00949806,0.00241923,0.0057
 8038,0.00421678,0.00720643,-0.03402820,-0.03975070,0.00783287,-0.00338
 926,0.00349500,-0.00192865,-0.00115472,-0.00124551,-0.00006783,-0.0001
 4218,0.00002386,0.00003352,0.00003307,-0.00001617,-0.00001300,0.000004
 35,0.00003221,-0.00005801,-0.00015893,-0.00072143,0.00008497,-0.000136
 24,0.00018614,-0.00071868,0.00026953,-0.00645130,-0.01745079,0.0341226
 0,0.02921883\\-0.00000444,-0.00000003,-0.00000327,0.00001480,0.0000049
 7,0.00000779,0.00001968,0.00000412,-0.00001241,0.00001330,-0.00001409,
 0.00001266,-0.00003705,0.00000132,0.00000156,0.00000758,-0.00000525,0.
 00000591,-0.00000126,0.00000609,0.00000641,-0.00001268,0.00000716,-0.0
 0000371,0.00000747,-0.00002586,-0.00001449,0.00000646,0.00001007,0.000
 00258,-0.00000040,-0.00000070,0.00000084,-0.00001466,0.00001036,0.0000
 0322,-0.00000386,0.00000052,0.00000260,0.00000325,0.00000230,-0.000008
 73,-0.00000111,0.00000236,-0.00000350,0.00000271,-0.00000072,0.0000041
 6,0.00000022,-0.00000262,-0.00000162\\\@


 THE MORE POWERFUL THE METHOD, THE MORE CATASTROPHIC THE ERRORS.
     -- M.D. KAMEN
 Job cpu time:       0 days  1 hours 58 minutes 46.4 seconds.
 Elapsed time:       0 days  0 hours 29 minutes 44.8 seconds.
 File lengths (MBytes):  RWF=    162 Int=      0 D2E=      0 Chk=      9 Scr=      1
 Normal termination of Gaussian 16 at Mon May 15 19:59:57 2023.
### All Done ###
