### Starting Gaussian ###
 Entering Gaussian System, Link 0=g16
 Initial command:
 /cluster/software/gaussian/gaussian-16-A.03/avx2/g16/l1.exe "/local/scratch/cz9n3/Gau-1384.inp" -scrdir="/local/scratch/cz9n3/"
 Entering Link 1 = /cluster/software/gaussian/gaussian-16-A.03/avx2/g16/l1.exe PID=      1385.
  
 Copyright (c) 1988,1990,1992,1993,1995,1998,2003,2009,2016,
            Gaussian, Inc.  All Rights Reserved.
  
 This is part of the Gaussian(R) 16 program.  It is based on
 the Gaussian(R) 09 system (copyright 2009, Gaussian, Inc.),
 the Gaussian(R) 03 system (copyright 2003, Gaussian, Inc.),
 the Gaussian(R) 98 system (copyright 1998, Gaussian, Inc.),
 the Gaussian(R) 94 system (copyright 1995, Gaussian, Inc.),
 the Gaussian 92(TM) system (copyright 1992, Gaussian, Inc.),
 the Gaussian 90(TM) system (copyright 1990, Gaussian, Inc.),
 the Gaussian 88(TM) system (copyright 1988, Gaussian, Inc.),
 the Gaussian 86(TM) system (copyright 1986, Carnegie Mellon
 University), and the Gaussian 82(TM) system (copyright 1983,
 Carnegie Mellon University). Gaussian is a federally registered
 trademark of Gaussian, Inc.
  
 This software contains proprietary and confidential information,
 including trade secrets, belonging to Gaussian, Inc.
  
 This software is provided under written license and may be
 used, copied, transmitted, or stored only in accord with that
 written license.
  
 The following legend is applicable only to US Government
 contracts under FAR:
  
                    RESTRICTED RIGHTS LEGEND
  
 Use, reproduction and disclosure by the US Government is
 subject to restrictions as set forth in subparagraphs (a)
 and (c) of the Commercial Computer Software - Restricted
 Rights clause in FAR 52.227-19.
  
 Gaussian, Inc.
 340 Quinnipiac St., Bldg. 40, Wallingford CT 06492
  
  
 ---------------------------------------------------------------
 Warning -- This program may not be used in any manner that
 competes with the business of Gaussian, Inc. or will provide
 assistance to any competitor of Gaussian, Inc.  The licensee
 of this program is prohibited from giving any competitor of
 Gaussian, Inc. access to this program.  By using this program,
 the user acknowledges that Gaussian, Inc. is engaged in the
 business of creating and licensing software in the field of
 computational chemistry and represents and warrants to the
 licensee that it is not a competitor of Gaussian, Inc. and that
 it will not use this program in any manner prohibited above.
 ---------------------------------------------------------------
  

 Cite this work as:
 Gaussian 16, Revision A.03,
 M. J. Frisch, G. W. Trucks, H. B. Schlegel, G. E. Scuseria, 
 M. A. Robb, J. R. Cheeseman, G. Scalmani, V. Barone, 
 G. A. Petersson, H. Nakatsuji, X. Li, M. Caricato, A. V. Marenich, 
 J. Bloino, B. G. Janesko, R. Gomperts, B. Mennucci, H. P. Hratchian, 
 J. V. Ortiz, A. F. Izmaylov, J. L. Sonnenberg, D. Williams-Young, 
 F. Ding, F. Lipparini, F. Egidi, J. Goings, B. Peng, A. Petrone, 
 T. Henderson, D. Ranasinghe, V. G. Zakrzewski, J. Gao, N. Rega, 
 G. Zheng, W. Liang, M. Hada, M. Ehara, K. Toyota, R. Fukuda, 
 J. Hasegawa, M. Ishida, T. Nakajima, Y. Honda, O. Kitao, H. Nakai, 
 T. Vreven, K. Throssell, J. A. Montgomery, Jr., J. E. Peralta, 
 F. Ogliaro, M. J. Bearpark, J. J. Heyd, E. N. Brothers, K. N. Kudin, 
 V. N. Staroverov, T. A. Keith, R. Kobayashi, J. Normand, 
 K. Raghavachari, A. P. Rendell, J. C. Burant, S. S. Iyengar, 
 J. Tomasi, M. Cossi, J. M. Millam, M. Klene, C. Adamo, R. Cammi, 
 J. W. Ochterski, R. L. Martin, K. Morokuma, O. Farkas, 
 J. B. Foresman, and D. J. Fox, Gaussian, Inc., Wallingford CT, 2016.
 
 ******************************************
 Gaussian 16:  ES64L-G16RevA.03 25-Dec-2016
                16-May-2023 
 ******************************************
 %chk=NdC1CdCCqCdSrdCCdCCdCd[SH]1.chk
 %NProcShared=20
 Will use up to   20 processors via shared memory.
 -----------------------------
 # opt freq b3lyp/6-31g(2df,p)
 -----------------------------
 1/18=20,19=15,26=3,38=1/1,3;
 2/9=110,12=2,17=6,18=5,40=1/2;
 3/5=1,6=6,7=104,11=2,25=1,30=1,71=1,74=-5/1,2,3;
 4//1;
 5/5=2,38=5/2;
 6/7=2,8=2,9=2,10=2,28=1/1;
 7//1,2,3,16;
 1/18=20,19=15,26=3/3(2);
 2/9=110/2;
 99//99;
 2/9=110/2;
 3/5=1,6=6,7=104,11=2,25=1,30=1,71=1,74=-5/1,2,3;
 4/5=5,16=3,69=1/1;
 5/5=2,38=5/2;
 7//1,2,3,16;
 1/18=20,19=15,26=3/3(-5);
 2/9=110/2;
 6/7=2,8=2,9=2,10=2,19=2,28=1/1;
 99/9=1/99;
 -------------------
 Title Card Required
 -------------------
 Symbolic Z-matrix:
 Charge =  0 Multiplicity = 1
 N                     2.72598  -0.20815  -0.50973 
 C                     3.67482  -1.04957  -0.11151 
 C                     3.36225  -1.60129   1.13165 
 C                     4.19828  -0.9166    1.9953 
 C                     4.85136  -1.7948    2.92305 
 C                     4.26367  -3.12927   3.33111 
 S                     2.63673  -3.5922    3.41902 
 C                     6.18513  -1.46421   3.07282 
 C                     7.3009   -2.27511   3.51814 
 C                     8.27879  -2.28715   2.56996 
 C                     7.78029  -2.85789   1.26377 
 C                     6.72958  -2.35991   0.49508 
 S                     5.63563  -1.60426  -0.6596 
 H                     1.8554   -0.38347   0.10828 
 H                     2.37813  -1.89079   1.3787 
 H                     4.82316  -0.1156    1.56838 
 H                     4.98673  -3.90668   3.59433 
 H                     6.54613  -0.62928   2.46081 
 H                     6.92422  -3.27271   3.75614 
 H                     9.02931  -1.49185   2.49545 
 H                     8.05866  -3.92081   1.50405 
 H                     6.16931  -0.40927  -0.77759 
 

 GradGradGradGradGradGradGradGradGradGradGradGradGradGradGradGradGradGrad
 Berny optimization.
 Initialization pass.
                           ----------------------------
                           !    Initial Parameters    !
                           ! (Angstroms and Degrees)  !
 --------------------------                            --------------------------
 ! Name  Definition              Value          Derivative Info.                !
 --------------------------------------------------------------------------------
 ! R1    R(1,2)                  1.3292         estimate D2E/DX2                !
 ! R2    R(1,14)                 1.0819         estimate D2E/DX2                !
 ! R3    R(2,3)                  1.3955         estimate D2E/DX2                !
 ! R4    R(2,13)                 2.1102         estimate D2E/DX2                !
 ! R5    R(3,4)                  1.3833         estimate D2E/DX2                !
 ! R6    R(3,15)                 1.0551         estimate D2E/DX2                !
 ! R7    R(4,5)                  1.4347         estimate D2E/DX2                !
 ! R8    R(4,16)                 1.102          estimate D2E/DX2                !
 ! R9    R(5,6)                  1.5142         estimate D2E/DX2                !
 ! R10   R(5,8)                  1.3823         estimate D2E/DX2                !
 ! R11   R(6,7)                  1.6938         estimate D2E/DX2                !
 ! R12   R(6,17)                 1.0938         estimate D2E/DX2                !
 ! R13   R(8,9)                  1.4494         estimate D2E/DX2                !
 ! R14   R(8,18)                 1.0964         estimate D2E/DX2                !
 ! R15   R(9,10)                 1.3622         estimate D2E/DX2                !
 ! R16   R(9,19)                 1.0926         estimate D2E/DX2                !
 ! R17   R(10,11)                1.5101         estimate D2E/DX2                !
 ! R18   R(10,20)                1.0961         estimate D2E/DX2                !
 ! R19   R(11,12)                1.3939         estimate D2E/DX2                !
 ! R20   R(11,21)                1.1247         estimate D2E/DX2                !
 ! R21   R(12,13)                1.761          estimate D2E/DX2                !
 ! R22   R(13,22)                1.3141         estimate D2E/DX2                !
 ! A1    A(2,1,14)             107.4984         estimate D2E/DX2                !
 ! A2    A(1,2,3)              110.9314         estimate D2E/DX2                !
 ! A3    A(1,2,13)             138.7534         estimate D2E/DX2                !
 ! A4    A(3,2,13)             109.6076         estimate D2E/DX2                !
 ! A5    A(2,3,4)              103.0094         estimate D2E/DX2                !
 ! A6    A(2,3,15)             121.7317         estimate D2E/DX2                !
 ! A7    A(4,3,15)             123.5934         estimate D2E/DX2                !
 ! A8    A(3,4,5)              112.0765         estimate D2E/DX2                !
 ! A9    A(3,4,16)             117.4261         estimate D2E/DX2                !
 ! A10   A(5,4,16)             115.9329         estimate D2E/DX2                !
 ! A11   A(4,5,6)              122.4829         estimate D2E/DX2                !
 ! A12   A(4,5,8)              111.2779         estimate D2E/DX2                !
 ! A13   A(6,5,8)              123.7859         estimate D2E/DX2                !
 ! A14   A(5,6,7)              128.8781         estimate D2E/DX2                !
 ! A15   A(5,6,17)             115.7637         estimate D2E/DX2                !
 ! A16   A(7,6,17)             115.3537         estimate D2E/DX2                !
 ! A17   A(5,8,9)              129.9622         estimate D2E/DX2                !
 ! A18   A(5,8,18)             116.064          estimate D2E/DX2                !
 ! A19   A(9,8,18)             110.1266         estimate D2E/DX2                !
 ! A20   A(8,9,10)             110.1038         estimate D2E/DX2                !
 ! A21   A(8,9,19)             108.2013         estimate D2E/DX2                !
 ! A22   A(10,9,19)            113.0207         estimate D2E/DX2                !
 ! A23   A(9,10,11)            111.6202         estimate D2E/DX2                !
 ! A24   A(9,10,20)            122.1737         estimate D2E/DX2                !
 ! A25   A(11,10,20)           116.1986         estimate D2E/DX2                !
 ! A26   A(10,11,12)           126.2159         estimate D2E/DX2                !
 ! A27   A(10,11,21)            95.2033         estimate D2E/DX2                !
 ! A28   A(12,11,21)           129.9421         estimate D2E/DX2                !
 ! A29   A(2,13,12)            121.3144         estimate D2E/DX2                !
 ! A30   A(2,13,22)             99.3033         estimate D2E/DX2                !
 ! A31   A(12,13,22)           101.3504         estimate D2E/DX2                !
 ! A32   L(11,12,13,5,-1)      188.4802         estimate D2E/DX2                !
 ! A33   L(11,12,13,5,-2)      173.7715         estimate D2E/DX2                !
 ! D1    D(14,1,2,3)           -14.9739         estimate D2E/DX2                !
 ! D2    D(14,1,2,13)          176.169          estimate D2E/DX2                !
 ! D3    D(1,2,3,4)           -104.2955         estimate D2E/DX2                !
 ! D4    D(1,2,3,15)            39.8537         estimate D2E/DX2                !
 ! D5    D(13,2,3,4)            67.9309         estimate D2E/DX2                !
 ! D6    D(13,2,3,15)         -147.9199         estimate D2E/DX2                !
 ! D7    D(1,2,13,12)          157.5939         estimate D2E/DX2                !
 ! D8    D(1,2,13,22)           48.1373         estimate D2E/DX2                !
 ! D9    D(3,2,13,12)          -11.359          estimate D2E/DX2                !
 ! D10   D(3,2,13,22)         -120.8156         estimate D2E/DX2                !
 ! D11   D(2,3,4,5)           -134.3762         estimate D2E/DX2                !
 ! D12   D(2,3,4,16)             3.5381         estimate D2E/DX2                !
 ! D13   D(15,3,4,5)            82.351          estimate D2E/DX2                !
 ! D14   D(15,3,4,16)         -139.7347         estimate D2E/DX2                !
 ! D15   D(3,4,5,6)            -25.7            estimate D2E/DX2                !
 ! D16   D(3,4,5,8)            137.1216         estimate D2E/DX2                !
 ! D17   D(16,4,5,6)          -164.2841         estimate D2E/DX2                !
 ! D18   D(16,4,5,8)            -1.4624         estimate D2E/DX2                !
 ! D19   D(4,5,6,7)            -29.1609         estimate D2E/DX2                !
 ! D20   D(4,5,6,17)           150.0278         estimate D2E/DX2                !
 ! D21   D(8,5,6,7)            170.1768         estimate D2E/DX2                !
 ! D22   D(8,5,6,17)           -10.6345         estimate D2E/DX2                !
 ! D23   D(4,5,8,9)           -157.208          estimate D2E/DX2                !
 ! D24   D(4,5,8,18)            -1.7542         estimate D2E/DX2                !
 ! D25   D(6,5,8,9)              5.3486         estimate D2E/DX2                !
 ! D26   D(6,5,8,18)           160.8024         estimate D2E/DX2                !
 ! D27   D(5,8,9,10)           123.2277         estimate D2E/DX2                !
 ! D28   D(5,8,9,19)            -0.7398         estimate D2E/DX2                !
 ! D29   D(18,8,9,10)          -33.3534         estimate D2E/DX2                !
 ! D30   D(18,8,9,19)         -157.3209         estimate D2E/DX2                !
 ! D31   D(8,9,10,11)          -60.1083         estimate D2E/DX2                !
 ! D32   D(8,9,10,20)           84.025          estimate D2E/DX2                !
 ! D33   D(19,9,10,11)          61.0181         estimate D2E/DX2                !
 ! D34   D(19,9,10,20)        -154.8486         estimate D2E/DX2                !
 ! D35   D(9,10,11,12)          59.725          estimate D2E/DX2                !
 ! D36   D(9,10,11,21)         -90.242          estimate D2E/DX2                !
 ! D37   D(20,10,11,12)        -86.7219         estimate D2E/DX2                !
 ! D38   D(20,10,11,21)        123.3111         estimate D2E/DX2                !
 ! D39   D(10,11,13,2)         -55.489          estimate D2E/DX2                !
 ! D40   D(10,11,13,22)         52.0669         estimate D2E/DX2                !
 ! D41   D(21,11,13,2)          92.8886         estimate D2E/DX2                !
 ! D42   D(21,11,13,22)       -159.5556         estimate D2E/DX2                !
 --------------------------------------------------------------------------------
 Trust Radius=3.00D-01 FncErr=1.00D-07 GrdErr=1.00D-06 EigMax=2.50D+02 EigMin=1.00D-04
 Number of steps in this run=    107 maximum allowed number of steps=    132.
 GradGradGradGradGradGradGradGradGradGradGradGradGradGradGradGradGradGrad

                          Input orientation:                          
 ---------------------------------------------------------------------
 Center     Atomic      Atomic             Coordinates (Angstroms)
 Number     Number       Type             X           Y           Z
 ---------------------------------------------------------------------
      1          7           0        2.725980   -0.208150   -0.509730
      2          6           0        3.674820   -1.049570   -0.111510
      3          6           0        3.362250   -1.601290    1.131650
      4          6           0        4.198280   -0.916600    1.995300
      5          6           0        4.851360   -1.794800    2.923050
      6          6           0        4.263670   -3.129270    3.331110
      7         16           0        2.636730   -3.592200    3.419020
      8          6           0        6.185130   -1.464210    3.072820
      9          6           0        7.300900   -2.275110    3.518140
     10          6           0        8.278790   -2.287150    2.569960
     11          6           0        7.780290   -2.857890    1.263770
     12          6           0        6.729580   -2.359910    0.495080
     13         16           0        5.635630   -1.604260   -0.659600
     14          1           0        1.855400   -0.383470    0.108280
     15          1           0        2.378130   -1.890790    1.378700
     16          1           0        4.823160   -0.115600    1.568380
     17          1           0        4.986730   -3.906680    3.594330
     18          1           0        6.546130   -0.629280    2.460810
     19          1           0        6.924220   -3.272710    3.756140
     20          1           0        9.029310   -1.491850    2.495450
     21          1           0        8.058660   -3.920810    1.504050
     22          1           0        6.169310   -0.409270   -0.777590
 ---------------------------------------------------------------------
                    Distance matrix (angstroms):
                    1          2          3          4          5
     1  N    0.000000
     2  C    1.329234   0.000000
     3  C    2.244951   1.395544   0.000000
     4  C    2.990776   2.174934   1.383343   0.000000
     5  C    4.338050   3.338887   2.337522   1.434736   0.000000
     6  C    5.064532   4.064914   2.825757   2.585454   1.514167
     7  S    5.186023   4.472945   3.118038   3.409436   2.895034
     8  C    5.135959   4.075971   3.428642   2.325618   1.382267
     9  C    6.436300   5.274918   4.654281   3.713602   2.566140
    10  C    6.681349   5.469774   5.168317   4.342718   3.480569
    11  C    5.975991   4.692153   4.595169   4.139389   3.530156
    12  C    4.654947   3.378831   3.509934   3.277390   3.121233
    13  S    3.230735   2.110180   2.894277   3.096344   3.672433
    14  H    1.081935   1.949945   2.191111   3.055186   4.346327
    15  H    2.553125   2.147040   1.055147   2.154574   2.917379
    16  H    2.953857   2.238976   2.128912   1.101969   2.157693
    17  H    5.969374   4.859777   3.744136   3.481254   2.220130
    18  H    4.857469   3.877872   3.584489   2.410737   2.108162
    19  H    6.724165   5.519028   4.729611   4.010307   2.678620
    20  H    7.100068   5.971802   5.829880   4.890799   4.210687
    21  H    6.802693   5.483804   5.251202   4.916212   4.101250
    22  H    3.459584   2.660099   3.598013   3.439660   4.165504
                    6          7          8          9         10
     6  C    0.000000
     7  S    1.693802   0.000000
     8  C    2.555611   4.152028   0.000000
     9  C    3.160591   4.847580   1.449418   0.000000
    10  C    4.172494   5.852939   2.305105   1.362152   0.000000
    11  C    4.088295   5.624991   2.785595   2.377316   1.510092
    12  C    3.836104   5.178744   2.782705   3.077741   2.590458
    13  S    4.487059   5.438791   3.775251   4.547161   4.228793
    14  H    4.870915   4.676262   5.357524   6.697680   7.137493
    15  H    2.983454   2.669190   4.188706   5.381317   6.032743
    16  H    3.535881   4.504674   2.436606   3.821550   4.202401
    17  H    1.093831   2.377421   2.770162   2.832527   3.809182
    18  H    3.495282   4.998047   1.096351   2.096755   2.400533
    19  H    2.698102   4.312574   2.069747   1.092583   2.052611
    20  H    5.107915   6.791872   2.902323   2.155642   1.096054
    21  H    4.285631   5.759550   3.464973   2.709075   1.963025
    22  H    5.283113   6.342058   3.992343   4.818210   4.379775
                   11         12         13         14         15
    11  C    0.000000
    12  C    1.393865   0.000000
    13  S    3.141736   1.760971   0.000000
    14  H    6.523974   5.273856   4.045999   0.000000
    15  H    5.489246   4.464972   3.853320   2.039418   0.000000
    16  H    4.044448   3.134220   2.800020   3.318320   3.027449
    17  H    3.786218   3.877547   4.880382   5.862660   3.972106
    18  H    2.814739   2.625420   3.393605   5.253358   4.487159
    19  H    2.667741   3.391991   4.893153   6.880954   5.313084
    20  H    2.223320   3.169190   4.635088   7.641471   6.756070
    21  H    1.124733   2.284925   3.989845   7.276083   6.033665
    22  H    3.571855   2.395535   1.314054   4.404004   4.606249
                   16         17         18         19         20
    16  H    0.000000
    17  H    4.301571   0.000000
    18  H    2.007218   3.802361   0.000000
    19  H    4.378138   2.044986   2.967921   0.000000
    20  H    4.521639   4.835431   2.628956   3.031865   0.000000
    21  H    4.995220   3.715673   3.746639   2.603632   2.797299
    22  H    2.720650   5.722242   3.267665   5.415153   4.479327
                   21         22
    21  H    0.000000
    22  H    4.594174   0.000000
 Stoichiometry    C10H9NS2
 Framework group  C1[X(C10H9NS2)]
 Deg. of freedom    60
 Full point group                 C1      NOp   1
 Largest Abelian subgroup         C1      NOp   1
 Largest concise Abelian subgroup C1      NOp   1
                         Standard orientation:                         
 ---------------------------------------------------------------------
 Center     Atomic      Atomic             Coordinates (Angstroms)
 Number     Number       Type             X           Y           Z
 ---------------------------------------------------------------------
      1          7           0       -2.473476    2.594472    0.604731
      2          6           0       -1.468157    1.921946    0.053455
      3          6           0       -1.696376    0.546484    0.113138
      4          6           0       -0.855123    0.135129    1.131332
      5          6           0       -0.118751   -1.044705    0.778890
      6          6           0       -0.622548   -2.043049   -0.241993
      7         16           0       -2.219717   -2.430677   -0.651580
      8          6           0        1.203174   -0.946701    1.170773
      9          6           0        2.375767   -1.637114    0.671606
     10          6           0        3.308380   -0.735523    0.255884
     11          6           0        2.778072    0.142722   -0.852194
     12          6           0        1.670453    0.985516   -0.776440
     13         16           0        0.489585    2.285263   -0.645191
     14          1           0       -3.305275    1.910198    0.707018
     15          1           0       -2.653101    0.134843   -0.055877
     16          1           0       -0.289586    0.913743    1.668235
     17          1           0        0.148209   -2.580645   -0.801806
     18          1           0        1.495262   -0.004335    1.648912
     19          1           0        2.058574   -2.319709   -0.120348
     20          1           0        4.015793   -0.265920    0.948975
     21          1           0        3.117711   -0.530120   -1.687031
     22          1           0        0.959526    2.959040    0.380439
 ---------------------------------------------------------------------
 Rotational constants (GHZ):           0.6725428           0.6122096           0.3695194
 Standard basis: 6-31G(2df,p) (6D, 7F)
 There are   456 symmetry adapted cartesian basis functions of A   symmetry.
 There are   417 symmetry adapted basis functions of A   symmetry.
   417 basis functions,   683 primitive gaussians,   456 cartesian basis functions
    54 alpha electrons       54 beta electrons
       nuclear repulsion energy       910.7440306988 Hartrees.
 NAtoms=   22 NActive=   22 NUniq=   22 SFac= 1.00D+00 NAtFMM=   60 NAOKFM=F Big=F
 Integral buffers will be    131072 words long.
 Raffenetti 2 integral format.
 Two-electron integral symmetry is turned on.
 One-electron integrals computed using PRISM.
 PrsmSu:  requested number of processors reduced to:  13 ShMem   1 Linda.
 NBasis=   417 RedAO= T EigKep=  3.88D-04  NBF=   417
 NBsUse=   417 1.00D-06 EigRej= -1.00D+00 NBFU=   417
 ExpMin= 1.17D-01 ExpMax= 2.19D+04 ExpMxC= 3.30D+03 IAcc=3 IRadAn=         5 AccDes= 0.00D+00
 Harris functional with IExCor=  402 and IRadAn=       5 diagonalized for initial guess.
 HarFok:  IExCor=  402 AccDes= 0.00D+00 IRadAn=         5 IDoV= 1 UseB2=F ITyADJ=14
 ICtDFT=  3500011 ScaDFX=  1.000000  1.000000  1.000000  1.000000
 FoFCou: FMM=F IPFlag=           0 FMFlag=      100000 FMFlg1=           0
         NFxFlg=           0 DoJE=T BraDBF=F KetDBF=T FulRan=T
         wScrn=  0.000000 ICntrl=       500 IOpCl=  0 I1Cent=   200000004 NGrid=           0
         NMat0=    1 NMatS0=      1 NMatT0=    0 NMatD0=    1 NMtDS0=    0 NMtDT0=    0
 Petite list used in FoFCou.
 Requested convergence on RMS density matrix=1.00D-08 within 128 cycles.
 Requested convergence on MAX density matrix=1.00D-06.
 Requested convergence on             energy=1.00D-06.
 No special actions if energy rises.
 Integral accuracy reduced to 1.0D-05 until final iterations.
 EnCoef did     5 forward-backward iterations
 EnCoef did     2 forward-backward iterations
 Problem detected with inexpensive integrals.
 Switching to full accuracy and repeating last cycle.
 EnCoef did     5 forward-backward iterations
 EnCoef did     2 forward-backward iterations
 EnCoef did   100 forward-backward iterations
 EnCoef did     4 forward-backward iterations
 EnCoef did     2 forward-backward iterations
 Restarting incremental Fock formation.
 SCF Done:  E(RB3LYP) =  -1237.06107413     A.U. after   30 cycles
            NFock= 30  Conv=0.36D-08     -V/T= 2.0049

 **********************************************************************

            Population analysis using the SCF density.

 **********************************************************************

 Orbital symmetries:
       Occupied  (A) (A) (A) (A) (A) (A) (A) (A) (A) (A) (A) (A)
                 (A) (A) (A) (A) (A) (A) (A) (A) (A) (A) (A) (A)
                 (A) (A) (A) (A) (A) (A) (A) (A) (A) (A) (A) (A)
                 (A) (A) (A) (A) (A) (A) (A) (A) (A) (A) (A) (A)
                 (A) (A) (A) (A) (A) (A)
       Virtual   (A) (A) (A) (A) (A) (A) (A) (A) (A) (A) (A) (A)
                 (A) (A) (A) (A) (A) (A) (A) (A) (A) (A) (A) (A)
                 (A) (A) (A) (A) (A) (A) (A) (A) (A) (A) (A) (A)
                 (A) (A) (A) (A) (A) (A) (A) (A) (A) (A) (A) (A)
                 (A) (A) (A) (A) (A) (A) (A) (A) (A) (A) (A) (A)
                 (A) (A) (A) (A) (A) (A) (A) (A) (A) (A) (A) (A)
                 (A) (A) (A) (A) (A) (A) (A) (A) (A) (A) (A) (A)
                 (A) (A) (A) (A) (A) (A) (A) (A) (A) (A) (A) (A)
                 (A) (A) (A) (A) (A) (A) (A) (A) (A) (A) (A) (A)
                 (A) (A) (A) (A) (A) (A) (A) (A) (A) (A) (A) (A)
                 (A) (A) (A) (A) (A) (A) (A) (A) (A) (A) (A) (A)
                 (A) (A) (A) (A) (A) (A) (A) (A) (A) (A) (A) (A)
                 (A) (A) (A) (A) (A) (A) (A) (A) (A) (A) (A) (A)
                 (A) (A) (A) (A) (A) (A) (A) (A) (A) (A) (A) (A)
                 (A) (A) (A) (A) (A) (A) (A) (A) (A) (A) (A) (A)
                 (A) (A) (A) (A) (A) (A) (A) (A) (A) (A) (A) (A)
                 (A) (A) (A) (A) (A) (A) (A) (A) (A) (A) (A) (A)
                 (A) (A) (A) (A) (A) (A) (A) (A) (A) (A) (A) (A)
                 (A) (A) (A) (A) (A) (A) (A) (A) (A) (A) (A) (A)
                 (A) (A) (A) (A) (A) (A) (A) (A) (A) (A) (A) (A)
                 (A) (A) (A) (A) (A) (A) (A) (A) (A) (A) (A) (A)
                 (A) (A) (A) (A) (A) (A) (A) (A) (A) (A) (A) (A)
                 (A) (A) (A) (A) (A) (A) (A) (A) (A) (A) (A) (A)
                 (A) (A) (A) (A) (A) (A) (A) (A) (A) (A) (A) (A)
                 (A) (A) (A) (A) (A) (A) (A) (A) (A) (A) (A) (A)
                 (A) (A) (A) (A) (A) (A) (A) (A) (A) (A) (A) (A)
                 (A) (A) (A) (A) (A) (A) (A) (A) (A) (A) (A) (A)
                 (A) (A) (A) (A) (A) (A) (A) (A) (A) (A) (A) (A)
                 (A) (A) (A) (A) (A) (A) (A) (A) (A) (A) (A) (A)
                 (A) (A) (A) (A) (A) (A) (A) (A) (A) (A) (A) (A)
                 (A) (A) (A)
 The electronic state is 1-A.
 Alpha  occ. eigenvalues --  -89.01043 -88.84501 -14.36029 -10.27474 -10.25893
 Alpha  occ. eigenvalues --  -10.24618 -10.24510 -10.21814 -10.21718 -10.21442
 Alpha  occ. eigenvalues --  -10.20853 -10.19959 -10.19947  -8.06492  -7.90869
 Alpha  occ. eigenvalues --   -6.02849  -6.02689  -6.02246  -5.87189  -5.87156
 Alpha  occ. eigenvalues --   -5.86395  -0.93114  -0.86757  -0.84751  -0.82968
 Alpha  occ. eigenvalues --   -0.76780  -0.74768  -0.71935  -0.64303  -0.61339
 Alpha  occ. eigenvalues --   -0.60256  -0.57051  -0.55793  -0.52850  -0.51642
 Alpha  occ. eigenvalues --   -0.48556  -0.48070  -0.46308  -0.44792  -0.42918
 Alpha  occ. eigenvalues --   -0.41519  -0.40720  -0.39412  -0.37168  -0.35869
 Alpha  occ. eigenvalues --   -0.34547  -0.33001  -0.31211  -0.28571  -0.26314
 Alpha  occ. eigenvalues --   -0.23934  -0.21164  -0.19258  -0.17486
 Alpha virt. eigenvalues --   -0.12885  -0.11104  -0.09268  -0.07354  -0.03368
 Alpha virt. eigenvalues --   -0.01367   0.00291   0.03193   0.06887   0.08169
 Alpha virt. eigenvalues --    0.08960   0.09640   0.12103   0.12924   0.14369
 Alpha virt. eigenvalues --    0.16072   0.17329   0.18686   0.20150   0.21035
 Alpha virt. eigenvalues --    0.22728   0.23842   0.25557   0.26836   0.27474
 Alpha virt. eigenvalues --    0.28762   0.29459   0.31735   0.31800   0.34400
 Alpha virt. eigenvalues --    0.34702   0.35882   0.36309   0.37823   0.38527
 Alpha virt. eigenvalues --    0.39234   0.40414   0.41611   0.42274   0.43227
 Alpha virt. eigenvalues --    0.43622   0.45464   0.46524   0.46903   0.47737
 Alpha virt. eigenvalues --    0.48134   0.48881   0.49739   0.51173   0.51896
 Alpha virt. eigenvalues --    0.53307   0.53895   0.54920   0.55428   0.57751
 Alpha virt. eigenvalues --    0.58294   0.59977   0.60795   0.61238   0.61970
 Alpha virt. eigenvalues --    0.62236   0.64033   0.64997   0.66588   0.68120
 Alpha virt. eigenvalues --    0.68853   0.69719   0.70356   0.71539   0.71973
 Alpha virt. eigenvalues --    0.72829   0.73400   0.73583   0.75235   0.75664
 Alpha virt. eigenvalues --    0.76397   0.77559   0.77744   0.78558   0.79955
 Alpha virt. eigenvalues --    0.81184   0.82690   0.84100   0.84213   0.85362
 Alpha virt. eigenvalues --    0.85461   0.86782   0.87387   0.88365   0.90759
 Alpha virt. eigenvalues --    0.91348   0.92272   0.93818   0.94726   0.95958
 Alpha virt. eigenvalues --    0.97761   0.99509   1.01270   1.01850   1.04753
 Alpha virt. eigenvalues --    1.05420   1.07058   1.07943   1.10483   1.12450
 Alpha virt. eigenvalues --    1.16479   1.17072   1.18197   1.21217   1.22230
 Alpha virt. eigenvalues --    1.24506   1.26321   1.27983   1.28857   1.30347
 Alpha virt. eigenvalues --    1.31279   1.34032   1.35535   1.35974   1.38830
 Alpha virt. eigenvalues --    1.39435   1.40088   1.42826   1.43102   1.44318
 Alpha virt. eigenvalues --    1.45911   1.47358   1.49322   1.49934   1.51539
 Alpha virt. eigenvalues --    1.53547   1.54469   1.55089   1.57118   1.58485
 Alpha virt. eigenvalues --    1.59826   1.60413   1.62843   1.63523   1.66598
 Alpha virt. eigenvalues --    1.67483   1.68539   1.68941   1.70180   1.71281
 Alpha virt. eigenvalues --    1.72690   1.73132   1.74920   1.75211   1.77241
 Alpha virt. eigenvalues --    1.79784   1.80037   1.83349   1.83623   1.86951
 Alpha virt. eigenvalues --    1.88246   1.90220   1.90831   1.93148   1.95045
 Alpha virt. eigenvalues --    1.97510   1.98328   1.99818   2.00431   2.03121
 Alpha virt. eigenvalues --    2.08095   2.09688   2.10523   2.14009   2.14550
 Alpha virt. eigenvalues --    2.16906   2.19771   2.20524   2.22376   2.26410
 Alpha virt. eigenvalues --    2.26991   2.27178   2.28889   2.32732   2.33219
 Alpha virt. eigenvalues --    2.35307   2.35579   2.36852   2.38127   2.40360
 Alpha virt. eigenvalues --    2.42507   2.44895   2.45372   2.48253   2.50738
 Alpha virt. eigenvalues --    2.51835   2.53448   2.57210   2.59644   2.61281
 Alpha virt. eigenvalues --    2.63755   2.65587   2.69249   2.71496   2.73800
 Alpha virt. eigenvalues --    2.74511   2.76786   2.77600   2.78133   2.79105
 Alpha virt. eigenvalues --    2.81695   2.82987   2.84396   2.85575   2.87424
 Alpha virt. eigenvalues --    2.89241   2.92021   2.92847   2.94810   2.95710
 Alpha virt. eigenvalues --    2.97877   2.98495   2.99192   2.99849   3.00074
 Alpha virt. eigenvalues --    3.03066   3.05140   3.07687   3.08507   3.11222
 Alpha virt. eigenvalues --    3.11406   3.12026   3.12776   3.14209   3.16292
 Alpha virt. eigenvalues --    3.18021   3.19136   3.21437   3.22251   3.23681
 Alpha virt. eigenvalues --    3.26752   3.27803   3.29525   3.30130   3.32342
 Alpha virt. eigenvalues --    3.33223   3.36231   3.36706   3.39200   3.40119
 Alpha virt. eigenvalues --    3.42788   3.43458   3.45956   3.48154   3.48380
 Alpha virt. eigenvalues --    3.50784   3.52503   3.55250   3.56838   3.59770
 Alpha virt. eigenvalues --    3.61678   3.62533   3.63646   3.66537   3.69850
 Alpha virt. eigenvalues --    3.71649   3.72284   3.75070   3.78790   3.80493
 Alpha virt. eigenvalues --    3.82889   3.83626   3.85312   3.87174   3.88575
 Alpha virt. eigenvalues --    3.92244   3.93233   3.96719   3.99683   4.01967
 Alpha virt. eigenvalues --    4.04280   4.05434   4.07045   4.08220   4.13817
 Alpha virt. eigenvalues --    4.15391   4.19783   4.21415   4.24329   4.25283
 Alpha virt. eigenvalues --    4.26368   4.26849   4.29701   4.31868   4.34022
 Alpha virt. eigenvalues --    4.34955   4.36830   4.39041   4.41084   4.42207
 Alpha virt. eigenvalues --    4.42814   4.44609   4.47491   4.48149   4.50492
 Alpha virt. eigenvalues --    4.52131   4.55303   4.55757   4.57586   4.58347
 Alpha virt. eigenvalues --    4.60047   4.62286   4.63037   4.65226   4.67439
 Alpha virt. eigenvalues --    4.69191   4.70060   4.72529   4.75156   4.76246
 Alpha virt. eigenvalues --    4.78160   4.80722   4.81159   4.82711   4.84141
 Alpha virt. eigenvalues --    4.85458   4.86751   4.91291   4.92652   4.94212
 Alpha virt. eigenvalues --    4.94633   4.96452   4.97414   5.01901   5.03100
 Alpha virt. eigenvalues --    5.08345   5.10797   5.13716   5.14135   5.17980
 Alpha virt. eigenvalues --    5.24128   5.27912   5.35807   5.38719   5.42742
 Alpha virt. eigenvalues --    5.44805   5.48402   5.50312   5.53103   5.57945
 Alpha virt. eigenvalues --    5.64142   5.70879   5.73176   5.78422   5.86439
 Alpha virt. eigenvalues --    6.23865   9.83282  10.13805  10.59272  10.95349
 Alpha virt. eigenvalues --   11.28967  11.31757  11.40473  11.67418  11.80786
 Alpha virt. eigenvalues --   11.82190  12.15149  12.32113
          Condensed to atoms (all electrons):
               1          2          3          4          5          6
     1  N    6.652354   0.544165  -0.075009  -0.007537  -0.000065   0.000006
     2  C    0.544165   5.022343   0.444346  -0.050710   0.001659  -0.000362
     3  C   -0.075009   0.444346   5.056769   0.528525  -0.048714  -0.018566
     4  C   -0.007537  -0.050710   0.528525   5.032857   0.397644  -0.044528
     5  C   -0.000065   0.001659  -0.048714   0.397644   4.609473   0.476003
     6  C    0.000006  -0.000362  -0.018566  -0.044528   0.476003   4.924615
     7  S    0.000137   0.002702   0.001680  -0.011072  -0.024099   0.441619
     8  C   -0.000040   0.000164  -0.003263  -0.046953   0.525186  -0.044361
     9  C    0.000000   0.000122  -0.000149   0.002943  -0.004710  -0.011579
    10  C    0.000000   0.000026   0.000152   0.000981  -0.002672  -0.000151
    11  C    0.000003  -0.000109   0.000583   0.000251  -0.002003   0.000259
    12  C    0.000016  -0.010674  -0.001053  -0.004192   0.010272   0.002220
    13  S   -0.004789   0.058315  -0.054145   0.010746  -0.004951  -0.000588
    14  H    0.315894  -0.084240  -0.004255   0.001694   0.000009   0.000020
    15  H   -0.006209  -0.041208   0.371447  -0.017146  -0.004480  -0.000240
    16  H    0.001587  -0.005520  -0.070616   0.380048  -0.047601   0.005326
    17  H    0.000001   0.000028   0.000390   0.004345  -0.041325   0.357820
    18  H    0.000007  -0.000623   0.001044  -0.018990  -0.047685   0.005700
    19  H    0.000000   0.000003   0.000106   0.000007  -0.022016   0.004121
    20  H    0.000000  -0.000001   0.000000  -0.000019  -0.000188   0.000008
    21  H    0.000000  -0.000020  -0.000014  -0.000007  -0.000369  -0.000159
    22  H   -0.001209   0.018213   0.001914  -0.001430  -0.000304   0.000012
               7          8          9         10         11         12
     1  N    0.000137  -0.000040   0.000000   0.000000   0.000003   0.000016
     2  C    0.002702   0.000164   0.000122   0.000026  -0.000109  -0.010674
     3  C    0.001680  -0.003263  -0.000149   0.000152   0.000583  -0.001053
     4  C   -0.011072  -0.046953   0.002943   0.000981   0.000251  -0.004192
     5  C   -0.024099   0.525186  -0.004710  -0.002672  -0.002003   0.010272
     6  C    0.441619  -0.044361  -0.011579  -0.000151   0.000259   0.002220
     7  S   15.969992   0.004468   0.000620   0.000016   0.000092  -0.000232
     8  C    0.004468   4.974143   0.503038  -0.087910  -0.021852   0.014106
     9  C    0.000620   0.503038   5.020207   0.538671  -0.062888  -0.031425
    10  C    0.000016  -0.087910   0.538671   5.159675   0.345547  -0.013033
    11  C    0.000092  -0.021852  -0.062888   0.345547   5.056000   0.587602
    12  C   -0.000232   0.014106  -0.031425  -0.013033   0.587602   5.196519
    13  S    0.000041  -0.005628   0.000547   0.005378  -0.039867   0.359619
    14  H   -0.000196   0.000006   0.000000  -0.000000  -0.000000  -0.000033
    15  H    0.003295   0.000005   0.000009  -0.000001  -0.000008  -0.000069
    16  H   -0.000470  -0.017188   0.000724   0.000320   0.000034  -0.007447
    17  H   -0.062121  -0.012832   0.001603   0.000208   0.000512  -0.000381
    18  H   -0.000200   0.339356  -0.069400   0.008342  -0.006235   0.005753
    19  H   -0.000033  -0.042107   0.326799  -0.049955  -0.010878  -0.001711
    20  H    0.000001  -0.010099  -0.040114   0.347980  -0.055889  -0.004887
    21  H    0.000013   0.000754  -0.001646  -0.110843   0.378310  -0.050807
    22  H   -0.000000  -0.000177   0.000148  -0.000227   0.000198  -0.015219
              13         14         15         16         17         18
     1  N   -0.004789   0.315894  -0.006209   0.001587   0.000001   0.000007
     2  C    0.058315  -0.084240  -0.041208  -0.005520   0.000028  -0.000623
     3  C   -0.054145  -0.004255   0.371447  -0.070616   0.000390   0.001044
     4  C    0.010746   0.001694  -0.017146   0.380048   0.004345  -0.018990
     5  C   -0.004951   0.000009  -0.004480  -0.047601  -0.041325  -0.047685
     6  C   -0.000588   0.000020  -0.000240   0.005326   0.357820   0.005700
     7  S    0.000041  -0.000196   0.003295  -0.000470  -0.062121  -0.000200
     8  C   -0.005628   0.000006   0.000005  -0.017188  -0.012832   0.339356
     9  C    0.000547   0.000000   0.000009   0.000724   0.001603  -0.069400
    10  C    0.005378  -0.000000  -0.000001   0.000320   0.000208   0.008342
    11  C   -0.039867  -0.000000  -0.000008   0.000034   0.000512  -0.006235
    12  C    0.359619  -0.000033  -0.000069  -0.007447  -0.000381   0.005753
    13  S   15.370064   0.000865   0.002205  -0.001430   0.000018   0.003389
    14  H    0.000865   0.506824   0.007792   0.000596  -0.000000  -0.000005
    15  H    0.002205   0.007792   0.506385   0.004892   0.000190  -0.000044
    16  H   -0.001430   0.000596   0.004892   0.646081  -0.000125   0.007528
    17  H    0.000018  -0.000000   0.000190  -0.000125   0.606157  -0.000091
    18  H    0.003389  -0.000005  -0.000044   0.007528  -0.000091   0.674198
    19  H    0.000211  -0.000000  -0.000003   0.000010   0.012326   0.010119
    20  H    0.000250  -0.000000  -0.000000   0.000007   0.000015   0.007521
    21  H    0.002484  -0.000000  -0.000000  -0.000016   0.000225   0.000668
    22  H    0.197261   0.000079   0.000005   0.003447   0.000000  -0.000794
              19         20         21         22
     1  N    0.000000   0.000000   0.000000  -0.001209
     2  C    0.000003  -0.000001  -0.000020   0.018213
     3  C    0.000106   0.000000  -0.000014   0.001914
     4  C    0.000007  -0.000019  -0.000007  -0.001430
     5  C   -0.022016  -0.000188  -0.000369  -0.000304
     6  C    0.004121   0.000008  -0.000159   0.000012
     7  S   -0.000033   0.000001   0.000013  -0.000000
     8  C   -0.042107  -0.010099   0.000754  -0.000177
     9  C    0.326799  -0.040114  -0.001646   0.000148
    10  C   -0.049955   0.347980  -0.110843  -0.000227
    11  C   -0.010878  -0.055889   0.378310   0.000198
    12  C   -0.001711  -0.004887  -0.050807  -0.015219
    13  S    0.000211   0.000250   0.002484   0.197261
    14  H   -0.000000  -0.000000  -0.000000   0.000079
    15  H   -0.000003  -0.000000  -0.000000   0.000005
    16  H    0.000010   0.000007  -0.000016   0.003447
    17  H    0.012326   0.000015   0.000225   0.000000
    18  H    0.010119   0.007521   0.000668  -0.000794
    19  H    0.667538   0.007933   0.006251  -0.000001
    20  H    0.007933   0.625839   0.007935   0.000005
    21  H    0.006251   0.007935   0.618645  -0.000126
    22  H   -0.000001   0.000005  -0.000126   0.604827
 Mulliken charges:
               1
     1  N   -0.419312
     2  C    0.101382
     3  C   -0.131171
     4  C   -0.157460
     5  C    0.230937
     6  C   -0.097196
     7  S   -0.326253
     8  C   -0.068815
     9  C   -0.173521
    10  C   -0.142502
    11  C   -0.169661
    12  C   -0.034945
    13  S    0.100005
    14  H    0.254950
    15  H    0.173185
    16  H    0.099814
    17  H    0.133036
    18  H    0.080442
    19  H    0.091281
    20  H    0.113701
    21  H    0.148724
    22  H    0.193379
 Sum of Mulliken charges =  -0.00000
 Mulliken charges with hydrogens summed into heavy atoms:
               1
     1  N   -0.164362
     2  C    0.101382
     3  C    0.042013
     4  C   -0.057646
     5  C    0.230937
     6  C    0.035840
     7  S   -0.326253
     8  C    0.011626
     9  C   -0.082239
    10  C   -0.028801
    11  C   -0.020937
    12  C   -0.034945
    13  S    0.293384
 Electronic spatial extent (au):  <R**2>=           2994.1026
 Charge=             -0.0000 electrons
 Dipole moment (field-independent basis, Debye):
    X=              2.9362    Y=              3.6089    Z=              0.4878  Tot=              4.6780
 Quadrupole moment (field-independent basis, Debye-Ang):
   XX=            -90.6223   YY=            -97.3278   ZZ=            -93.3187
   XY=             -1.1249   XZ=             -0.0825   YZ=              0.4951
 Traceless Quadrupole moment (field-independent basis, Debye-Ang):
   XX=              3.1340   YY=             -3.5715   ZZ=              0.4375
   XY=             -1.1249   XZ=             -0.0825   YZ=              0.4951
 Octapole moment (field-independent basis, Debye-Ang**2):
  XXX=            -12.2985  YYY=             25.3611  ZZZ=             -0.1738  XYY=             40.9285
  XXY=             11.9813  XXZ=              2.1633  XZZ=              1.0093  YZZ=              6.7344
  YYZ=             -1.9866  XYZ=             18.3258
 Hexadecapole moment (field-independent basis, Debye-Ang**3):
 XXXX=          -1928.5343 YYYY=          -1835.6666 ZZZZ=           -401.1449 XXXY=            -19.6575
 XXXZ=             -4.2481 YYYX=             64.1018 YYYZ=            -24.2713 ZZZX=             -2.1950
 ZZZY=              6.3435 XXYY=           -721.2585 XXZZ=           -408.2783 YYZZ=           -382.2643
 XXYZ=              6.9783 YYXZ=             -0.0196 ZZXY=             -7.3358
 N-N= 9.107440306988D+02 E-N=-4.734813984278D+03  KE= 1.231019253101D+03
 PrsmSu:  requested number of processors reduced to:  13 ShMem   1 Linda.
 Calling FoFJK, ICntrl=      2127 FMM=F ISym2X=0 I1Cent= 0 IOpClX= 0 NMat=1 NMatS=1 NMatT=0.
 ***** Axes restored to original set *****
 -------------------------------------------------------------------
 Center     Atomic                   Forces (Hartrees/Bohr)
 Number     Number              X              Y              Z
 -------------------------------------------------------------------
      1        7           0.042104169   -0.030108959   -0.009407210
      2        6          -0.104370045    0.070424187   -0.037818322
      3        6           0.023036601    0.034691316    0.025108208
      4        6           0.004414171   -0.049193383    0.002899537
      5        6          -0.015446577   -0.026115269    0.040390669
      6        6          -0.008633024    0.025160581    0.002417883
      7       16           0.032436732    0.011027382   -0.002118130
      8        6           0.042223293    0.012012008    0.035262349
      9        6          -0.068140128   -0.011491159    0.001680495
     10        6           0.033080807    0.055232520   -0.025733582
     11        6          -0.032393064   -0.030672806    0.012319454
     12        6           0.030031867   -0.019669569   -0.007694749
     13       16           0.019981929   -0.048869858    0.024946533
     14        1           0.028704709    0.005631728   -0.024024618
     15        1          -0.009121770   -0.030634216    0.005392327
     16        1          -0.003243148   -0.006506758    0.007046078
     17        1           0.000938022    0.005885501   -0.000185344
     18        1          -0.006665363    0.004808719    0.012468616
     19        1          -0.002199883   -0.006887301    0.003450859
     20        1          -0.009398996    0.009088562   -0.004092047
     21        1          -0.008176699    0.000281946   -0.054148145
     22        1           0.010836400    0.025904825   -0.008160861
 -------------------------------------------------------------------
 Cartesian Forces:  Max     0.104370045 RMS     0.029106099

 GradGradGradGradGradGradGradGradGradGradGradGradGradGradGradGradGradGrad
 Berny optimization.
 FormGI is forming the generalized inverse of G from B-inverse, IUseBI=4.
 Internal  Forces:  Max     0.085623427 RMS     0.025346629
 Search for a local minimum.
 Step number   1 out of a maximum of  107
 All quantities printed in internal units (Hartrees-Bohrs-Radians)
 Mixed Optimization -- RFO/linear search
 Second derivative matrix not updated -- first step.
 ITU=  0
     Eigenvalues ---    0.00307   0.00537   0.00579   0.00579   0.01247
     Eigenvalues ---    0.01330   0.01593   0.01698   0.01807   0.02071
     Eigenvalues ---    0.02261   0.02357   0.02628   0.02762   0.03098
     Eigenvalues ---    0.03428   0.03662   0.05158   0.06684   0.07585
     Eigenvalues ---    0.10355   0.10651   0.11942   0.13072   0.13287
     Eigenvalues ---    0.13584   0.14777   0.15225   0.15813   0.16000
     Eigenvalues ---    0.16000   0.16803   0.20738   0.22000   0.22422
     Eigenvalues ---    0.23359   0.24026   0.24227   0.24652   0.28612
     Eigenvalues ---    0.29093   0.30935   0.30977   0.31089   0.33465
     Eigenvalues ---    0.34089   0.34122   0.34374   0.34516   0.35762
     Eigenvalues ---    0.36647   0.37469   0.39172   0.39741   0.45304
     Eigenvalues ---    0.46078   0.47443   0.48504   0.52100   0.59687
 RFO step:  Lambda=-1.59187031D-01 EMin= 3.06987323D-03
 Linear search not attempted -- first point.
 Maximum step size (   0.300) exceeded in Quadratic search.
    -- Step size scaled by   0.547
 Iteration  1 RMS(Cart)=  0.11326632 RMS(Int)=  0.00320193
 Iteration  2 RMS(Cart)=  0.00521172 RMS(Int)=  0.00035363
 Iteration  3 RMS(Cart)=  0.00000920 RMS(Int)=  0.00035361
 Iteration  4 RMS(Cart)=  0.00000000 RMS(Int)=  0.00035361
 Variable       Old X    -DE/DX   Delta X   Delta X   Delta X     New X
                                 (Linear)    (Quad)   (Total)
    R1        2.51189  -0.05602   0.00000  -0.04053  -0.04053   2.47136
    R2        2.04456  -0.03773   0.00000  -0.03993  -0.03993   2.00463
    R3        2.63720   0.07949   0.00000   0.07179   0.07160   2.70879
    R4        3.98766   0.01900   0.00000   0.03532   0.03512   4.02279
    R5        2.61414   0.01759   0.00000   0.01736   0.01751   2.63165
    R6        1.99394   0.01818   0.00000   0.01804   0.01804   2.01198
    R7        2.71126   0.01545   0.00000   0.01798   0.01794   2.72920
    R8        2.08242  -0.00930   0.00000  -0.01030  -0.01030   2.07212
    R9        2.86136  -0.04665   0.00000  -0.05446  -0.05446   2.80691
   R10        2.61211  -0.00279   0.00000  -0.00051  -0.00024   2.61186
   R11        3.20082  -0.03428   0.00000  -0.03567  -0.03567   3.16516
   R12        2.06704  -0.00361   0.00000  -0.00392  -0.00392   2.06312
   R13        2.73900  -0.03892   0.00000  -0.03654  -0.03647   2.70254
   R14        2.07180  -0.00549   0.00000  -0.00601  -0.00601   2.06580
   R15        2.57409   0.05896   0.00000   0.04668   0.04691   2.62100
   R16        2.06468   0.00780   0.00000   0.00846   0.00846   2.07314
   R17        2.85366   0.03965   0.00000   0.04238   0.04232   2.89598
   R18        2.07124   0.00044   0.00000   0.00048   0.00048   2.07172
   R19        2.63402  -0.05515   0.00000  -0.05114  -0.05124   2.58278
   R20        2.12544  -0.01386   0.00000  -0.01612  -0.01612   2.10931
   R21        3.32775  -0.03158   0.00000  -0.04201  -0.04202   3.28574
   R22        2.48320   0.02869   0.00000   0.03524   0.03524   2.51844
    A1        1.87620   0.00347   0.00000   0.00594   0.00594   1.88214
    A2        1.93612   0.08562   0.00000   0.11217   0.11275   2.04886
    A3        2.42170  -0.06473   0.00000  -0.08880  -0.08839   2.33332
    A4        1.91301  -0.02095   0.00000  -0.02174  -0.02268   1.89033
    A5        1.79785   0.03457   0.00000   0.06298   0.06178   1.85963
    A6        2.12462  -0.00683   0.00000  -0.00682  -0.00711   2.11751
    A7        2.15711  -0.00972   0.00000  -0.01573  -0.01645   2.14066
    A8        1.95610   0.06139   0.00000   0.09909   0.09933   2.05544
    A9        2.04947  -0.02773   0.00000  -0.03954  -0.03934   2.01013
   A10        2.02341  -0.02582   0.00000  -0.03931  -0.03934   1.98407
   A11        2.13773   0.02628   0.00000   0.03254   0.03219   2.16992
   A12        1.94217  -0.02264   0.00000  -0.02906  -0.02905   1.91311
   A13        2.16047  -0.00712   0.00000  -0.01179  -0.01180   2.14867
   A14        2.24935  -0.00064   0.00000  -0.00092  -0.00092   2.24842
   A15        2.02046  -0.00430   0.00000  -0.00744  -0.00744   2.01301
   A16        2.01330   0.00496   0.00000   0.00842   0.00842   2.02172
   A17        2.26827  -0.02289   0.00000  -0.02613  -0.02650   2.24176
   A18        2.02570   0.00612   0.00000   0.00298   0.00290   2.02860
   A19        1.92207   0.01079   0.00000   0.01084   0.01062   1.93269
   A20        1.92167   0.00189   0.00000   0.00747   0.00785   1.92953
   A21        1.88847   0.01240   0.00000   0.02813   0.02774   1.91621
   A22        1.97258  -0.00658   0.00000  -0.00758  -0.00782   1.96477
   A23        1.94814   0.02218   0.00000   0.03438   0.03421   1.98235
   A24        2.13233  -0.00809   0.00000  -0.01069  -0.01097   2.12136
   A25        2.02805  -0.00454   0.00000  -0.00020  -0.00064   2.02740
   A26        2.20288  -0.02188   0.00000  -0.02969  -0.03030   2.17258
   A27        1.66161   0.05564   0.00000   0.10147   0.10138   1.76299
   A28        2.26792  -0.02824   0.00000  -0.04891  -0.04900   2.21892
   A29        2.11733   0.03685   0.00000   0.04705   0.04600   2.16333
   A30        1.73317  -0.01202   0.00000  -0.01652  -0.01625   1.71692
   A31        1.76890   0.00048   0.00000   0.00760   0.00794   1.77684
   A32        3.28960  -0.00930   0.00000  -0.03252  -0.03274   3.25686
   A33        3.03288  -0.01741   0.00000  -0.05177  -0.05187   2.98101
    D1       -0.26134  -0.00103   0.00000   0.00169   0.00120  -0.26014
    D2        3.07473  -0.00383   0.00000  -0.01602  -0.01554   3.05919
    D3       -1.82030  -0.00504   0.00000  -0.00644  -0.00721  -1.82751
    D4        0.69558   0.01729   0.00000   0.04467   0.04447   0.74004
    D5        1.18562  -0.01216   0.00000  -0.00694  -0.00661   1.17900
    D6       -2.58169   0.01016   0.00000   0.04418   0.04507  -2.53662
    D7        2.75053   0.01059   0.00000   0.03103   0.03096   2.78150
    D8        0.84015   0.00413   0.00000   0.01498   0.01471   0.85487
    D9       -0.19825  -0.00003   0.00000   0.00359   0.00427  -0.19398
   D10       -2.10863  -0.00649   0.00000  -0.01246  -0.01198  -2.12061
   D11       -2.34531   0.01136   0.00000   0.01695   0.01735  -2.32796
   D12        0.06175   0.01161   0.00000   0.02740   0.02757   0.08932
   D13        1.43730  -0.01337   0.00000  -0.04048  -0.04017   1.39712
   D14       -2.43883  -0.01311   0.00000  -0.03003  -0.02996  -2.46879
   D15       -0.44855  -0.00560   0.00000  -0.00511  -0.00489  -0.45344
   D16        2.39322  -0.01963   0.00000  -0.03660  -0.03667   2.35655
   D17       -2.86730  -0.00422   0.00000  -0.01408  -0.01378  -2.88108
   D18       -0.02552  -0.01826   0.00000  -0.04557  -0.04556  -0.07108
   D19       -0.50895  -0.00891   0.00000  -0.01923  -0.01941  -0.52837
   D20        2.61848  -0.00724   0.00000  -0.01370  -0.01388   2.60460
   D21        2.97014   0.00845   0.00000   0.01773   0.01791   2.98805
   D22       -0.18561   0.01012   0.00000   0.02326   0.02344  -0.16217
   D23       -2.74380   0.02893   0.00000   0.07832   0.07804  -2.66576
   D24       -0.03062   0.01428   0.00000   0.04440   0.04423   0.01362
   D25        0.09335   0.02141   0.00000   0.05529   0.05573   0.14908
   D26        2.80653   0.00677   0.00000   0.02138   0.02193   2.82846
   D27        2.15073  -0.01441   0.00000  -0.02937  -0.02898   2.12175
   D28       -0.01291  -0.01565   0.00000  -0.04338  -0.04338  -0.05630
   D29       -0.58213  -0.00011   0.00000   0.00389   0.00425  -0.57788
   D30       -2.74577  -0.00135   0.00000  -0.01013  -0.01016  -2.75592
   D31       -1.04909  -0.02782   0.00000  -0.08314  -0.08272  -1.13181
   D32        1.46651  -0.01317   0.00000  -0.04429  -0.04403   1.42249
   D33        1.06497  -0.01504   0.00000  -0.04685  -0.04663   1.01833
   D34       -2.70262  -0.00040   0.00000  -0.00800  -0.00794  -2.71056
   D35        1.04240   0.01817   0.00000   0.05549   0.05612   1.09852
   D36       -1.57502   0.01352   0.00000   0.02731   0.02747  -1.54755
   D37       -1.51358   0.00663   0.00000   0.02425   0.02456  -1.48903
   D38        2.15219   0.00198   0.00000  -0.00394  -0.00410   2.14809
   D39       -0.96847   0.00448   0.00000   0.01276   0.01343  -0.95504
   D40        0.90874  -0.00331   0.00000  -0.00477  -0.00462   0.90412
   D41        1.62121   0.02892   0.00000   0.08211   0.08238   1.70360
   D42       -2.78477   0.02113   0.00000   0.06458   0.06434  -2.72043
         Item               Value     Threshold  Converged?
 Maximum Force            0.085623     0.000450     NO 
 RMS     Force            0.025347     0.000300     NO 
 Maximum Displacement     0.426638     0.001800     NO 
 RMS     Displacement     0.112281     0.001200     NO 
 Predicted change in Energy=-7.478223D-02
 GradGradGradGradGradGradGradGradGradGradGradGradGradGradGradGradGradGrad

                          Input orientation:                          
 ---------------------------------------------------------------------
 Center     Atomic      Atomic             Coordinates (Angstroms)
 Number     Number       Type             X           Y           Z
 ---------------------------------------------------------------------
      1          7           0        2.842179   -0.129023   -0.647992
      2          6           0        3.672353   -1.005700   -0.145438
      3          6           0        3.332995   -1.584755    1.121156
      4          6           0        4.158619   -0.981970    2.066858
      5          6           0        4.822490   -1.836870    3.023010
      6          6           0        4.317437   -3.166985    3.449603
      7         16           0        2.734634   -3.704193    3.556976
      8          6           0        6.146032   -1.457523    3.143999
      9          6           0        7.270815   -2.259949    3.513079
     10          6           0        8.230023   -2.243986    2.511399
     11          6           0        7.761201   -2.890207    1.203303
     12          6           0        6.725165   -2.429140    0.440382
     13         16           0        5.642065   -1.628529   -0.659219
     14          1           0        1.926863   -0.206905   -0.117487
     15          1           0        2.337480   -1.892152    1.340322
     16          1           0        4.792716   -0.173194    1.684551
     17          1           0        5.085819   -3.892932    3.722586
     18          1           0        6.461515   -0.604443    2.537574
     19          1           0        6.937433   -3.275357    3.760747
     20          1           0        8.943488   -1.417370    2.413614
     21          1           0        8.049074   -3.954693    1.376222
     22          1           0        6.204064   -0.424995   -0.767635
 ---------------------------------------------------------------------
                    Distance matrix (angstroms):
                    1          2          3          4          5
     1  N    0.000000
     2  C    1.307789   0.000000
     3  C    2.343062   1.433432   0.000000
     4  C    3.135434   2.265231   1.392608   0.000000
     5  C    4.507175   3.471703   2.428828   1.444232   0.000000
     6  C    5.309979   4.244008   2.982321   2.590655   1.485350
     7  S    5.520431   4.676435   3.283789   3.414481   2.851518
     8  C    5.201880   4.140486   3.467169   2.310020   1.382138
     9  C    6.439579   5.282690   4.656567   3.662042   2.532481
    10  C    6.594216   5.418901   5.133054   4.285631   3.469693
    11  C    5.937020   4.699909   4.617354   4.167216   3.613429
    12  C    4.642485   3.418921   3.561356   3.365544   3.262042
    13  S    3.176161   2.128767   2.916068   3.170196   3.778083
    14  H    1.060804   1.919790   2.325922   3.217581   4.572107
    15  H    2.704947   2.185216   1.064696   2.161674   3.001627
    16  H    3.040938   2.301552   2.107298   1.096520   2.135457
    17  H    6.188931   5.029473   3.894548   3.474886   2.187724
    18  H    4.844940   3.890885   3.571398   2.380636   2.107350
    19  H    6.790250   5.574080   4.776772   3.981293   2.662046
    20  H    6.946887   5.873933   5.759870   4.817135   4.186881
    21  H    6.770890   5.492513   5.284228   4.944664   4.196181
    22  H    3.377008   2.670937   3.627066   3.539551   4.274474
                    6          7          8          9         10
     6  C    0.000000
     7  S    1.674928   0.000000
     8  C    2.521788   4.105571   0.000000
     9  C    3.090176   4.760746   1.430121   0.000000
    10  C    4.128012   5.781413   2.315540   1.386975   0.000000
    11  C    4.120920   5.609699   2.903042   2.443925   1.532484
    12  C    3.923898   5.221422   2.930696   3.125352   2.566708
    13  S    4.583001   5.526104   3.840272   4.523228   4.138735
    14  H    5.215462   5.136652   5.477475   6.778926   7.126750
    15  H    3.161406   2.890462   4.236416   5.403142   6.018078
    16  H    3.507717   4.495512   2.368745   3.720086   4.097186
    17  H    1.091755   2.364554   2.718461   2.735824   3.751269
    18  H    3.463450   4.953511   1.093172   2.085013   2.411723
    19  H    2.640632   4.229532   2.076347   1.097058   2.072531
    20  H    5.053195   6.714663   2.891511   2.171773   1.096307
    21  H    4.341026   5.749931   3.603119   2.836195   2.061041
    22  H    5.372426   6.441454   4.046031   4.778026   4.262077
                   11         12         13         14         15
    11  C    0.000000
    12  C    1.366749   0.000000
    13  S    3.090559   1.738737   0.000000
    14  H    6.556226   5.317259   4.014625   0.000000
    15  H    5.516487   4.511100   3.871426   2.265805   0.000000
    16  H    4.052858   3.220498   2.886633   3.385498   3.016868
    17  H    3.809188   3.950064   4.963581   6.189665   4.151103
    18  H    2.948590   2.792355   3.455392   5.269768   4.483221
    19  H    2.714305   3.433069   4.891433   7.040022   5.378780
    20  H    2.243191   3.136604   4.515118   7.556768   6.709450
    21  H    1.116201   2.226173   3.917621   7.332023   6.072698
    22  H    3.519452   2.397383   1.332700   4.331825   4.641821
                   16         17         18         19         20
    16  H    0.000000
    17  H    4.251581   0.000000
    18  H    1.923152   3.756454   0.000000
    19  H    4.305092   1.952263   2.975976   0.000000
    20  H    4.394134   4.766910   2.614653   3.048137   0.000000
    21  H    4.999867   3.780227   3.885005   2.717205   2.883430
    22  H    2.840515   5.782658   3.320074   5.400800   4.313885
                   21         22
    21  H    0.000000
    22  H    4.523158   0.000000
 Stoichiometry    C10H9NS2
 Framework group  C1[X(C10H9NS2)]
 Deg. of freedom    60
 Full point group                 C1      NOp   1
 Largest Abelian subgroup         C1      NOp   1
 Largest concise Abelian subgroup C1      NOp   1
                         Standard orientation:                         
 ---------------------------------------------------------------------
 Center     Atomic      Atomic             Coordinates (Angstroms)
 Number     Number       Type             X           Y           Z
 ---------------------------------------------------------------------
      1          7           0       -1.360397    3.407334    0.598155
      2          6           0       -0.765425    2.369734    0.069283
      3          6           0       -1.459743    1.116554    0.116080
      4          6           0       -0.841334    0.357180    1.106171
      5          6           0       -0.516910   -1.015747    0.796936
      6          6           0       -1.233064   -1.839125   -0.210753
      7         16           0       -2.836091   -1.754194   -0.688747
      8          6           0        0.764929   -1.298369    1.229741
      9          6           0        1.683950   -2.265968    0.715542
     10          6           0        2.858283   -1.652385    0.305475
     11          6           0        2.669587   -0.695435   -0.876536
     12          6           0        1.901852    0.434786   -0.842109
     13         16           0        1.203524    2.016542   -0.658828
     14          1           0       -2.381627    3.158446    0.741158
     15          1           0       -2.502646    1.053585   -0.088776
     16          1           0       -0.060096    0.877332    1.673149
     17          1           0       -0.626915   -2.596907   -0.711033
     18          1           0        1.298411   -0.482913    1.725173
     19          1           0        1.206848   -2.841403   -0.087442
     20          1           0        3.647364   -1.388919    1.019495
     21          1           0        2.805598   -1.391653   -1.738328
     22          1           0        1.884158    2.496177    0.381738
 ---------------------------------------------------------------------
 Rotational constants (GHZ):           0.6416277           0.6140018           0.3640531
 Standard basis: 6-31G(2df,p) (6D, 7F)
 There are   456 symmetry adapted cartesian basis functions of A   symmetry.
 There are   417 symmetry adapted basis functions of A   symmetry.
   417 basis functions,   683 primitive gaussians,   456 cartesian basis functions
    54 alpha electrons       54 beta electrons
       nuclear repulsion energy       904.0094446219 Hartrees.
 NAtoms=   22 NActive=   22 NUniq=   22 SFac= 1.00D+00 NAtFMM=   60 NAOKFM=F Big=F
 Integral buffers will be    131072 words long.
 Raffenetti 2 integral format.
 Two-electron integral symmetry is turned on.
 One-electron integrals computed using PRISM.
 PrsmSu:  requested number of processors reduced to:  13 ShMem   1 Linda.
 NBasis=   417 RedAO= T EigKep=  3.81D-04  NBF=   417
 NBsUse=   417 1.00D-06 EigRej= -1.00D+00 NBFU=   417
 Initial guess from the checkpoint file:  "NdC1CdCCqCdSrdCCdCCdCd[SH]1.chk"
 B after Tr=    -0.000000   -0.000000   -0.000000
         Rot=    0.987312    0.003536    0.004926    0.158678 Ang=  18.27 deg.
 ExpMin= 1.17D-01 ExpMax= 2.19D+04 ExpMxC= 3.30D+03 IAcc=2 IRadAn=         4 AccDes= 0.00D+00
 Harris functional with IExCor=  402 and IRadAn=       4 diagonalized for initial guess.
 HarFok:  IExCor=  402 AccDes= 0.00D+00 IRadAn=         4 IDoV= 1 UseB2=F ITyADJ=14
 ICtDFT=  3500011 ScaDFX=  1.000000  1.000000  1.000000  1.000000
 FoFCou: FMM=F IPFlag=           0 FMFlag=      100000 FMFlg1=           0
         NFxFlg=           0 DoJE=T BraDBF=F KetDBF=T FulRan=T
         wScrn=  0.000000 ICntrl=       500 IOpCl=  0 I1Cent=   200000004 NGrid=           0
         NMat0=    1 NMatS0=      1 NMatT0=    0 NMatD0=    1 NMtDS0=    0 NMtDT0=    0
 Petite list used in FoFCou.
 Requested convergence on RMS density matrix=1.00D-08 within 128 cycles.
 Requested convergence on MAX density matrix=1.00D-06.
 Requested convergence on             energy=1.00D-06.
 No special actions if energy rises.
 Integral accuracy reduced to 1.0D-05 until final iterations.
 Initial convergence to 1.0D-05 achieved.  Increase integral accuracy.
 SCF Done:  E(RB3LYP) =  -1237.13558174     A.U. after   20 cycles
            NFock= 20  Conv=0.32D-08     -V/T= 2.0050
 PrsmSu:  requested number of processors reduced to:  13 ShMem   1 Linda.
 Calling FoFJK, ICntrl=      2127 FMM=F ISym2X=0 I1Cent= 0 IOpClX= 0 NMat=1 NMatS=1 NMatT=0.
 ***** Axes restored to original set *****
 -------------------------------------------------------------------
 Center     Atomic                   Forces (Hartrees/Bohr)
 Number     Number              X              Y              Z
 -------------------------------------------------------------------
      1        7           0.040835398   -0.034792777   -0.010597983
      2        6          -0.089195857    0.059975910    0.003287255
      3        6           0.020654976    0.037781860    0.018563119
      4        6           0.001044213   -0.050537135   -0.015875371
      5        6          -0.018699745   -0.015114326    0.027268887
      6        6          -0.008871832    0.020338434    0.001310080
      7       16           0.020943506    0.010945072   -0.004413663
      8        6           0.041114629    0.010291398    0.026596347
      9        6          -0.041764640   -0.021070155   -0.007891647
     10        6           0.012561758    0.044719190   -0.020161568
     11        6          -0.025941497   -0.026816957    0.022149005
     12        6           0.021991273   -0.010415185   -0.009076439
     13       16           0.021994433   -0.033599225    0.013541836
     14        1           0.022928154    0.003292036   -0.012978454
     15        1          -0.004906361   -0.027167038    0.000037105
     16        1          -0.001483880   -0.003436527    0.004947555
     17        1           0.000658852    0.003881513   -0.000195650
     18        1          -0.005108523    0.005238609    0.011769474
     19        1           0.000641034   -0.001684076    0.004050079
     20        1          -0.011003813    0.007876302   -0.004663515
     21        1          -0.004725972    0.002957142   -0.040799437
     22        1           0.006333892    0.017335936   -0.006867017
 -------------------------------------------------------------------
 Cartesian Forces:  Max     0.089195857 RMS     0.023883049

 GradGradGradGradGradGradGradGradGradGradGradGradGradGradGradGradGradGrad
 Berny optimization.
 Using GEDIIS/GDIIS optimizer.
 FormGI is forming the generalized inverse of G from B-inverse, IUseBI=4.
 Internal  Forces:  Max     0.068759686 RMS     0.018104735
 Search for a local minimum.
 Step number   2 out of a maximum of  107
 All quantities printed in internal units (Hartrees-Bohrs-Radians)
 Mixed Optimization -- RFO/linear search
 Update second derivatives using D2CorX and points    1    2
 DE= -7.45D-02 DEPred=-7.48D-02 R= 9.96D-01
 TightC=F SS=  1.41D+00  RLast= 3.81D-01 DXNew= 5.0454D-01 1.1417D+00
 Trust test= 9.96D-01 RLast= 3.81D-01 DXMaxT set to 5.05D-01
 ITU=  1  0
 Use linear search instead of GDIIS.
 Linear search step of   0.600 exceeds DXMaxT=   0.505 but not scaled.
 Quartic linear search produced a step of  2.00000.
 Iteration  1 RMS(Cart)=  0.21952622 RMS(Int)=  0.01179514
 Iteration  2 RMS(Cart)=  0.01795208 RMS(Int)=  0.00215465
 Iteration  3 RMS(Cart)=  0.00008383 RMS(Int)=  0.00215433
 Iteration  4 RMS(Cart)=  0.00000012 RMS(Int)=  0.00215433
 Variable       Old X    -DE/DX   Delta X   Delta X   Delta X     New X
                                 (Linear)    (Quad)   (Total)
    R1        2.47136  -0.05253  -0.08105   0.00000  -0.08105   2.39031
    R2        2.00463  -0.02651  -0.07986   0.00000  -0.07986   1.92477
    R3        2.70879   0.03401   0.14320   0.00000   0.14187   2.85067
    R4        4.02279   0.01537   0.07025   0.00000   0.06931   4.09210
    R5        2.63165  -0.00252   0.03502   0.00000   0.03582   2.66747
    R6        2.01198   0.01244   0.03609   0.00000   0.03609   2.04807
    R7        2.72920   0.00299   0.03589   0.00000   0.03551   2.76471
    R8        2.07212  -0.00512  -0.02060   0.00000  -0.02060   2.05153
    R9        2.80691  -0.03677  -0.10891   0.00000  -0.10891   2.69799
   R10        2.61186   0.00752  -0.00049   0.00000   0.00127   2.61313
   R11        3.16516  -0.02359  -0.07133   0.00000  -0.07133   3.09382
   R12        2.06312  -0.00217  -0.00785   0.00000  -0.00785   2.05527
   R13        2.70254  -0.02665  -0.07293   0.00000  -0.07258   2.62995
   R14        2.06580  -0.00391  -0.01201   0.00000  -0.01201   2.05378
   R15        2.62100   0.03122   0.09381   0.00000   0.09514   2.71614
   R16        2.07314   0.00228   0.01691   0.00000   0.01691   2.09005
   R17        2.89598   0.02035   0.08463   0.00000   0.08402   2.98000
   R18        2.07172  -0.00081   0.00096   0.00000   0.00096   2.07268
   R19        2.58278  -0.04244  -0.10248   0.00000  -0.10309   2.47969
   R20        2.10931  -0.01036  -0.03225   0.00000  -0.03225   2.07707
   R21        3.28574  -0.02755  -0.08403   0.00000  -0.08380   3.20194
   R22        2.51844   0.01888   0.07047   0.00000   0.07047   2.58891
    A1        1.88214   0.00161   0.01188   0.00000   0.01188   1.89402
    A2        2.04886   0.06876   0.22549   0.00000   0.22878   2.27764
    A3        2.33332  -0.06097  -0.17677   0.00000  -0.17392   2.15940
    A4        1.89033  -0.00736  -0.04536   0.00000  -0.05146   1.83887
    A5        1.85963   0.01522   0.12356   0.00000   0.11592   1.97555
    A6        2.11751  -0.00377  -0.01421   0.00000  -0.01576   2.10176
    A7        2.14066  -0.00056  -0.03290   0.00000  -0.03690   2.10376
    A8        2.05544   0.03849   0.19867   0.00000   0.19995   2.25538
    A9        2.01013  -0.01577  -0.07869   0.00000  -0.07750   1.93263
   A10        1.98407  -0.01538  -0.07867   0.00000  -0.07910   1.90497
   A11        2.16992   0.00277   0.06438   0.00000   0.06174   2.23166
   A12        1.91311  -0.01064  -0.05810   0.00000  -0.05778   1.85533
   A13        2.14867   0.00503  -0.02360   0.00000  -0.02325   2.12542
   A14        2.24842  -0.00707  -0.00185   0.00000  -0.00187   2.24655
   A15        2.01301   0.00030  -0.01489   0.00000  -0.01491   1.99810
   A16        2.02172   0.00676   0.01683   0.00000   0.01681   2.03853
   A17        2.24176  -0.01186  -0.05301   0.00000  -0.05462   2.18714
   A18        2.02860   0.00260   0.00581   0.00000   0.00533   2.03394
   A19        1.93269   0.00500   0.02124   0.00000   0.01930   1.95199
   A20        1.92953  -0.00323   0.01570   0.00000   0.01742   1.94695
   A21        1.91621   0.01281   0.05548   0.00000   0.05314   1.96935
   A22        1.96477  -0.00226  -0.01563   0.00000  -0.01660   1.94816
   A23        1.98235   0.01718   0.06842   0.00000   0.06743   2.04978
   A24        2.12136  -0.00579  -0.02194   0.00000  -0.02361   2.09776
   A25        2.02740  -0.00456  -0.00129   0.00000  -0.00400   2.02340
   A26        2.17258  -0.01560  -0.06060   0.00000  -0.06421   2.10837
   A27        1.76299   0.04080   0.20276   0.00000   0.20229   1.96528
   A28        2.21892  -0.01951  -0.09800   0.00000  -0.09854   2.12038
   A29        2.16333   0.01910   0.09199   0.00000   0.08622   2.24955
   A30        1.71692  -0.00958  -0.03250   0.00000  -0.03129   1.68563
   A31        1.77684   0.00469   0.01588   0.00000   0.01790   1.79474
   A32        3.25686  -0.00830  -0.06547   0.00000  -0.06613   3.19074
   A33        2.98101  -0.01100  -0.10374   0.00000  -0.10365   2.87737
    D1       -0.26014   0.00374   0.00241   0.00000   0.00002  -0.26012
    D2        3.05919  -0.00160  -0.03107   0.00000  -0.02868   3.03051
    D3       -1.82751  -0.00416  -0.01442   0.00000  -0.01766  -1.84517
    D4        0.74004   0.01320   0.08893   0.00000   0.08859   0.82863
    D5        1.17900  -0.00771  -0.01323   0.00000  -0.01101   1.16799
    D6       -2.53662   0.00966   0.09013   0.00000   0.09523  -2.44139
    D7        2.78150   0.01172   0.06193   0.00000   0.06215   2.84365
    D8        0.85487   0.00537   0.02943   0.00000   0.02792   0.88279
    D9       -0.19398   0.00035   0.00855   0.00000   0.01340  -0.18058
   D10       -2.12061  -0.00599  -0.02396   0.00000  -0.02083  -2.14144
   D11       -2.32796   0.00365   0.03470   0.00000   0.03703  -2.29092
   D12        0.08932   0.00642   0.05514   0.00000   0.05643   0.14575
   D13        1.39712  -0.01280  -0.08035   0.00000  -0.07806   1.31906
   D14       -2.46879  -0.01003  -0.05991   0.00000  -0.05867  -2.52746
   D15       -0.45344  -0.00181  -0.00978   0.00000  -0.00800  -0.46144
   D16        2.35655  -0.00998  -0.07334   0.00000  -0.07293   2.28363
   D17       -2.88108  -0.00393  -0.02756   0.00000  -0.02550  -2.90657
   D18       -0.07108  -0.01211  -0.09112   0.00000  -0.09042  -0.16151
   D19       -0.52837  -0.00407  -0.03883   0.00000  -0.03970  -0.56806
   D20        2.60460  -0.00513  -0.02777   0.00000  -0.02864   2.57596
   D21        2.98805   0.00806   0.03582   0.00000   0.03668   3.02474
   D22       -0.16217   0.00699   0.04687   0.00000   0.04774  -0.11443
   D23       -2.66576   0.02508   0.15607   0.00000   0.15441  -2.51135
   D24        0.01362   0.01522   0.08847   0.00000   0.08772   0.10134
   D25        0.14908   0.01656   0.11146   0.00000   0.11433   0.26341
   D26        2.82846   0.00670   0.04385   0.00000   0.04764   2.87610
   D27        2.12175  -0.00825  -0.05796   0.00000  -0.05478   2.06697
   D28       -0.05630  -0.01217  -0.08677   0.00000  -0.08626  -0.14256
   D29       -0.57788   0.00140   0.00850   0.00000   0.01115  -0.56673
   D30       -2.75592  -0.00252  -0.02031   0.00000  -0.02033  -2.77625
   D31       -1.13181  -0.02379  -0.16544   0.00000  -0.16263  -1.29443
   D32        1.42249  -0.01287  -0.08805   0.00000  -0.08630   1.33618
   D33        1.01833  -0.01115  -0.09327   0.00000  -0.09172   0.92662
   D34       -2.71056  -0.00023  -0.01588   0.00000  -0.01539  -2.72595
   D35        1.09852   0.01841   0.11224   0.00000   0.11612   1.21464
   D36       -1.54755   0.01142   0.05493   0.00000   0.05560  -1.49195
   D37       -1.48903   0.00907   0.04911   0.00000   0.05137  -1.43765
   D38        2.14809   0.00208  -0.00820   0.00000  -0.00914   2.13895
   D39       -0.95504   0.00337   0.02685   0.00000   0.03125  -0.92379
   D40        0.90412  -0.00266  -0.00923   0.00000  -0.00761   0.89651
   D41        1.70360   0.02372   0.16477   0.00000   0.16613   1.86973
   D42       -2.72043   0.01769   0.12869   0.00000   0.12727  -2.59315
         Item               Value     Threshold  Converged?
 Maximum Force            0.068760     0.000450     NO 
 RMS     Force            0.018105     0.000300     NO 
 Maximum Displacement     0.769762     0.001800     NO 
 RMS     Displacement     0.218403     0.001200     NO 
 Predicted change in Energy=-7.336327D-02
 GradGradGradGradGradGradGradGradGradGradGradGradGradGradGradGradGradGrad

                          Input orientation:                          
 ---------------------------------------------------------------------
 Center     Atomic      Atomic             Coordinates (Angstroms)
 Number     Number       Type             X           Y           Z
 ---------------------------------------------------------------------
      1          7           0        3.101647   -0.001709   -0.870832
      2          6           0        3.678425   -0.907056   -0.201773
      3          6           0        3.292988   -1.556230    1.104215
      4          6           0        4.082398   -1.126742    2.192739
      5          6           0        4.764686   -1.923995    3.212199
      6          6           0        4.419418   -3.227386    3.681601
      7         16           0        2.935439   -3.903109    3.828454
      8          6           0        6.061329   -1.447501    3.274101
      9          6           0        7.194308   -2.224716    3.495816
     10          6           0        8.103551   -2.161766    2.384420
     11          6           0        7.709473   -2.951174    1.077401
     12          6           0        6.706461   -2.554971    0.329841
     13         16           0        5.656601   -1.661979   -0.655717
     14          1           0        2.148991    0.099076   -0.524828
     15          1           0        2.281036   -1.910003    1.263595
     16          1           0        4.721735   -0.299287    1.900950
     17          1           0        5.268254   -3.838808    3.979124
     18          1           0        6.284779   -0.568655    2.675047
     19          1           0        6.951991   -3.269627    3.765438
     20          1           0        8.735829   -1.277511    2.238422
     21          1           0        8.019151   -4.005248    1.110994
     22          1           0        6.275969   -0.442470   -0.733595
 ---------------------------------------------------------------------
                    Distance matrix (angstroms):
                    1          2          3          4          5
     1  N    0.000000
     2  C    1.264898   0.000000
     3  C    2.520706   1.508507   0.000000
     4  C    3.407791   2.438267   1.411564   0.000000
     5  C    4.809576   3.724156   2.597064   1.463020   0.000000
     6  C    5.732901   4.584059   3.271777   2.596728   1.427717
     7  S    6.109978   5.076523   3.613469   3.420423   2.764562
     8  C    5.294384   4.248766   3.519082   2.277805   1.382809
     9  C    6.384297   5.269708   4.624600   3.547892   2.464535
    10  C    6.346775   5.276782   5.014690   4.156643   3.448155
    11  C    5.807496   4.697239   4.631623   4.210487   3.779449
    12  C    4.577712   3.488157   3.639909   3.520786   3.532224
    13  S    3.054596   2.165445   2.948764   3.298225   3.978057
    14  H    1.018543   1.858987   2.588927   3.553288   4.989994
    15  H    2.978383   2.259625   1.083792   2.172951   3.156861
    16  H    3.224285   2.424732   2.063010   1.085622   2.088276
    17  H    6.552831   5.348143   4.168567   3.457272   2.123268
    18  H    4.798647   3.896625   3.520459   2.322620   2.106220
    19  H    6.855613   5.660101   4.837989   3.911509   2.626995
    20  H    6.560422   5.627533   5.566743   4.656096   4.139585
    21  H    6.643628   5.492181   5.323002   4.995397   4.397524
    22  H    3.207713   2.691822   3.676435   3.720673   4.477519
                    6          7          8          9         10
     6  C    0.000000
     7  S    1.637181   0.000000
     8  C    2.455589   4.013540   0.000000
     9  C    2.956328   4.589729   1.391712   0.000000
    10  C    4.048587   5.641532   2.339311   1.437320   0.000000
    11  C    4.205070   5.591589   3.130958   2.577182   1.576946
    12  C    4.113028   5.317741   3.211129   3.220320   2.515504
    13  S    4.774248   5.703960   3.956422   4.462784   3.934435
    14  H    5.823592   5.965488   5.668346   6.857171   7.002278
    15  H    3.486392   3.313490   4.306584   5.405747   5.934755
    16  H    3.440331   4.460231   2.235722   3.516318   3.890919
    17  H    1.087603   2.338560   2.616176   2.559016   3.659844
    18  H    3.400231   4.864875   1.086815   2.059962   2.435241
    19  H    2.534312   4.066689   2.086824   1.106008   2.112027
    20  H    4.951381   6.562506   2.873061   2.203298   1.096813
    21  H    4.491232   5.765340   3.879970   3.088371   2.242133
[...]
 -------------------------------------------------------------------
 Cartesian Forces:  Max     0.009333263 RMS     0.002628907

 GradGradGradGradGradGradGradGradGradGradGradGradGradGradGradGradGradGrad
 Berny optimization.
 Using GEDIIS/GDIIS optimizer.
 FormGI is forming the generalized inverse of G from B-inverse, IUseBI=4.
 Internal  Forces:  Max     0.008732757 RMS     0.001666644
 Search for a local minimum.
 Step number  20 out of a maximum of  107
 All quantities printed in internal units (Hartrees-Bohrs-Radians)
 Mixed Optimization -- RFO/linear search
 Update second derivatives using D2CorX and points   19   20
 DE= -3.47D-03 DEPred=-3.86D-03 R= 8.99D-01
 TightC=F SS=  1.41D+00  RLast= 5.97D-01 DXNew= 5.0454D+00 1.7899D+00
 Trust test= 8.99D-01 RLast= 5.97D-01 DXMaxT set to 3.00D+00
 ITU=  1  1  1  1  1  1 -1  1  1  1  1  1  1  1  1  1  1  0  1  0
 Use linear search instead of GDIIS.
     Eigenvalues ---    0.00014   0.00390   0.00526   0.00597   0.00680
     Eigenvalues ---    0.01545   0.01584   0.01817   0.01898   0.01996
     Eigenvalues ---    0.02157   0.02223   0.02430   0.02676   0.02740
     Eigenvalues ---    0.03022   0.03600   0.04260   0.05173   0.05822
     Eigenvalues ---    0.07219   0.07869   0.11128   0.13025   0.13940
     Eigenvalues ---    0.15293   0.15461   0.15796   0.15941   0.16012
     Eigenvalues ---    0.16278   0.16438   0.19308   0.20616   0.22336
     Eigenvalues ---    0.23189   0.23775   0.26852   0.27945   0.28710
     Eigenvalues ---    0.30897   0.31574   0.32194   0.33448   0.34064
     Eigenvalues ---    0.34298   0.34497   0.34664   0.35636   0.37231
     Eigenvalues ---    0.38680   0.39374   0.41862   0.45870   0.46582
     Eigenvalues ---    0.50535   0.51626   0.53314   0.66579   0.85278
 RFO step:  Lambda=-4.72565392D-03 EMin= 1.39303829D-04
 Quartic linear search produced a step of  0.08818.
 Iteration  1 RMS(Cart)=  0.05696869 RMS(Int)=  0.02852180
 Iteration  2 RMS(Cart)=  0.03016404 RMS(Int)=  0.00743730
 Iteration  3 RMS(Cart)=  0.01061712 RMS(Int)=  0.00074802
 Iteration  4 RMS(Cart)=  0.00002136 RMS(Int)=  0.00074796
 Iteration  5 RMS(Cart)=  0.00000001 RMS(Int)=  0.00074796
 Variable       Old X    -DE/DX   Delta X   Delta X   Delta X     New X
                                 (Linear)    (Quad)   (Total)
    R1        2.29243  -0.00271  -0.00022  -0.00519  -0.00541   2.28703
    R2        1.92294   0.00110  -0.00032   0.00454   0.00422   1.92716
    R3        2.51114   0.00113  -0.00021  -0.01131  -0.01160   2.49953
    R4        9.40127   0.00521   0.02159   0.46221   0.48361   9.88489
    R5        2.69308   0.00126  -0.00099   0.01605   0.01510   2.70817
    R6        2.04525   0.00165  -0.00015   0.01375   0.01360   2.05885
    R7        2.59750  -0.00066   0.00048  -0.01368  -0.01322   2.58429
    R8        2.05456   0.00030   0.00030   0.00424   0.00454   2.05910
    R9        2.71904  -0.00194   0.00062  -0.00037   0.00025   2.71929
   R10        2.80885   0.00016  -0.00021   0.01250   0.01240   2.82125
   R11        3.11860  -0.00085   0.00050   0.00148   0.00198   3.12058
   R12        2.06760  -0.00113  -0.00032  -0.00427  -0.00459   2.06300
   R13        2.52886  -0.00106   0.00072  -0.00527  -0.00432   2.52454
   R14        2.06271  -0.00030  -0.00004  -0.00037  -0.00040   2.06230
   R15        2.82070   0.00215   0.00180   0.03965   0.04162   2.86231
   R16        2.05879  -0.00025  -0.00015   0.00124   0.00109   2.05988
   R17        2.85999  -0.00451   0.00207   0.01384   0.01619   2.87618
   R18        2.06284   0.00067  -0.00006   0.01274   0.01268   2.07552
   R19        2.44592   0.00873  -0.00053   0.01939   0.01882   2.46474
   R20        2.03476  -0.00050   0.00003   0.00018   0.00022   2.03497
   R21        3.25985   0.00105   0.00099   0.00619   0.00716   3.26702
   R22        2.54016   0.00157  -0.00068   0.00892   0.00824   2.54840
    A1        2.09576   0.00006  -0.00062   0.00851   0.00790   2.10365
    A2        3.05527  -0.00195   0.00719  -0.03402  -0.02788   3.02738
    A3        1.60848  -0.00091   0.00508   0.00108   0.00721   1.61569
    A4        1.47034  -0.00051   0.00243  -0.02185  -0.02008   1.45026
    A5        2.06124   0.00145  -0.00105   0.00623   0.00481   2.06605
    A6        2.11528  -0.00229   0.00003  -0.01136  -0.01136   2.10392
    A7        2.10359   0.00080   0.00129   0.00690   0.00820   2.11179
    A8        2.28465  -0.00037   0.00078  -0.00159  -0.00082   2.28383
    A9        1.98785   0.00057  -0.00046   0.00157   0.00112   1.98896
   A10        2.00617  -0.00024  -0.00027   0.00086   0.00053   2.00671
   A11        2.22947  -0.00120   0.00014   0.00307   0.00316   2.23262
   A12        1.95904  -0.00042  -0.00018  -0.00054  -0.00072   1.95832
   A13        2.08709   0.00160   0.00015  -0.00273  -0.00255   2.08454
   A14        2.27937  -0.00132  -0.00010  -0.00320  -0.00334   2.27603
   A15        1.96340   0.00075   0.00028   0.00174   0.00199   1.96539
   A16        2.04019   0.00060  -0.00020   0.00176   0.00153   2.04172
   A17        2.18111   0.00030   0.00024  -0.01451  -0.01349   2.16761
   A18        2.01264   0.00031  -0.00062   0.00368   0.00276   2.01540
   A19        2.05450  -0.00050   0.00023   0.01337   0.01314   2.06764
   A20        2.08634   0.00156  -0.00040   0.02817   0.02692   2.11326
   A21        2.09266  -0.00050   0.00052  -0.00903  -0.00831   2.08435
   A22        2.05237  -0.00068  -0.00051  -0.01074  -0.01094   2.04143
   A23        2.11955  -0.00156  -0.00221  -0.02007  -0.02255   2.09700
   A24        2.02334   0.00185  -0.00022   0.00203  -0.00088   2.02245
   A25        2.10118  -0.00010  -0.00011  -0.00509  -0.00775   2.09344
   A26        1.12866  -0.00004  -0.00265  -0.02065  -0.02326   1.10540
   A27        2.51495   0.00132   0.00134   0.02159   0.02273   2.53768
   A28        2.61731  -0.00174   0.00308  -0.00481  -0.00180   2.61551
   A29        2.09676  -0.00413  -0.00727  -0.07852  -0.08460   2.01216
   A30        1.12580  -0.00077  -0.00091  -0.04751  -0.04515   1.08066
   A31        1.65216   0.00053  -0.00129   0.02777   0.02473   1.67689
   A32        3.33073   0.00353   0.00004   0.04216   0.04253   3.37327
   A33        3.57056   0.00045   0.00271   0.06470   0.06718   3.63774
    D1       -2.89287  -0.00010  -0.02394  -0.06747  -0.09125  -2.98413
    D2       -2.13798  -0.00021  -0.00058  -0.00159  -0.00233  -2.14031
    D3        1.25261  -0.00014   0.02167   0.06219   0.08361   1.33621
    D4       -1.80525   0.00036   0.01853   0.03781   0.05670  -1.74855
    D5        0.49361  -0.00011  -0.00168  -0.00629  -0.00831   0.48530
    D6       -2.56425   0.00038  -0.00482  -0.03066  -0.03523  -2.59947
    D7        3.11894   0.00130   0.00162   0.00683   0.00920   3.12814
    D8        1.72174  -0.00128  -0.00034  -0.04321  -0.04478   1.67696
    D9       -0.08207  -0.00004   0.00337  -0.02085  -0.01727  -0.09934
   D10       -1.47926  -0.00262   0.00142  -0.07089  -0.07125  -1.55051
   D11       -2.88294   0.00029  -0.00337  -0.05185  -0.05456  -2.93750
   D12        0.14980  -0.00009  -0.00281  -0.04175  -0.04409   0.10572
   D13        0.17550  -0.00036  -0.00033  -0.02856  -0.02850   0.14700
   D14       -3.07494  -0.00074   0.00022  -0.01846  -0.01802  -3.09297
   D15       -0.08296  -0.00031   0.00116   0.02090   0.02221  -0.06076
   D16        2.92437  -0.00043   0.00200   0.01881   0.02097   2.94534
   D17       -3.11480   0.00003   0.00060   0.01068   0.01162  -3.10318
   D18       -0.10747  -0.00008   0.00145   0.00860   0.01038  -0.09708
   D19       -0.03513  -0.00131   0.00055  -0.01645  -0.01590  -0.05103
   D20        3.08247   0.00080  -0.00205  -0.00047  -0.00251   3.07996
   D21       -3.03377  -0.00103  -0.00032  -0.01442  -0.01475  -3.04852
   D22        0.08383   0.00108  -0.00292   0.00156  -0.00136   0.08247
   D23       -2.01413   0.00041   0.00164   0.03194   0.03382  -1.98031
   D24        0.83884   0.00072   0.00105   0.04470   0.04603   0.88487
   D25        1.00544   0.00008   0.00241   0.03053   0.03318   1.03861
   D26       -2.42478   0.00039   0.00181   0.04329   0.04539  -2.37939
   D27        2.58896   0.00209  -0.00469   0.08228   0.07805   2.66701
   D28       -0.20436   0.00095  -0.00329   0.05714   0.05408  -0.15028
   D29       -0.25773   0.00165  -0.00395   0.07083   0.06722  -0.19051
   D30       -3.05105   0.00051  -0.00256   0.04568   0.04325  -3.00780
   D31       -2.49657   0.00001  -0.00284  -0.02187  -0.02463  -2.52120
   D32        0.94092  -0.00071   0.00971   0.06398   0.07354   1.01445
   D33        0.30468   0.00115  -0.00401   0.00280  -0.00095   0.30373
   D34       -2.54103   0.00042   0.00854   0.08866   0.09722  -2.44381
   D35        1.67877  -0.00352   0.01306  -0.02413  -0.01120   1.66757
   D36       -1.25941  -0.00093   0.00613  -0.00185   0.00407  -1.25534
   D37       -1.77172  -0.00246  -0.00006  -0.11273  -0.11236  -1.88407
   D38        1.57328   0.00014  -0.00699  -0.09045  -0.09709   1.47620
   D39       -0.83488  -0.00119  -0.00685  -0.01344  -0.02003  -0.85491
   D40        0.38038  -0.00113  -0.00836  -0.03640  -0.04753   0.33285
   D41        2.03586  -0.00057  -0.00165  -0.01714  -0.01717   2.01869
   D42       -3.03207  -0.00051  -0.00316  -0.04010  -0.04467  -3.07674
         Item               Value     Threshold  Converged?
 Maximum Force            0.008733     0.000450     NO 
 RMS     Force            0.001667     0.000300     NO 
 Maximum Displacement     0.346782     0.001800     NO 
 RMS     Displacement     0.080608     0.001200     NO 
 Predicted change in Energy=-3.151173D-03
 GradGradGradGradGradGradGradGradGradGradGradGradGradGradGradGradGradGrad

                          Input orientation:                          
 ---------------------------------------------------------------------
 Center     Atomic      Atomic             Coordinates (Angstroms)
 Number     Number       Type             X           Y           Z
 ---------------------------------------------------------------------
      1          7           0        1.989180   -0.333445   -0.723789
      2          6           0        2.225301   -0.761355    0.383381
      3          6           0        2.552015   -1.344608    1.524697
      4          6           0        3.907566   -1.242191    1.978327
      5          6           0        4.568497   -1.900857    2.978083
      6          6           0        4.033871   -2.856735    3.911439
      7         16           0        2.489268   -3.403360    4.117179
      8          6           0        6.042830   -1.671706    2.926106
      9          6           0        6.941096   -2.621713    2.651677
     10          6           0        8.276993   -2.277510    2.026271
     11          6           0        8.918603   -3.225805    1.023486
     12          6           0        8.213141   -2.244679    0.532704
     13         16           0        7.259930   -1.603345   -0.759169
     14          1           0        1.602135    0.602123   -0.845944
     15          1           0        1.818864   -1.932688    2.075749
     16          1           0        4.530000   -0.587962    1.368529
     17          1           0        4.798968   -3.275160    4.568206
     18          1           0        6.353546   -0.627582    2.860905
     19          1           0        6.618945   -3.661150    2.588578
     20          1           0        8.900951   -1.569283    2.587875
     21          1           0        9.418818   -4.170233    0.891304
     22          1           0        6.933939   -0.451626   -0.137984
 ---------------------------------------------------------------------
                    Distance matrix (angstroms):
                    1          2          3          4          5
     1  N    0.000000
     2  C    1.210242   0.000000
     3  C    2.528818   1.322697   0.000000
     4  C    3.436198   2.367504   1.433104   0.000000
     5  C    4.776349   3.677161   2.547145   1.367546   0.000000
     6  C    5.659778   4.484276   3.190449   2.521829   1.438987
     7  S    5.754080   4.581606   3.311097   3.355131   2.806822
     8  C    5.616471   4.676293   3.775809   2.375315   1.492940
     9  C    6.414936   5.553812   4.707984   3.399821   2.501080
    10  C    7.132938   6.451418   5.822135   4.490666   3.847175
    11  C    7.709450   7.161253   6.657594   5.473293   4.949683
    12  C    6.630933   6.170638   5.817432   4.651105   4.402444
    13  S    5.421688   5.230857   5.239031   4.343117   4.615124
    14  H    1.019810   1.938723   3.211225   4.085708   5.448614
    15  H    3.228622   2.097932   1.089499   2.202034   2.894081
    16  H    3.301263   2.512413   2.123517   1.089630   2.077460
    17  H    6.674864   5.518672   4.247209   3.411016   2.114313
    18  H    5.655461   4.816475   4.092825   2.671986   2.195759
    19  H    6.593945   5.707522   4.799805   3.684473   2.730326
    20  H    7.763182   7.076500   6.441259   5.041075   4.362609
    21  H    8.516395   7.976536   7.452404   6.334741   5.747201
    22  H    4.980740   4.747529   4.771078   3.776599   4.171985
                    6          7          8          9         10
     6  C    0.000000
     7  S    1.651340   0.000000
     8  C    2.532014   4.128569   0.000000
     9  C    3.177136   4.751572   1.335929   0.000000
    10  C    4.679044   6.255973   2.483583   1.514671   0.000000
    11  C    5.686571   7.137143   3.782229   2.631818   1.522007
    12  C    5.408952   6.852278   3.281298   2.500059   1.495292
    13  S    5.813176   7.055355   3.881656   3.573877   3.040985
    14  H    6.364725   6.439215   6.254472   7.150592   7.816369
    15  H    3.021569   2.603797   4.316609   5.200357   6.467518
    16  H    3.443816   4.432395   2.426768   3.405289   4.162590
    17  H    1.091694   2.356814   2.610508   2.947676   4.421923
    18  H    3.384322   4.920956   1.091325   2.089390   2.668056
    19  H    3.013246   4.411043   2.098505   1.090043   2.231541
    20  H    5.205557   6.841951   2.879887   2.225469   1.098320
    21  H    6.312222   7.681993   4.666942   3.411148   2.484817
    22  H    5.531073   6.824533   3.416331   3.534337   3.133951
                   11         12         13         14         15
    11  C    0.000000
    12  C    1.304282   0.000000
    13  S    2.925992   1.728830   0.000000
    14  H    8.466316   7.328734   6.073076   0.000000
    15  H    7.292853   6.585218   6.144138   3.874083   0.000000
    16  H    5.131969   4.124177   3.607023   3.859091   3.107846
    17  H    5.434968   5.385512   6.101821   7.386886   4.110425
    18  H    4.087345   3.390223   3.857276   6.150513   4.783630
    19  H    2.815576   2.962173   3.981561   7.425618   5.127509
    20  H    2.278528   2.270016   3.727843   8.353372   7.109873
    21  H    1.076861   2.300002   3.738151   9.321692   8.010545
    22  H    3.603329   2.302438   1.348554   5.480850   5.766988
                   16         17         18         19         20
    16  H    0.000000
    17  H    4.187041   0.000000
    18  H    2.356709   3.513013   0.000000
    19  H    3.911099   2.716659   3.057308   0.000000
    20  H    4.642738   4.863949   2.729582   3.095717   0.000000
    21  H    6.079552   5.971916   5.081889   3.313487   3.148250
    22  H    2.840263   5.888860   3.059600   4.223080   3.542401
                   21         22
    21  H    0.000000
    22  H    4.589346   0.000000
 Stoichiometry    C10H9NS2
 Framework group  C1[X(C10H9NS2)]
 Deg. of freedom    60
 Full point group                 C1      NOp   1
 Largest Abelian subgroup         C1      NOp   1
 Largest concise Abelian subgroup C1      NOp   1
                         Standard orientation:                         
 ---------------------------------------------------------------------
 Center     Atomic      Atomic             Coordinates (Angstroms)
 Number     Number       Type             X           Y           Z
 ---------------------------------------------------------------------
      1          7           0       -2.170442    3.736080   -0.153827
      2          6           0       -2.315168    2.545573    0.008758
      3          6           0       -2.383823    1.225912    0.066288
      4          6           0       -1.262316    0.508000    0.596018
      5          6           0       -0.967512   -0.827321    0.582275
      6          6           0       -1.771293   -1.905183    0.069605
      7         16           0       -3.286501   -1.892097   -0.586825
      8          6           0        0.434418   -1.100076    1.017094
      9          6           0        1.386625   -1.589374    0.217972
     10          6           0        2.849899   -1.292131    0.472345
     11          6           0        3.806095   -1.103541   -0.696684
     12          6           0        3.292950   -0.021571   -0.179792
     13         16           0        2.821782    1.631669   -0.363236
     14          1           0       -2.507484    4.398998    0.543993
     15          1           0       -3.251027    0.698765   -0.330043
     16          1           0       -0.480504    1.147582    1.004675
     17          1           0       -1.266348   -2.871143    0.130827
     18          1           0        0.733368   -0.633701    1.957367
     19          1           0        1.120105   -1.943988   -0.777723
     20          1           0        3.237335   -1.596663    1.453905
     21          1           0        4.335562   -1.592889   -1.496579
     22          1           0        2.288337    1.765598    0.868062
 ---------------------------------------------------------------------
 Rotational constants (GHZ):           0.6984490           0.3594568           0.2507050
 Standard basis: 6-31G(2df,p) (6D, 7F)
 There are   456 symmetry adapted cartesian basis functions of A   symmetry.
 There are   417 symmetry adapted basis functions of A   symmetry.
   417 basis functions,   683 primitive gaussians,   456 cartesian basis functions
    54 alpha electrons       54 beta electrons
       nuclear repulsion energy       836.1946162717 Hartrees.
 NAtoms=   22 NActive=   22 NUniq=   22 SFac= 1.00D+00 NAtFMM=   60 NAOKFM=F Big=F
 Integral buffers will be    131072 words long.
 Raffenetti 2 integral format.
 Two-electron integral symmetry is turned on.
 One-electron integrals computed using PRISM.
 PrsmSu:  requested number of processors reduced to:  13 ShMem   1 Linda.
 NBasis=   417 RedAO= T EigKep=  1.65D-04  NBF=   417
 NBsUse=   417 1.00D-06 EigRej= -1.00D+00 NBFU=   417
 Initial guess from the checkpoint file:  "NdC1CdCCqCdSrdCCdCCdCd[SH]1.chk"
 B after Tr=     0.000000   -0.000000   -0.000000
         Rot=    0.999998    0.000904    0.001459    0.000750 Ang=   0.21 deg.
 ExpMin= 1.17D-01 ExpMax= 2.19D+04 ExpMxC= 3.30D+03 IAcc=2 IRadAn=         4 AccDes= 0.00D+00
 Harris functional with IExCor=  402 and IRadAn=       4 diagonalized for initial guess.
 HarFok:  IExCor=  402 AccDes= 0.00D+00 IRadAn=         4 IDoV= 1 UseB2=F ITyADJ=14
 ICtDFT=  3500011 ScaDFX=  1.000000  1.000000  1.000000  1.000000
 FoFCou: FMM=F IPFlag=           0 FMFlag=      100000 FMFlg1=           0
         NFxFlg=           0 DoJE=T BraDBF=F KetDBF=T FulRan=T
         wScrn=  0.000000 ICntrl=       500 IOpCl=  0 I1Cent=   200000004 NGrid=           0
         NMat0=    1 NMatS0=      1 NMatT0=    0 NMatD0=    1 NMtDS0=    0 NMtDT0=    0
 Petite list used in FoFCou.
 Requested convergence on RMS density matrix=1.00D-08 within 128 cycles.
 Requested convergence on MAX density matrix=1.00D-06.
 Requested convergence on             energy=1.00D-06.
 No special actions if energy rises.
 Integral accuracy reduced to 1.0D-05 until final iterations.
 Initial convergence to 1.0D-05 achieved.  Increase integral accuracy.
slurmstepd: error: *** JOB 27447140 ON lewis4-r630-hpc4rc-node369 CANCELLED AT 2023-05-17T00:24:44 DUE TO TIME LIMIT ***
