### Starting Gaussian ###
 Entering Gaussian System, Link 0=g16
 Initial command:
 /cluster/software/gaussian/gaussian-16-A.03/avx2/g16/l1.exe "/local/scratch/linjian/Gau-8209.inp" -scrdir="/local/scratch/linjian/"
 Entering Link 1 = /cluster/software/gaussian/gaussian-16-A.03/avx2/g16/l1.exe PID=      8210.
  
 Copyright (c) 1988,1990,1992,1993,1995,1998,2003,2009,2016,
            Gaussian, Inc.  All Rights Reserved.
  
 This is part of the Gaussian(R) 16 program.  It is based on
 the Gaussian(R) 09 system (copyright 2009, Gaussian, Inc.),
 the Gaussian(R) 03 system (copyright 2003, Gaussian, Inc.),
 the Gaussian(R) 98 system (copyright 1998, Gaussian, Inc.),
 the Gaussian(R) 94 system (copyright 1995, Gaussian, Inc.),
 the Gaussian 92(TM) system (copyright 1992, Gaussian, Inc.),
 the Gaussian 90(TM) system (copyright 1990, Gaussian, Inc.),
 the Gaussian 88(TM) system (copyright 1988, Gaussian, Inc.),
 the Gaussian 86(TM) system (copyright 1986, Carnegie Mellon
 University), and the Gaussian 82(TM) system (copyright 1983,
 Carnegie Mellon University). Gaussian is a federally registered
 trademark of Gaussian, Inc.
  
 This software contains proprietary and confidential information,
 including trade secrets, belonging to Gaussian, Inc.
  
 This software is provided under written license and may be
 used, copied, transmitted, or stored only in accord with that
 written license.
  
 The following legend is applicable only to US Government
 contracts under FAR:
  
                    RESTRICTED RIGHTS LEGEND
  
 Use, reproduction and disclosure by the US Government is
 subject to restrictions as set forth in subparagraphs (a)
 and (c) of the Commercial Computer Software - Restricted
 Rights clause in FAR 52.227-19.
  
 Gaussian, Inc.
 340 Quinnipiac St., Bldg. 40, Wallingford CT 06492
  
  
 ---------------------------------------------------------------
 Warning -- This program may not be used in any manner that
 competes with the business of Gaussian, Inc. or will provide
 assistance to any competitor of Gaussian, Inc.  The licensee
 of this program is prohibited from giving any competitor of
 Gaussian, Inc. access to this program.  By using this program,
 the user acknowledges that Gaussian, Inc. is engaged in the
 business of creating and licensing software in the field of
 computational chemistry and represents and warrants to the
 licensee that it is not a competitor of Gaussian, Inc. and that
 it will not use this program in any manner prohibited above.
 ---------------------------------------------------------------
  

 Cite this work as:
 Gaussian 16, Revision A.03,
 M. J. Frisch, G. W. Trucks, H. B. Schlegel, G. E. Scuseria, 
 M. A. Robb, J. R. Cheeseman, G. Scalmani, V. Barone, 
 G. A. Petersson, H. Nakatsuji, X. Li, M. Caricato, A. V. Marenich, 
 J. Bloino, B. G. Janesko, R. Gomperts, B. Mennucci, H. P. Hratchian, 
 J. V. Ortiz, A. F. Izmaylov, J. L. Sonnenberg, D. Williams-Young, 
 F. Ding, F. Lipparini, F. Egidi, J. Goings, B. Peng, A. Petrone, 
 T. Henderson, D. Ranasinghe, V. G. Zakrzewski, J. Gao, N. Rega, 
 G. Zheng, W. Liang, M. Hada, M. Ehara, K. Toyota, R. Fukuda, 
 J. Hasegawa, M. Ishida, T. Nakajima, Y. Honda, O. Kitao, H. Nakai, 
 T. Vreven, K. Throssell, J. A. Montgomery, Jr., J. E. Peralta, 
 F. Ogliaro, M. J. Bearpark, J. J. Heyd, E. N. Brothers, K. N. Kudin, 
 V. N. Staroverov, T. A. Keith, R. Kobayashi, J. Normand, 
 K. Raghavachari, A. P. Rendell, J. C. Burant, S. S. Iyengar, 
 J. Tomasi, M. Cossi, J. M. Millam, M. Klene, C. Adamo, R. Cammi, 
 J. W. Ochterski, R. L. Martin, K. Morokuma, O. Farkas, 
 J. B. Foresman, and D. J. Fox, Gaussian, Inc., Wallingford CT, 2016.
 
 ******************************************
 Gaussian 16:  ES64L-G16RevA.03 25-Dec-2016
                17-May-2023 
 ******************************************
 %chk=NdC1CdCdNCdCNdCC2dCCqdNrCqdCCdC1rCCNN2.chk
 %NProcShared=20
 Will use up to   20 processors via shared memory.
 -----------------------------
 # opt freq b3lyp/6-31g(2df,p)
 -----------------------------
 1/18=20,19=15,26=3,38=1/1,3;
 2/9=110,12=2,17=6,18=5,40=1/2;
 3/5=1,6=6,7=104,11=2,25=1,30=1,71=1,74=-5/1,2,3;
 4//1;
 5/5=2,38=5/2;
 6/7=2,8=2,9=2,10=2,28=1/1;
 7//1,2,3,16;
 1/18=20,19=15,26=3/3(2);
 2/9=110/2;
 99//99;
 2/9=110/2;
 3/5=1,6=6,7=104,11=2,25=1,30=1,71=1,74=-5/1,2,3;
 4/5=5,16=3,69=1/1;
 5/5=2,38=5/2;
 7//1,2,3,16;
 1/18=20,19=15,26=3/3(-5);
 2/9=110/2;
 6/7=2,8=2,9=2,10=2,19=2,28=1/1;
 99/9=1/99;
 -------------------
 Title Card Required
 -------------------
 Symbolic Z-matrix:
 Charge =  0 Multiplicity = 1
 N                     2.78836  -0.05091  -1.39839 
 C                     4.42096   0.09635  -1.5677 
 C                     3.77364   0.39052   0.23625 
 C                     4.75498   0.43771   1.00327 
 N                     5.88325   0.49558   1.20829 
 C                     6.49581   1.04008   0.09661 
 C                     7.8253    1.06524  -0.01324 
 N                     8.48114   1.66698  -1.06543 
 C                     9.7797    1.68077  -1.07573 
 C                     10.60538   2.35834  -2.15197 
 C                     11.63807   1.57129  -2.51547 
 C                     12.26401   1.74301  -3.823 
 N                     13.47079   2.25302  -3.96248 
 C                     10.92358   1.09492  -4.80641 
 C                     9.62443   0.13729  -4.50414 
 C                     7.69825   0.01228  -3.96365 
 C                     6.04741   0.01936  -2.90803 
 C                     10.1025   2.22364  -5.04772 
 C                     10.48623   3.63858  -5.108 
 N                     10.82173   4.20838  -3.79477 
 N                     10.14829   3.56758  -2.7021 
 H                     1.90792   0.07908  -0.35604 
 H                     2.78647   0.57995   1.14107 
 H                     5.93306   1.49724  -0.73367 
 H                     8.36454   0.61773   0.81329 
 H                     10.3906   1.19462  -0.29113 
 H                     11.8368   0.6132   -2.07032 
 H                     13.95753   2.55495  -3.06315 
 H                     10.69531  -0.2032   -5.46119 
 H                     8.13254  -0.16199  -5.26617 
 H                     4.97479  -0.58407  -3.18832 
 H                     9.56495   2.03454  -4.13212 
 H                     9.52304   1.92666  -5.91021 
 H                     9.58059   4.09564  -5.51152 
 H                     11.30341   3.7534   -5.82705 
 H                     10.65441   5.21407  -3.8435 
 H                     9.30555   3.96947  -2.27351 
 
 Add virtual bond connecting atoms H23        and C3         Dist= 2.56D+00.
 Add virtual bond connecting atoms H22        and N1         Dist= 2.59D+00.
 Add virtual bond connecting atoms H30        and C16        Dist= 2.62D+00.
 Add virtual bond connecting atoms H29        and C14        Dist= 2.78D+00.
 Add virtual bond connecting atoms H29        and C15        Dist= 2.79D+00.
 Add virtual bond connecting atoms H30        and C15        Dist= 3.22D+00.
 Add virtual bond connecting atoms C3         and N1         Dist= 3.70D+00.
 Add virtual bond connecting atoms C3         and C2         Dist= 3.66D+00.
 Add virtual bond connecting atoms H23        and H22        Dist= 3.41D+00.
 Add virtual bond connecting atoms C17        and C16        Dist= 3.70D+00.
 Add virtual bond connecting atoms H31        and C2         Dist= 3.48D+00.

 GradGradGradGradGradGradGradGradGradGradGradGradGradGradGradGradGradGrad
 Berny optimization.
 Initialization pass.
                           ----------------------------
                           !    Initial Parameters    !
                           ! (Angstroms and Degrees)  !
 --------------------------                            --------------------------
 ! Name  Definition              Value          Derivative Info.                !
 --------------------------------------------------------------------------------
 ! R1    R(1,2)                  1.6479         estimate D2E/DX2                !
 ! R2    R(1,3)                  1.959          estimate D2E/DX2                !
 ! R3    R(1,22)                 1.3706         estimate D2E/DX2                !
 ! R4    R(2,3)                  1.939          estimate D2E/DX2                !
 ! R5    R(2,31)                 1.8429         estimate D2E/DX2                !
 ! R6    R(3,4)                  1.2464         estimate D2E/DX2                !
 ! R7    R(3,23)                 1.3524         estimate D2E/DX2                !
 ! R8    R(4,5)                  1.1482         estimate D2E/DX2                !
 ! R9    R(5,6)                  1.3811         estimate D2E/DX2                !
 ! R10   R(6,7)                  1.3343         estimate D2E/DX2                !
 ! R11   R(6,24)                 1.1023         estimate D2E/DX2                !
 ! R12   R(7,8)                  1.3782         estimate D2E/DX2                !
 ! R13   R(7,25)                 1.0836         estimate D2E/DX2                !
 ! R14   R(8,9)                  1.2987         estimate D2E/DX2                !
 ! R15   R(9,10)                 1.5163         estimate D2E/DX2                !
 ! R16   R(9,26)                 1.1069         estimate D2E/DX2                !
 ! R17   R(10,11)                1.3483         estimate D2E/DX2                !
 ! R18   R(10,21)                1.4049         estimate D2E/DX2                !
 ! R19   R(11,12)                1.4598         estimate D2E/DX2                !
 ! R20   R(11,27)                1.075          estimate D2E/DX2                !
 ! R21   R(12,13)                1.3175         estimate D2E/DX2                !
 ! R22   R(12,14)                1.7843         estimate D2E/DX2                !
 ! R23   R(13,28)                1.0662         estimate D2E/DX2                !
 ! R24   R(14,15)                1.642          estimate D2E/DX2                !
 ! R25   R(14,18)                1.4165         estimate D2E/DX2                !
 ! R26   R(14,29)                1.4717         estimate D2E/DX2                !
 ! R27   R(15,29)                1.476          estimate D2E/DX2                !
 ! R28   R(15,30)                1.7018         estimate D2E/DX2                !
 ! R29   R(16,17)                1.9595         estimate D2E/DX2                !
 ! R30   R(16,30)                1.384          estimate D2E/DX2                !
 ! R31   R(17,31)                1.2622         estimate D2E/DX2                !
 ! R32   R(18,19)                1.4673         estimate D2E/DX2                !
 ! R33   R(18,32)                1.0784         estimate D2E/DX2                !
 ! R34   R(18,33)                1.0807         estimate D2E/DX2                !
 ! R35   R(19,20)                1.4703         estimate D2E/DX2                !
 ! R36   R(19,34)                1.0917         estimate D2E/DX2                !
 ! R37   R(19,35)                1.0945         estimate D2E/DX2                !
 ! R38   R(20,21)                1.4346         estimate D2E/DX2                !
 ! R39   R(20,36)                1.0207         estimate D2E/DX2                !
 ! R40   R(21,37)                1.0273         estimate D2E/DX2                !
 ! R41   R(22,23)                1.8067         estimate D2E/DX2                !
 ! A1    A(2,1,22)             134.9143         estimate D2E/DX2                !
 ! A2    A(3,1,22)              70.5568         estimate D2E/DX2                !
 ! A3    A(1,2,31)             110.7987         estimate D2E/DX2                !
 ! A4    A(1,3,4)              156.6356         estimate D2E/DX2                !
 ! A5    A(1,3,23)             102.8679         estimate D2E/DX2                !
 ! A6    A(2,3,4)              108.3858         estimate D2E/DX2                !
 ! A7    A(2,3,23)             152.5422         estimate D2E/DX2                !
 ! A8    A(4,3,23)              99.072          estimate D2E/DX2                !
 ! A9    A(3,4,5)              152.306          estimate D2E/DX2                !
 ! A10   A(4,5,6)              108.1778         estimate D2E/DX2                !
 ! A11   A(5,6,7)              121.0399         estimate D2E/DX2                !
 ! A12   A(5,6,24)             122.9122         estimate D2E/DX2                !
 ! A13   A(7,6,24)             116.0317         estimate D2E/DX2                !
 ! A14   A(6,7,8)              123.0432         estimate D2E/DX2                !
 ! A15   A(6,7,25)             115.1679         estimate D2E/DX2                !
 ! A16   A(8,7,25)             121.7256         estimate D2E/DX2                !
 ! A17   A(7,8,9)              119.1128         estimate D2E/DX2                !
 ! A18   A(8,9,10)             123.7015         estimate D2E/DX2                !
 ! A19   A(8,9,26)             122.7918         estimate D2E/DX2                !
 ! A20   A(10,9,26)            113.5068         estimate D2E/DX2                !
 ! A21   A(9,10,11)            110.3388         estimate D2E/DX2                !
 ! A22   A(9,10,21)            119.0376         estimate D2E/DX2                !
 ! A23   A(11,10,21)           130.2429         estimate D2E/DX2                !
 ! A24   A(10,11,12)           120.0808         estimate D2E/DX2                !
 ! A25   A(10,11,27)           123.3805         estimate D2E/DX2                !
 ! A26   A(12,11,27)           113.3587         estimate D2E/DX2                !
 ! A27   A(11,12,13)           122.2159         estimate D2E/DX2                !
 ! A28   A(11,12,14)            97.4009         estimate D2E/DX2                !
 ! A29   A(13,12,14)           140.383          estimate D2E/DX2                !
 ! A30   A(12,13,28)           116.005          estimate D2E/DX2                !
 ! A31   A(12,14,15)           134.8077         estimate D2E/DX2                !
 ! A32   A(12,14,18)           103.8819         estimate D2E/DX2                !
 ! A33   A(12,14,29)           133.007          estimate D2E/DX2                !
 ! A34   A(15,14,18)            92.1469         estimate D2E/DX2                !
 ! A35   A(18,14,29)           122.49           estimate D2E/DX2                !
 ! A36   A(14,15,30)           135.541          estimate D2E/DX2                !
 ! A37   A(29,15,30)           107.7658         estimate D2E/DX2                !
 ! A38   A(17,16,30)           140.5163         estimate D2E/DX2                !
 ! A39   A(16,17,31)           126.4821         estimate D2E/DX2                !
 ! A40   A(14,18,19)           128.5959         estimate D2E/DX2                !
 ! A41   A(14,18,32)            90.2621         estimate D2E/DX2                !
 ! A42   A(14,18,33)           103.1675         estimate D2E/DX2                !
 ! A43   A(19,18,32)           109.5315         estimate D2E/DX2                !
 ! A44   A(19,18,33)           111.8665         estimate D2E/DX2                !
 ! A45   A(32,18,33)           111.2313         estimate D2E/DX2                !
 ! A46   A(18,19,20)           113.3716         estimate D2E/DX2                !
 ! A47   A(18,19,34)           101.6514         estimate D2E/DX2                !
 ! A48   A(18,19,35)           108.8689         estimate D2E/DX2                !
 ! A49   A(20,19,34)           110.9262         estimate D2E/DX2                !
 ! A50   A(20,19,35)           112.0705         estimate D2E/DX2                !
 ! A51   A(34,19,35)           109.4266         estimate D2E/DX2                !
 ! A52   A(19,20,21)           113.5823         estimate D2E/DX2                !
 ! A53   A(19,20,36)           107.5657         estimate D2E/DX2                !
 ! A54   A(21,20,36)           113.5486         estimate D2E/DX2                !
 ! A55   A(10,21,20)           122.0036         estimate D2E/DX2                !
 ! A56   A(10,21,37)           116.119          estimate D2E/DX2                !
 ! A57   A(20,21,37)           121.8767         estimate D2E/DX2                !
 ! A58   A(1,22,23)            110.1278         estimate D2E/DX2                !
 ! A59   A(3,23,22)             76.2149         estimate D2E/DX2                !
 ! A60   A(15,30,16)            80.301          estimate D2E/DX2                !
 ! A61   A(2,31,17)             83.315          estimate D2E/DX2                !
 ! A62   L(3,2,31,7,-1)        183.6728         estimate D2E/DX2                !
 ! A63   L(3,2,31,7,-2)        167.4172         estimate D2E/DX2                !
 ! D1    D(22,1,2,31)          167.4318         estimate D2E/DX2                !
 ! D2    D(22,1,3,4)           155.2997         estimate D2E/DX2                !
 ! D3    D(22,1,3,23)           -4.1931         estimate D2E/DX2                !
 ! D4    D(2,1,22,23)            2.3588         estimate D2E/DX2                !
 ! D5    D(3,1,22,23)            3.258          estimate D2E/DX2                !
 ! D6    D(1,2,3,31)            76.6663         estimate D2E/DX2                !
 ! D7    D(4,3,31,17)          -31.5625         estimate D2E/DX2                !
 ! D8    D(23,3,31,17)         162.2803         estimate D2E/DX2                !
 ! D9    D(1,2,31,17)          166.5769         estimate D2E/DX2                !
 ! D10   D(1,3,4,5)             30.827          estimate D2E/DX2                !
 ! D11   D(2,3,4,5)             10.5585         estimate D2E/DX2                !
 ! D12   D(23,3,4,5)          -169.4068         estimate D2E/DX2                !
 ! D13   D(1,3,23,22)            3.0874         estimate D2E/DX2                !
 ! D14   D(2,3,23,22)           11.2465         estimate D2E/DX2                !
 ! D15   D(4,3,23,22)         -168.8248         estimate D2E/DX2                !
 ! D16   D(3,4,5,6)             22.6746         estimate D2E/DX2                !
 ! D17   D(4,5,6,7)           -171.2232         estimate D2E/DX2                !
 ! D18   D(4,5,6,24)            10.2959         estimate D2E/DX2                !
 ! D19   D(5,6,7,8)           -176.0934         estimate D2E/DX2                !
 ! D20   D(5,6,7,25)             1.0556         estimate D2E/DX2                !
 ! D21   D(24,6,7,8)             2.4873         estimate D2E/DX2                !
 ! D22   D(24,6,7,25)          179.6363         estimate D2E/DX2                !
 ! D23   D(6,7,8,9)            177.9787         estimate D2E/DX2                !
 ! D24   D(25,7,8,9)             1.0124         estimate D2E/DX2                !
 ! D25   D(7,8,9,10)          -177.5852         estimate D2E/DX2                !
 ! D26   D(7,8,9,26)             2.3654         estimate D2E/DX2                !
 ! D27   D(8,9,10,11)         -136.8285         estimate D2E/DX2                !
 ! D28   D(8,9,10,21)           36.8039         estimate D2E/DX2                !
 ! D29   D(26,9,10,11)          43.2168         estimate D2E/DX2                !
 ! D30   D(26,9,10,21)        -143.1508         estimate D2E/DX2                !
 ! D31   D(9,10,11,12)         157.1346         estimate D2E/DX2                !
 ! D32   D(9,10,11,27)          -1.3572         estimate D2E/DX2                !
 ! D33   D(21,10,11,12)        -15.5671         estimate D2E/DX2                !
 ! D34   D(21,10,11,27)       -174.0589         estimate D2E/DX2                !
 ! D35   D(9,10,21,20)        -174.9953         estimate D2E/DX2                !
 ! D36   D(9,10,21,37)           5.2862         estimate D2E/DX2                !
 ! D37   D(11,10,21,20)         -2.8256         estimate D2E/DX2                !
 ! D38   D(11,10,21,37)        177.4559         estimate D2E/DX2                !
 ! D39   D(10,11,12,13)        108.8798         estimate D2E/DX2                !
 ! D40   D(10,11,12,14)        -71.0033         estimate D2E/DX2                !
 ! D41   D(27,11,12,13)        -90.6006         estimate D2E/DX2                !
 ! D42   D(27,11,12,14)         89.5163         estimate D2E/DX2                !
 ! D43   D(11,12,13,28)         -1.3375         estimate D2E/DX2                !
 ! D44   D(14,12,13,28)        178.4807         estimate D2E/DX2                !
 ! D45   D(11,12,14,15)        -19.4223         estimate D2E/DX2                !
 ! D46   D(11,12,14,18)         88.0278         estimate D2E/DX2                !
 ! D47   D(11,12,14,29)       -101.1619         estimate D2E/DX2                !
 ! D48   D(13,12,14,15)        160.7328         estimate D2E/DX2                !
 ! D49   D(13,12,14,18)        -91.8171         estimate D2E/DX2                !
 ! D50   D(13,12,14,29)         78.9933         estimate D2E/DX2                !
 ! D51   D(12,14,15,30)        159.7623         estimate D2E/DX2                !
 ! D52   D(18,14,15,30)         47.6984         estimate D2E/DX2                !
 ! D53   D(12,14,18,19)         27.3803         estimate D2E/DX2                !
 ! D54   D(12,14,18,32)        -88.1772         estimate D2E/DX2                !
 ! D55   D(12,14,18,33)        159.9229         estimate D2E/DX2                !
 ! D56   D(15,14,18,19)        164.7473         estimate D2E/DX2                !
 ! D57   D(15,14,18,32)         49.1897         estimate D2E/DX2                !
 ! D58   D(15,14,18,33)        -62.7102         estimate D2E/DX2                !
 ! D59   D(29,14,18,19)       -144.6611         estimate D2E/DX2                !
 ! D60   D(29,14,18,32)         99.7813         estimate D2E/DX2                !
 ! D61   D(29,14,18,33)        -12.1186         estimate D2E/DX2                !
 ! D62   D(14,15,30,16)       -132.7147         estimate D2E/DX2                !
 ! D63   D(29,15,30,16)        168.0385         estimate D2E/DX2                !
 ! D64   D(30,16,17,31)         25.5086         estimate D2E/DX2                !
 ! D65   D(17,16,30,15)        179.4307         estimate D2E/DX2                !
 ! D66   D(16,17,31,2)         177.0116         estimate D2E/DX2                !
 ! D67   D(14,18,19,20)        -71.8837         estimate D2E/DX2                !
 ! D68   D(14,18,19,34)        169.0129         estimate D2E/DX2                !
 ! D69   D(14,18,19,35)         53.5862         estimate D2E/DX2                !
 ! D70   D(32,18,19,20)         34.9354         estimate D2E/DX2                !
 ! D71   D(32,18,19,34)        -84.168          estimate D2E/DX2                !
 ! D72   D(32,18,19,35)        160.4053         estimate D2E/DX2                !
 ! D73   D(33,18,19,20)        158.7422         estimate D2E/DX2                !
 ! D74   D(33,18,19,34)         39.6388         estimate D2E/DX2                !
 ! D75   D(33,18,19,35)        -75.7879         estimate D2E/DX2                !
 ! D76   D(18,19,20,21)        -27.9005         estimate D2E/DX2                !
 ! D77   D(18,19,20,36)       -154.4444         estimate D2E/DX2                !
 ! D78   D(34,19,20,21)         85.7272         estimate D2E/DX2                !
 ! D79   D(34,19,20,36)        -40.8167         estimate D2E/DX2                !
 ! D80   D(35,19,20,21)       -151.6379         estimate D2E/DX2                !
 ! D81   D(35,19,20,36)         81.8182         estimate D2E/DX2                !
 ! D82   D(19,20,21,10)         80.9981         estimate D2E/DX2                !
 ! D83   D(19,20,21,37)        -99.2996         estimate D2E/DX2                !
 ! D84   D(36,20,21,10)       -155.672          estimate D2E/DX2                !
 ! D85   D(36,20,21,37)         24.0304         estimate D2E/DX2                !
 ! D86   D(1,22,23,3)           -4.5844         estimate D2E/DX2                !
 --------------------------------------------------------------------------------
 Trust Radius=3.00D-01 FncErr=1.00D-07 GrdErr=1.00D-06 EigMax=2.50D+02 EigMin=1.00D-04
 Number of steps in this run=    200 maximum allowed number of steps=    222.
 GradGradGradGradGradGradGradGradGradGradGradGradGradGradGradGradGradGrad

                          Input orientation:                          
 ---------------------------------------------------------------------
 Center     Atomic      Atomic             Coordinates (Angstroms)
 Number     Number       Type             X           Y           Z
 ---------------------------------------------------------------------
      1          7           0        2.788360   -0.050910   -1.398390
      2          6           0        4.420960    0.096350   -1.567700
      3          6           0        3.773640    0.390520    0.236250
      4          6           0        4.754980    0.437710    1.003270
      5          7           0        5.883250    0.495580    1.208290
      6          6           0        6.495810    1.040080    0.096610
      7          6           0        7.825300    1.065240   -0.013240
      8          7           0        8.481140    1.666980   -1.065430
      9          6           0        9.779700    1.680770   -1.075730
     10          6           0       10.605380    2.358340   -2.151970
     11          6           0       11.638070    1.571290   -2.515470
     12          6           0       12.264010    1.743010   -3.823000
     13          7           0       13.470790    2.253020   -3.962480
     14          6           0       10.923580    1.094920   -4.806410
     15          6           0        9.624430    0.137290   -4.504140
     16          6           0        7.698250    0.012280   -3.963650
     17          6           0        6.047410    0.019360   -2.908030
     18          6           0       10.102500    2.223640   -5.047720
     19          6           0       10.486230    3.638580   -5.108000
     20          7           0       10.821730    4.208380   -3.794770
     21          7           0       10.148290    3.567580   -2.702100
     22          1           0        1.907920    0.079080   -0.356040
     23          1           0        2.786470    0.579950    1.141070
     24          1           0        5.933060    1.497240   -0.733670
     25          1           0        8.364540    0.617730    0.813290
     26          1           0       10.390600    1.194620   -0.291130
     27          1           0       11.836800    0.613200   -2.070320
     28          1           0       13.957530    2.554950   -3.063150
     29          1           0       10.695310   -0.203200   -5.461190
     30          1           0        8.132540   -0.161990   -5.266170
     31          1           0        4.974790   -0.584070   -3.188320
     32          1           0        9.564950    2.034540   -4.132120
     33          1           0        9.523040    1.926660   -5.910210
     34          1           0        9.580590    4.095640   -5.511520
     35          1           0       11.303410    3.753400   -5.827050
     36          1           0       10.654410    5.214070   -3.843500
     37          1           0        9.305550    3.969470   -2.273510
 ---------------------------------------------------------------------
                    Distance matrix (angstroms):
                    1          2          3          4          5
     1  N    0.000000
     2  C    1.647948   0.000000
     3  C    1.959001   1.939019   0.000000
     4  C    3.142342   2.614954   1.246425   0.000000
     5  N    4.083109   3.162878   2.325157   1.148205   0.000000
     6  C    4.143727   2.822332   2.802077   2.053137   1.381138
     7  C    5.341835   3.865828   4.115026   3.294534   2.363939
     8  N    5.955649   4.382261   5.048195   4.435639   3.645684
     9  C    7.209831   5.609681   6.281623   5.578105   4.669448
    10  C    8.214510   6.610977   7.499905   6.918926   6.087671
    11  C    9.066243   7.427004   8.415191   7.813032   6.938407
    12  C    9.944085   8.325341   9.507530   9.021210   8.220952
    13  N   11.224837   9.606540  10.730003  10.194085   9.348595
    14  C    8.894343   7.332834   8.777599   8.499172   7.870245
    15  C    7.510856   5.974986   7.534399   7.357538   6.837884
    16  C    5.539997   4.060576   5.760624   5.789138   5.502433
    17  C    3.592403   2.108969   3.897985   4.140490   4.147026
    18  C    8.484564   6.993983   8.446013   8.270429   7.741184
    19  C    9.307564   7.865661   9.174408   8.968858   8.423859
    20  N    9.403150   7.927073   8.972221   8.604917   7.950099
    21  N    8.304318   6.792541   7.704789   7.253526   6.551252
    22  H    1.370608   2.789944   1.982098   3.175231   4.292301
    23  H    2.616648   3.200447   1.352438   1.978447   3.098658
    24  H    3.567599   2.223633   2.613172   2.351050   2.185638
    25  H    6.035925   4.636030   4.632598   3.619036   2.515501
    26  H    7.782764   6.202615   6.686469   5.831689   4.801367
    27  H    9.097626   7.450802   8.389541   7.722042   6.797638
    28  H   11.589318   9.961288  10.921649  10.281313   9.363771
    29  H    8.890973   7.390295   8.984589   8.802700   8.253858
    30  H    6.597903   5.246070   7.041442   7.146568   6.885516
    31  H    2.875515   1.842853   3.757694   4.319928   4.617480
    32  H    7.598984   6.065762   7.438060   7.215117   6.666580
    33  H    8.344053   6.945405   8.555367   8.529219   8.122137
    34  H    8.958019   7.626914   8.971368   8.894349   8.472697
    35  H   10.324334   8.881677  10.235722  10.026415   9.459785
    36  H    9.776161   8.380109   9.341092   9.006002   8.399327
    37  H    7.707338   6.273631   7.050518   6.627089   5.991910
                    6          7          8          9         10
     6  C    0.000000
     7  C    1.334258   0.000000
     8  N    2.384298   1.378159   0.000000
     9  C    3.545250   2.308125   1.298674   0.000000
    10  C    4.866466   3.738331   2.484138   1.516292   0.000000
    11  C    5.792062   4.588514   3.475339   2.353375   1.348343
    12  C    7.009250   5.888615   4.681888   3.704479   2.433521
    13  N    8.160746   6.991343   5.799392   4.720693   3.391108
    14  C    6.606645   5.707425   4.504187   3.945840   2.956947
    15  C    5.636505   4.926068   3.933420   3.763035   3.380537
    16  C    4.357516   4.090306   3.427919   3.931460   4.151817
    17  C    3.204808   3.554514   3.468842   4.477454   5.178566
    18  C    6.393212   5.645664   4.335587   4.021892   2.942176
    19  C    7.054333   6.297556   4.924425   4.537775   3.223558
    20  N    6.625296   5.758289   4.402996   3.855881   2.483596
    21  N    5.249918   4.346028   3.011704   2.518132   1.404933
    22  H    4.709262   6.008778   6.799403   8.065252   9.168762
    23  H    3.880956   5.192085   6.203188   7.418307   8.668456
    24  H    1.102292   2.070318   2.575187   3.866177   4.958189
    25  H    2.045522   1.083604   2.155020   2.588654   4.104126
    26  H    3.917093   2.583549   2.113930   1.106859   2.205244
    27  H    5.779618   4.530789   3.657965   2.522018   2.137423
    28  H    8.243554   7.008954   5.896628   4.708322   3.479341
    29  H    7.076064   6.286975   5.265247   4.860035   4.185751
    30  H    5.734393   5.403125   4.594874   4.865048   4.707998
    31  H    3.967635   4.574578   4.676364   5.716616   6.437029
    32  H    5.318903   4.575052   3.273275   3.084281   2.260163
    33  H    6.784691   6.196662   4.962346   4.847529   3.934740
    34  H    7.092492   6.518853   5.184100   5.054451   3.918543
    35  H    8.097214   7.288610   5.915351   5.403011   3.992449
    36  H    7.088061   6.315659   5.002262   4.572732   3.319469
    37  H    4.700365   3.966675   2.727741   2.626336   2.073661
                   11         12         13         14         15
    11  C    0.000000
    12  C    1.459768   0.000000
    13  N    2.432582   1.317529   0.000000
    14  C    2.446596   1.784340   2.922617   0.000000
    15  C    3.172682   3.163806   4.423143   1.642015   0.000000
    16  C    4.477714   4.884810   6.192183   3.505012   2.004477
    17  C    5.815331   6.515693   7.823533   5.342070   3.918743
    18  C    3.032462   2.530429   3.538924   1.416479   2.208367
    19  C    3.510219   2.899123   3.484192   2.598545   3.656006
    20  N    3.042575   2.856399   3.296829   3.275274   4.302384
    21  N    2.497889   3.010273   3.788883   3.338150   3.910072
    22  H   10.077978  11.047039  12.305787  10.105437   8.760973
    23  H    9.628284  10.761899  11.958264  10.092090   8.878178
    24  H    5.977243   7.048779   8.234913   6.454019   5.449048
    25  H    4.765073   6.161762   7.180247   6.193337   5.485728
    26  H    2.577935   4.035406   4.907809   4.547720   4.410716
    27  H    1.074983   2.128583   2.989850   2.924417   3.323334
    28  H    2.578262   2.025988   1.066242   3.791503   5.166942
    29  H    3.565793   2.988682   3.997804   1.471720   1.476029
    30  H    4.781145   4.772925   6.002399   3.095336   1.701762
    31  H    7.035453   7.677946   8.990574   6.389470   4.885785
    32  H    2.669454   2.732301   3.915622   1.784216   1.934294
    33  H    4.015458   3.450085   4.414170   1.967658   2.277972
    34  H    4.425142   3.948001   4.574760   3.362309   4.084761
    35  H    3.979970   2.996771   3.228823   2.872889   4.200633
    36  H    4.000137   3.826159   4.088272   4.238755   5.222164
    37  H    3.354171   4.013792   4.811241   4.158923   4.445559
                   16         17         18         19         20
    16  C    0.000000
    17  C    1.959504   0.000000
    18  C    3.441764   5.087325   0.000000
    19  C    4.715127   6.135287   1.467289   0.000000
    20  N    5.233727   6.413137   2.454866   1.470308   0.000000
    21  N    4.498262   5.426738   2.703739   2.430555   1.434599
    22  H    6.822553   4.863291   9.683085  10.432572  10.408266
    23  H    7.106757   5.229073   9.722507  10.377495  10.104129
    24  H    3.969102   2.631548   6.043419   6.667193   6.373359
    25  H    4.861036   4.424405   6.320672   6.977734   6.337568
    26  H    4.704687   5.205065   4.875144   5.402252   4.641564
    27  H    4.590577   5.879748   3.803449   4.494938   4.114537
    28  H    6.815765   8.308025   4.348510   4.172001   3.619715
    29  H    3.357294   5.307649   2.532180   3.863642   4.717518
    30  H    1.384029   3.153011   3.101563   4.473165   5.338248
    31  H    2.893787   1.262222   6.134657   7.203604   7.584330
    32  H    2.757261   4.234671   1.078444   2.091421   2.533551
    33  H    3.283870   4.973015   1.080676   2.121779   3.371636
    34  H    4.755306   5.989790   1.997970   1.091749   2.121407
    35  H    5.519549   7.077377   2.095162   1.094532   2.137565
    36  H    5.984308   7.006038   3.270691   2.027169   1.020678
    37  H    4.593402   5.159599   3.373321   3.088337   2.161044
                   21         22         23         24         25
    21  N    0.000000
    22  H    9.250801   0.000000
    23  H    8.825660   1.806671   0.000000
    24  H    5.092071   4.284336   3.775857   0.000000
    25  H    4.923550   6.583724   5.587820   3.013091   0.000000
    26  H    3.391523   8.555963   7.762204   4.489664   2.378543
    27  H    3.461008  10.089931   9.603260   6.117377   4.513515
    28  H    3.958041  12.595693  12.098292   8.422431   7.075390
    29  H    4.704316  10.166635  10.332130   6.922425   6.743554
    30  H    4.954533   7.931796   8.377569   5.304179   6.133647
    31  H    6.651144   4.226969   4.988718   3.357892   5.380298
    32  H    2.176110   8.758579   8.710348   5.002877   5.282558
    33  H    3.657257   9.604812   9.844570   6.314184   6.947005
    34  H    2.914442  10.078769  10.137904   6.548588   7.319690
    35  H    3.336786  11.476402  11.452674   7.737793   7.909709
    36  H    2.066369  10.725278  10.403148   6.765871   6.932210
    37  H    1.027334   8.575357   8.102259   4.456088   4.652741
                   26         27         28         29         30
    26  H    0.000000
    27  H    2.365388   0.000000
    28  H    4.717794   3.041973   0.000000
    29  H    5.364352   3.669810   4.898986   0.000000
    30  H    5.629409   4.953374   6.794525   2.570510   0.000000
    31  H    6.394407   7.054825   9.516235   6.167281   3.803551
    32  H    4.017508   3.381202   4.550635   2.837538   2.857029
    33  H    5.732591   4.671554   5.307090   2.472274   2.590509
    34  H    6.026981   5.390708   5.246508   4.441302   4.503827
    35  H    6.166603   4.925280   4.014944   4.019742   5.069446
    36  H    5.370745   5.070524   4.311666   5.653796   6.106213
    37  H    3.578681   4.208689   4.925984   5.431750   5.234590
                   31         32         33         34         35
    31  H    0.000000
    32  H    5.368188   0.000000
    33  H    5.865068   1.781853   0.000000
    34  H    6.964936   2.480146   2.206069   0.000000
    35  H    8.113444   2.974813   2.552178   1.784600   0.000000
    36  H    8.142836   3.373372   4.044546   2.277337   2.547396
    37  H    6.350361   2.695491   4.176836   3.252118   4.082374
                   36         37
    36  H    0.000000
    37  H    2.415227   0.000000
 Stoichiometry    C15H16N6
 Framework group  C1[X(C15H16N6)]
 Deg. of freedom   105
 Full point group                 C1      NOp   1
 Largest Abelian subgroup         C1      NOp   1
 Largest concise Abelian subgroup C1      NOp   1
                         Standard orientation:                         
 ---------------------------------------------------------------------
 Center     Atomic      Atomic             Coordinates (Angstroms)
 Number     Number       Type             X           Y           Z
 ---------------------------------------------------------------------
      1          7           0       -5.670310    1.855420    0.506971
      2          6           0       -4.171522    1.315617    0.085092
      3          6           0       -5.475471   -0.089518    0.376820
      4          6           0       -4.987222   -1.166780   -0.016493
      5          7           0       -4.111956   -1.811360   -0.386358
      6          6           0       -2.935366   -1.221038    0.031613
      7          6           0       -1.752903   -1.660378   -0.403134
      8          7           0       -0.552036   -1.154603    0.045676
      9          6           0        0.555213   -1.666146   -0.400282
     10          6           0        1.931004   -1.226754    0.061536
     11          6           0        2.764463   -1.111762   -0.992101
     12          6           0        3.944190   -0.256758   -0.901903
     13          7           0        5.164943   -0.748484   -0.839855
     14          6           0        3.092971    1.311411   -0.913700
     15          6           0        1.600219    1.814332   -1.377355
     16          6           0       -0.312727    2.138916   -0.874157
     17          6           0       -2.195881    1.866424   -0.406035
     18          6           0        2.808728    1.554089    0.452581
     19          6           0        3.536097    1.082855    1.636562
     20          7           0        3.363711   -0.354586    1.893180
     21          7           0        2.118887   -0.878681    1.409639
     22          1           0       -6.862863    1.255617    0.817806
     23          1           0       -6.679003   -0.541550    0.796659
     24          1           0       -2.906565   -0.387221    0.752007
     25          1           0       -1.797308   -2.484072   -1.105809
     26          1           0        0.580599   -2.471370   -1.159299
     27          1           0        2.473021   -1.330635   -2.003410
     28          1           0        5.240962   -1.812009   -0.837055
     29          1           0        2.858724    2.318602   -1.960913
     30          1           0        0.610865    3.156644   -1.037690
     31          1           0       -3.133760    2.698228   -0.553300
     32          1           0        1.880413    1.012953    0.360684
     33          1           0        2.638527    2.620846    0.482917
     34          1           0        3.077394    1.678099    2.428518
     35          1           0        4.590477    1.359404    1.537557
     36          1           0        3.511043   -0.509154    2.891271
     37          1           0        1.314046   -1.025395    2.031025
 ---------------------------------------------------------------------
 Rotational constants (GHZ):           0.6482349           0.1437013           0.1320787
 Standard basis: 6-31G(2df,p) (6D, 7F)
 There are   731 symmetry adapted cartesian basis functions of A   symmetry.
 There are   668 symmetry adapted basis functions of A   symmetry.
   668 basis functions,  1036 primitive gaussians,   731 cartesian basis functions
    74 alpha electrons       74 beta electrons
       nuclear repulsion energy      1499.8901644628 Hartrees.
 NAtoms=   37 NActive=   37 NUniq=   37 SFac= 1.00D+00 NAtFMM=   60 NAOKFM=F Big=F
 Integral buffers will be    131072 words long.
 Raffenetti 2 integral format.
 Two-electron integral symmetry is turned on.
 One-electron integrals computed using PRISM.
 PrsmSu:  requested number of processors reduced to:  12 ShMem   1 Linda.
 NBasis=   668 RedAO= T EigKep=  1.75D-04  NBF=   668
 NBsUse=   668 1.00D-06 EigRej= -1.00D+00 NBFU=   668
 ExpMin= 1.61D-01 ExpMax= 4.17D+03 ExpMxC= 6.27D+02 IAcc=3 IRadAn=         5 AccDes= 0.00D+00
 Harris functional with IExCor=  402 and IRadAn=       5 diagonalized for initial guess.
 HarFok:  IExCor=  402 AccDes= 0.00D+00 IRadAn=         5 IDoV= 1 UseB2=F ITyADJ=14
 ICtDFT=  3500011 ScaDFX=  1.000000  1.000000  1.000000  1.000000
 FoFCou: FMM=F IPFlag=           0 FMFlag=      100000 FMFlg1=           0
         NFxFlg=           0 DoJE=T BraDBF=F KetDBF=T FulRan=T
         wScrn=  0.000000 ICntrl=       500 IOpCl=  0 I1Cent=   200000004 NGrid=           0
         NMat0=    1 NMatS0=      1 NMatT0=    0 NMatD0=    1 NMtDS0=    0 NMtDT0=    0
 Petite list used in FoFCou.
 Requested convergence on RMS density matrix=1.00D-08 within 128 cycles.
 Requested convergence on MAX density matrix=1.00D-06.
 Requested convergence on             energy=1.00D-06.
 No special actions if energy rises.
 Integral accuracy reduced to 1.0D-05 until final iterations.
 EnCoef did     8 forward-backward iterations
 EnCoef did   100 forward-backward iterations
 EnCoef did   100 forward-backward iterations
 EnCoef did     2 forward-backward iterations
 EnCoef did    14 forward-backward iterations
 EnCoef did     4 forward-backward iterations
 EnCoef did     2 forward-backward iterations
 Initial convergence to 1.0D-05 achieved.  Increase integral accuracy.
 SCF Done:  E(RB3LYP) =  -908.315754480     A.U. after   32 cycles
            NFock= 32  Conv=0.39D-08     -V/T= 2.0086

 **********************************************************************

            Population analysis using the SCF density.

 **********************************************************************

 Orbital symmetries:
       Occupied  (A) (A) (A) (A) (A) (A) (A) (A) (A) (A) (A) (A)
                 (A) (A) (A) (A) (A) (A) (A) (A) (A) (A) (A) (A)
                 (A) (A) (A) (A) (A) (A) (A) (A) (A) (A) (A) (A)
                 (A) (A) (A) (A) (A) (A) (A) (A) (A) (A) (A) (A)
                 (A) (A) (A) (A) (A) (A) (A) (A) (A) (A) (A) (A)
                 (A) (A) (A) (A) (A) (A) (A) (A) (A) (A) (A) (A)
                 (A) (A)
       Virtual   (A) (A) (A) (A) (A) (A) (A) (A) (A) (A) (A) (A)
                 (A) (A) (A) (A) (A) (A) (A) (A) (A) (A) (A) (A)
                 (A) (A) (A) (A) (A) (A) (A) (A) (A) (A) (A) (A)
                 (A) (A) (A) (A) (A) (A) (A) (A) (A) (A) (A) (A)
                 (A) (A) (A) (A) (A) (A) (A) (A) (A) (A) (A) (A)
                 (A) (A) (A) (A) (A) (A) (A) (A) (A) (A) (A) (A)
                 (A) (A) (A) (A) (A) (A) (A) (A) (A) (A) (A) (A)
                 (A) (A) (A) (A) (A) (A) (A) (A) (A) (A) (A) (A)
                 (A) (A) (A) (A) (A) (A) (A) (A) (A) (A) (A) (A)
                 (A) (A) (A) (A) (A) (A) (A) (A) (A) (A) (A) (A)
                 (A) (A) (A) (A) (A) (A) (A) (A) (A) (A) (A) (A)
                 (A) (A) (A) (A) (A) (A) (A) (A) (A) (A) (A) (A)
                 (A) (A) (A) (A) (A) (A) (A) (A) (A) (A) (A) (A)
                 (A) (A) (A) (A) (A) (A) (A) (A) (A) (A) (A) (A)
                 (A) (A) (A) (A) (A) (A) (A) (A) (A) (A) (A) (A)
                 (A) (A) (A) (A) (A) (A) (A) (A) (A) (A) (A) (A)
                 (A) (A) (A) (A) (A) (A) (A) (A) (A) (A) (A) (A)
                 (A) (A) (A) (A) (A) (A) (A) (A) (A) (A) (A) (A)
                 (A) (A) (A) (A) (A) (A) (A) (A) (A) (A) (A) (A)
                 (A) (A) (A) (A) (A) (A) (A) (A) (A) (A) (A) (A)
                 (A) (A) (A) (A) (A) (A) (A) (A) (A) (A) (A) (A)
                 (A) (A) (A) (A) (A) (A) (A) (A) (A) (A) (A) (A)
                 (A) (A) (A) (A) (A) (A) (A) (A) (A) (A) (A) (A)
                 (A) (A) (A) (A) (A) (A) (A) (A) (A) (A) (A) (A)
                 (A) (A) (A) (A) (A) (A) (A) (A) (A) (A) (A) (A)
                 (A) (A) (A) (A) (A) (A) (A) (A) (A) (A) (A) (A)
                 (A) (A) (A) (A) (A) (A) (A) (A) (A) (A) (A) (A)
                 (A) (A) (A) (A) (A) (A) (A) (A) (A) (A) (A) (A)
                 (A) (A) (A) (A) (A) (A) (A) (A) (A) (A) (A) (A)
                 (A) (A) (A) (A) (A) (A) (A) (A) (A) (A) (A) (A)
                 (A) (A) (A) (A) (A) (A) (A) (A) (A) (A) (A) (A)
                 (A) (A) (A) (A) (A) (A) (A) (A) (A) (A) (A) (A)
                 (A) (A) (A) (A) (A) (A) (A) (A) (A) (A) (A) (A)
                 (A) (A) (A) (A) (A) (A) (A) (A) (A) (A) (A) (A)
                 (A) (A) (A) (A) (A) (A) (A) (A) (A) (A) (A) (A)
                 (A) (A) (A) (A) (A) (A) (A) (A) (A) (A) (A) (A)
                 (A) (A) (A) (A) (A) (A) (A) (A) (A) (A) (A) (A)
                 (A) (A) (A) (A) (A) (A) (A) (A) (A) (A) (A) (A)
                 (A) (A) (A) (A) (A) (A) (A) (A) (A) (A) (A) (A)
                 (A) (A) (A) (A) (A) (A) (A) (A) (A) (A) (A) (A)
                 (A) (A) (A) (A) (A) (A) (A) (A) (A) (A) (A) (A)
                 (A) (A) (A) (A) (A) (A) (A) (A) (A) (A) (A) (A)
                 (A) (A) (A) (A) (A) (A) (A) (A) (A) (A) (A) (A)
                 (A) (A) (A) (A) (A) (A) (A) (A) (A) (A) (A) (A)
                 (A) (A) (A) (A) (A) (A) (A) (A) (A) (A) (A) (A)
                 (A) (A) (A) (A) (A) (A) (A) (A) (A) (A) (A) (A)
                 (A) (A) (A) (A) (A) (A) (A) (A) (A) (A) (A) (A)
                 (A) (A) (A) (A) (A) (A) (A) (A) (A) (A) (A) (A)
                 (A) (A) (A) (A) (A) (A) (A) (A) (A) (A) (A) (A)
                 (A) (A) (A) (A) (A) (A)
 The electronic state is 1-A.
 Alpha  occ. eigenvalues --  -14.40226 -14.38911 -14.37264 -14.36350 -14.34253
 Alpha  occ. eigenvalues --  -14.33499 -10.32850 -10.27471 -10.27334 -10.27330
 Alpha  occ. eigenvalues --  -10.26561 -10.25361 -10.25262 -10.25024 -10.24749
 Alpha  occ. eigenvalues --  -10.24427 -10.22920 -10.21984 -10.21541 -10.18991
 Alpha  occ. eigenvalues --  -10.18246  -1.01894  -0.99568  -0.93789  -0.89390
 Alpha  occ. eigenvalues --   -0.85963  -0.84022  -0.83192  -0.78568  -0.76641
 Alpha  occ. eigenvalues --   -0.74694  -0.71552  -0.67389  -0.63647  -0.62343
 Alpha  occ. eigenvalues --   -0.60572  -0.58587  -0.58216  -0.57056  -0.55174
 Alpha  occ. eigenvalues --   -0.54027  -0.53210  -0.51346  -0.50292  -0.49235
 Alpha  occ. eigenvalues --   -0.48745  -0.46576  -0.45976  -0.45079  -0.44621
 Alpha  occ. eigenvalues --   -0.43971  -0.42627  -0.41736  -0.40331  -0.39737
 Alpha  occ. eigenvalues --   -0.38823  -0.36921  -0.36309  -0.35044  -0.34333
 Alpha  occ. eigenvalues --   -0.32007  -0.31447  -0.30724  -0.30395  -0.27373
 Alpha  occ. eigenvalues --   -0.27056  -0.26211  -0.25102  -0.24742  -0.22741
 Alpha  occ. eigenvalues --   -0.21638  -0.20453  -0.19075  -0.17270
 Alpha virt. eigenvalues --   -0.13385  -0.12374  -0.09490  -0.09123  -0.06856
 Alpha virt. eigenvalues --   -0.04646  -0.04207  -0.02360  -0.01706   0.00940
 Alpha virt. eigenvalues --    0.03005   0.03612   0.05661   0.06080   0.06487
 Alpha virt. eigenvalues --    0.07988   0.08668   0.09168   0.11005   0.11412
 Alpha virt. eigenvalues --    0.11686   0.12631   0.13500   0.14053   0.14929
 Alpha virt. eigenvalues --    0.15854   0.16342   0.17111   0.18230   0.18557
 Alpha virt. eigenvalues --    0.18857   0.19886   0.21118   0.22675   0.25293
 Alpha virt. eigenvalues --    0.25548   0.26221   0.27189   0.27820   0.29808
 Alpha virt. eigenvalues --    0.32380   0.34955   0.35742   0.37471   0.39202
 Alpha virt. eigenvalues --    0.41025   0.42689   0.42816   0.43424   0.43614
 Alpha virt. eigenvalues --    0.45006   0.45626   0.46232   0.46885   0.47470
 Alpha virt. eigenvalues --    0.48092   0.48382   0.48988   0.49693   0.49973
 Alpha virt. eigenvalues --    0.50965   0.51710   0.52163   0.52491   0.52821
 Alpha virt. eigenvalues --    0.53994   0.54218   0.54734   0.54923   0.56332
 Alpha virt. eigenvalues --    0.56628   0.57295   0.57508   0.58336   0.58756
 Alpha virt. eigenvalues --    0.59107   0.59488   0.59795   0.60161   0.61630
 Alpha virt. eigenvalues --    0.62007   0.62386   0.63093   0.63513   0.64174
 Alpha virt. eigenvalues --    0.64636   0.65581   0.65982   0.66944   0.67405
 Alpha virt. eigenvalues --    0.68048   0.68460   0.69257   0.70120   0.70775
 Alpha virt. eigenvalues --    0.71227   0.71938   0.72265   0.72554   0.73407
 Alpha virt. eigenvalues --    0.73473   0.74112   0.74606   0.74878   0.75355
 Alpha virt. eigenvalues --    0.75940   0.76327   0.76783   0.77049   0.77616
 Alpha virt. eigenvalues --    0.78502   0.78775   0.79067   0.79689   0.79967
 Alpha virt. eigenvalues --    0.80304   0.80801   0.81577   0.82080   0.82982
 Alpha virt. eigenvalues --    0.83786   0.84542   0.84882   0.85507   0.86393
 Alpha virt. eigenvalues --    0.87193   0.87652   0.87982   0.89048   0.89316
 Alpha virt. eigenvalues --    0.89831   0.90678   0.92329   0.92641   0.93124
 Alpha virt. eigenvalues --    0.93978   0.95311   0.96538   0.96927   0.98743
 Alpha virt. eigenvalues --    0.99449   1.00033   1.00815   1.01803   1.02455
 Alpha virt. eigenvalues --    1.03537   1.04498   1.05379   1.05651   1.06490
 Alpha virt. eigenvalues --    1.07806   1.08339   1.09087   1.09562   1.10667
 Alpha virt. eigenvalues --    1.12608   1.13175   1.13825   1.14442   1.15729
 Alpha virt. eigenvalues --    1.16640   1.17549   1.18493   1.19694   1.20332
 Alpha virt. eigenvalues --    1.22037   1.22624   1.23645   1.25512   1.25836
 Alpha virt. eigenvalues --    1.26112   1.26722   1.27791   1.28780   1.29557
 Alpha virt. eigenvalues --    1.30648   1.31535   1.32477   1.32815   1.34848
 Alpha virt. eigenvalues --    1.35672   1.37782   1.38888   1.39143   1.39540
 Alpha virt. eigenvalues --    1.40353   1.41039   1.42065   1.43064   1.43750
 Alpha virt. eigenvalues --    1.44669   1.45502   1.46805   1.47831   1.49078
 Alpha virt. eigenvalues --    1.49673   1.50655   1.51158   1.52977   1.53417
 Alpha virt. eigenvalues --    1.53787   1.55083   1.55903   1.56750   1.57546
 Alpha virt. eigenvalues --    1.58245   1.60628   1.60790   1.61430   1.62564
 Alpha virt. eigenvalues --    1.63443   1.65005   1.65996   1.66827   1.66846
 Alpha virt. eigenvalues --    1.68530   1.70356   1.71183   1.72063   1.73457
 Alpha virt. eigenvalues --    1.74587   1.76039   1.77244   1.77815   1.80664
 Alpha virt. eigenvalues --    1.81174   1.82308   1.83117   1.84966   1.85166
 Alpha virt. eigenvalues --    1.87479   1.88299   1.90228   1.91139   1.93044
 Alpha virt. eigenvalues --    1.93637   1.95422   1.96645   1.98064   1.99726
 Alpha virt. eigenvalues --    2.00871   2.01994   2.04762   2.06488   2.06782
 Alpha virt. eigenvalues --    2.08010   2.09111   2.10397   2.11598   2.13013
 Alpha virt. eigenvalues --    2.13747   2.14826   2.16039   2.17192   2.18488
 Alpha virt. eigenvalues --    2.20480   2.21695   2.22549   2.23200   2.24702
 Alpha virt. eigenvalues --    2.25472   2.27241   2.31497   2.31789   2.33004
 Alpha virt. eigenvalues --    2.33870   2.34480   2.36970   2.37463   2.37876
 Alpha virt. eigenvalues --    2.40669   2.41206   2.44480   2.45066   2.46629
 Alpha virt. eigenvalues --    2.47618   2.50002   2.50299   2.52689   2.55045
 Alpha virt. eigenvalues --    2.56776   2.57854   2.58312   2.60620   2.61296
 Alpha virt. eigenvalues --    2.62284   2.64633   2.65674   2.66405   2.67343
 Alpha virt. eigenvalues --    2.67466   2.70216   2.70931   2.72369   2.74077
 Alpha virt. eigenvalues --    2.74690   2.75767   2.77638   2.78715   2.79733
 Alpha virt. eigenvalues --    2.80131   2.80731   2.81373   2.82625   2.82906
 Alpha virt. eigenvalues --    2.83960   2.84720   2.85783   2.86458   2.87182
 Alpha virt. eigenvalues --    2.87942   2.88777   2.89737   2.90176   2.90937
 Alpha virt. eigenvalues --    2.91367   2.92545   2.94057   2.94639   2.95840
 Alpha virt. eigenvalues --    2.96824   2.96923   2.97507   2.98439   2.99885
 Alpha virt. eigenvalues --    3.00368   3.00859   3.01148   3.02917   3.04321
 Alpha virt. eigenvalues --    3.05309   3.05945   3.06932   3.07314   3.08521
 Alpha virt. eigenvalues --    3.09104   3.10148   3.10687   3.10910   3.12086
 Alpha virt. eigenvalues --    3.12396   3.14459   3.14846   3.15263   3.17879
 Alpha virt. eigenvalues --    3.18504   3.19190   3.20485   3.21769   3.22653
 Alpha virt. eigenvalues --    3.23318   3.24675   3.25997   3.26405   3.27122
 Alpha virt. eigenvalues --    3.28097   3.31476   3.31860   3.32346   3.34060
 Alpha virt. eigenvalues --    3.35807   3.37814   3.38208   3.40092   3.40601
 Alpha virt. eigenvalues --    3.41902   3.43537   3.44160   3.44499   3.46707
 Alpha virt. eigenvalues --    3.47690   3.48371   3.49050   3.49862   3.50752
 Alpha virt. eigenvalues --    3.52478   3.53046   3.54001   3.54978   3.56095
 Alpha virt. eigenvalues --    3.56800   3.58114   3.58760   3.61029   3.62199
 Alpha virt. eigenvalues --    3.62808   3.65407   3.65792   3.68107   3.68304
 Alpha virt. eigenvalues --    3.68921   3.70155   3.70600   3.72036   3.72970
 Alpha virt. eigenvalues --    3.74308   3.75507   3.76151   3.76850   3.77458
 Alpha virt. eigenvalues --    3.79194   3.79702   3.82158   3.83055   3.84013
 Alpha virt. eigenvalues --    3.85591   3.86232   3.87538   3.88106   3.89919
 Alpha virt. eigenvalues --    3.90852   3.91538   3.92267   3.94040   3.94687
 Alpha virt. eigenvalues --    3.95094   3.96630   3.98560   4.00935   4.01965
 Alpha virt. eigenvalues --    4.04355   4.05553   4.06458   4.07244   4.07688
 Alpha virt. eigenvalues --    4.09539   4.11346   4.13500   4.13820   4.15381
 Alpha virt. eigenvalues --    4.16231   4.18460   4.19723   4.20585   4.20604
 Alpha virt. eigenvalues --    4.21562   4.22019   4.22926   4.23672   4.24891
 Alpha virt. eigenvalues --    4.25545   4.26172   4.26466   4.26840   4.27935
 Alpha virt. eigenvalues --    4.28986   4.29849   4.30414   4.31768   4.32253
 Alpha virt. eigenvalues --    4.32586   4.33167   4.34188   4.34429   4.35699
 Alpha virt. eigenvalues --    4.36499   4.37977   4.38411   4.39007   4.40047
 Alpha virt. eigenvalues --    4.41064   4.41670   4.42605   4.43295   4.43975
 Alpha virt. eigenvalues --    4.44854   4.45372   4.46450   4.47129   4.49209
 Alpha virt. eigenvalues --    4.49595   4.50512   4.51522   4.51882   4.53212
 Alpha virt. eigenvalues --    4.53782   4.54645   4.55595   4.56300   4.56860
 Alpha virt. eigenvalues --    4.57063   4.57773   4.59243   4.59810   4.60499
 Alpha virt. eigenvalues --    4.62163   4.62607   4.63536   4.63843   4.64985
 Alpha virt. eigenvalues --    4.65778   4.66360   4.66993   4.67915   4.68620
 Alpha virt. eigenvalues --    4.69439   4.71382   4.72123   4.73304   4.73522
 Alpha virt. eigenvalues --    4.75003   4.76137   4.76579   4.77694   4.78960
 Alpha virt. eigenvalues --    4.79180   4.79690   4.81503   4.82315   4.84539
 Alpha virt. eigenvalues --    4.85695   4.86695   4.89133   4.90473   4.92603
 Alpha virt. eigenvalues --    4.93926   4.94262   4.94830   4.96620   4.97633
 Alpha virt. eigenvalues --    4.97826   4.99375   5.01074   5.02324   5.03533
 Alpha virt. eigenvalues --    5.07333   5.09703   5.11760   5.12854   5.13407
 Alpha virt. eigenvalues --    5.14673   5.16911   5.17115   5.21244   5.22706
 Alpha virt. eigenvalues --    5.22845   5.26247   5.28404   5.30182   5.30569
 Alpha virt. eigenvalues --    5.32248   5.33459   5.37387   5.38497   5.42249
 Alpha virt. eigenvalues --    5.42730   5.45470   5.46909   5.48925   5.49380
 Alpha virt. eigenvalues --    5.54197   5.56412   5.57955   5.63542   5.69281
 Alpha virt. eigenvalues --    5.72335   5.73608   5.76976   5.84526   5.87382
 Alpha virt. eigenvalues --    5.95155   5.98358   6.07674   6.21433   6.29863
 Alpha virt. eigenvalues --    6.34290   6.62703   8.23404   9.81774  10.00790
 Alpha virt. eigenvalues --   10.15652  10.35887  10.45120  10.57274  10.82982
 Alpha virt. eigenvalues --   10.89251  11.15838  11.22464  11.29253  11.34924
 Alpha virt. eigenvalues --   11.35492  11.36239  11.43009  11.56909  11.64002
 Alpha virt. eigenvalues --   11.70306  11.79211  12.14871  12.53593  12.71663
 Alpha virt. eigenvalues --   14.29330  14.84105  19.43256  20.46761
          Condensed to atoms (all electrons):
               1          2          3          4          5          6
     1  N    6.987168   0.215027   0.063048  -0.026209  -0.000006   0.000714
     2  C    0.215027   5.612451   0.104481  -0.005077  -0.013493  -0.011123
     3  C    0.063048   0.104481   5.243596   0.611100  -0.025343  -0.018712
     4  C   -0.026209  -0.005077   0.611100   4.596740   0.671928  -0.119414
     5  N   -0.000006  -0.013493  -0.025343   0.671928   6.150251   0.467057
     6  C    0.000714  -0.011123  -0.018712  -0.119414   0.467057   4.836378
     7  C    0.000004   0.000727   0.002501  -0.001045  -0.008185   0.613868
     8  N    0.000000  -0.000188   0.000017  -0.000148   0.000988  -0.008661
     9  C    0.000000  -0.000011   0.000001  -0.000012  -0.000093   0.001108
    10  C    0.000000   0.000000   0.000000  -0.000000   0.000000  -0.000060
    11  C    0.000000   0.000000  -0.000000  -0.000000  -0.000000   0.000006
    12  C    0.000000  -0.000000   0.000000   0.000000   0.000000  -0.000000
    13  N    0.000000   0.000000  -0.000000  -0.000000  -0.000000   0.000000
    14  C   -0.000000   0.000000   0.000000  -0.000000   0.000000  -0.000000
    15  C    0.000000  -0.000007   0.000000   0.000000  -0.000000  -0.000010
    16  C   -0.000009   0.001247  -0.000007  -0.000005   0.000002  -0.000608
    17  C   -0.002615   0.028690  -0.000480   0.001106  -0.000887   0.002020
    18  C    0.000000   0.000000   0.000000  -0.000000   0.000000   0.000001
    19  C    0.000000  -0.000000  -0.000000   0.000000  -0.000000   0.000000
    20  N    0.000000  -0.000000   0.000000  -0.000000   0.000000  -0.000000
    21  N   -0.000000   0.000000  -0.000000   0.000000   0.000000  -0.000009
    22  H    0.184217  -0.002822  -0.042300  -0.003973   0.000148  -0.000061
    23  H   -0.031509  -0.001433   0.275700  -0.007511  -0.002467  -0.000040
    24  H   -0.000507   0.002322   0.010316  -0.004436  -0.052710   0.323832
    25  H   -0.000000  -0.000053  -0.000043   0.000630  -0.005319  -0.041244
    26  H    0.000000  -0.000000  -0.000000   0.000002   0.000006  -0.000346
    27  H    0.000000  -0.000000   0.000000  -0.000000   0.000000  -0.000000
    28  H    0.000000  -0.000000   0.000000   0.000000  -0.000000   0.000000
    29  H   -0.000000   0.000000  -0.000000  -0.000000   0.000000   0.000000
    30  H    0.000000  -0.000020   0.000000   0.000000   0.000000   0.000004
    31  H   -0.003135   0.005530   0.000462   0.000073  -0.000020   0.000489
    32  H   -0.000000  -0.000001  -0.000000   0.000000  -0.000000  -0.000010
    33  H   -0.000000   0.000000  -0.000000  -0.000000   0.000000  -0.000000
    34  H   -0.000000   0.000000   0.000000  -0.000000  -0.000000  -0.000000
    35  H   -0.000000   0.000000   0.000000   0.000000   0.000000  -0.000000
    36  H   -0.000000  -0.000000  -0.000000   0.000000   0.000000   0.000000
    37  H    0.000000  -0.000000  -0.000000  -0.000000  -0.000000  -0.000057
               7          8          9         10         11         12
     1  N    0.000004   0.000000   0.000000   0.000000   0.000000   0.000000
     2  C    0.000727  -0.000188  -0.000011   0.000000   0.000000  -0.000000
     3  C    0.002501   0.000017   0.000001   0.000000  -0.000000   0.000000
     4  C   -0.001045  -0.000148  -0.000012  -0.000000  -0.000000   0.000000
     5  N   -0.008185   0.000988  -0.000093   0.000000  -0.000000   0.000000
     6  C    0.613868  -0.008661   0.001108  -0.000060   0.000006  -0.000000
     7  C    4.700804   0.458613  -0.093502   0.002398  -0.000239   0.000000
     8  N    0.458613   6.291822   0.619250  -0.031348  -0.005181   0.000025
     9  C   -0.093502   0.619250   4.858250   0.350895  -0.032932   0.003217
    10  C    0.002398  -0.031348   0.350895   4.754997   0.515358  -0.009114
    11  C   -0.000239  -0.005181  -0.032932   0.515358   5.096005   0.393524
    12  C    0.000000   0.000025   0.003217  -0.009114   0.393524   4.659797
    13  N   -0.000000  -0.000002  -0.000059  -0.006669  -0.058697   0.590898
    14  C   -0.000006   0.000202  -0.000149  -0.005052  -0.085661   0.308756
    15  C    0.000037  -0.000412   0.001010  -0.004622  -0.009028  -0.006975
    16  C    0.000932  -0.000769   0.003241  -0.000165   0.000468  -0.000263
    17  C    0.000566  -0.000223  -0.000190  -0.000032  -0.000001   0.000001
    18  C   -0.000013  -0.000492  -0.001152   0.014056   0.005867  -0.024390
    19  C    0.000000  -0.000027   0.000182  -0.004507   0.004052  -0.009639
    20  N   -0.000002   0.000126   0.001720  -0.041380  -0.007099   0.006613
    21  N    0.000210   0.000623  -0.032278   0.350548  -0.013554  -0.013221
    22  H    0.000001   0.000000  -0.000000  -0.000000  -0.000000  -0.000000
    23  H   -0.000027  -0.000000  -0.000000  -0.000000  -0.000000   0.000000
    24  H   -0.017371  -0.002049   0.000166  -0.000022  -0.000000   0.000000
    25  H    0.337420  -0.063858  -0.003450  -0.000520   0.000013   0.000000
    26  H   -0.005886  -0.059163   0.355468  -0.064145   0.000453   0.000079
    27  H   -0.000075  -0.000203  -0.008701  -0.049032   0.383515  -0.047070
    28  H    0.000000   0.000000   0.000049   0.001753  -0.003713  -0.077821
    29  H   -0.000000  -0.000008   0.000057   0.000216   0.003751  -0.001836
    30  H   -0.000008   0.000074  -0.000082   0.000039  -0.000033   0.000165
    31  H    0.000089   0.000028   0.000003   0.000000   0.000000  -0.000000
    32  H    0.000124   0.002946   0.002480  -0.005964  -0.008139  -0.001420
    33  H   -0.000000  -0.000001  -0.000031  -0.000727   0.000658   0.004198
    34  H    0.000000  -0.000000   0.000050   0.000085  -0.000201   0.000563
    35  H    0.000000   0.000000  -0.000003  -0.000044  -0.000092   0.003268
    36  H   -0.000000   0.000005  -0.000124   0.003372  -0.000008  -0.000090
    37  H    0.000059   0.009488   0.007300  -0.064149   0.004784   0.000139
              13         14         15         16         17         18
     1  N    0.000000  -0.000000   0.000000  -0.000009  -0.002615   0.000000
     2  C    0.000000   0.000000  -0.000007   0.001247   0.028690   0.000000
     3  C   -0.000000   0.000000   0.000000  -0.000007  -0.000480   0.000000
     4  C   -0.000000  -0.000000   0.000000  -0.000005   0.001106  -0.000000
     5  N   -0.000000   0.000000  -0.000000   0.000002  -0.000887   0.000000
     6  C    0.000000  -0.000000  -0.000010  -0.000608   0.002020   0.000001
     7  C   -0.000000  -0.000006   0.000037   0.000932   0.000566  -0.000013
     8  N   -0.000002   0.000202  -0.000412  -0.000769  -0.000223  -0.000492
     9  C   -0.000059  -0.000149   0.001010   0.003241  -0.000190  -0.001152
    10  C   -0.006669  -0.005052  -0.004622  -0.000165  -0.000032   0.014056
    11  C   -0.058697  -0.085661  -0.009028   0.000468  -0.000001   0.005867
    12  C    0.590898   0.308756  -0.006975  -0.000263   0.000001  -0.024390
    13  N    6.667620  -0.011015   0.000459  -0.000001   0.000000  -0.003045
    14  C   -0.011015   5.413081   0.244920  -0.008088   0.000003   0.339456
    15  C    0.000459   0.244920   5.896551   0.116829  -0.001119  -0.087977
    16  C   -0.000001  -0.008088   0.116829   5.728684   0.156586  -0.008366
    17  C    0.000000   0.000003  -0.001119   0.156586   5.825053  -0.000001
    18  C   -0.003045   0.339456  -0.087977  -0.008366  -0.000001   4.801449
    19  C    0.002678  -0.030737   0.008749   0.000722  -0.000001   0.384010
    20  N   -0.007255   0.000727   0.000321  -0.000002   0.000000  -0.024761
    21  N    0.001027   0.002718   0.000087  -0.000279   0.000006  -0.033870
    22  H    0.000000   0.000000  -0.000000   0.000000  -0.000188   0.000000
    23  H    0.000000   0.000000  -0.000000   0.000000   0.000001   0.000000
    24  H   -0.000000  -0.000000   0.000001   0.000225   0.003864  -0.000001
    25  H   -0.000000   0.000000  -0.000001   0.000021  -0.000030  -0.000001
    26  H    0.000009   0.000029   0.000008   0.000044   0.000002  -0.000065
    27  H    0.002733   0.001916   0.001646  -0.000049   0.000000   0.000173
    28  H    0.323435   0.003168  -0.000002  -0.000000   0.000000  -0.000181
    29  H   -0.000271   0.152294   0.023125  -0.000043  -0.000011  -0.008602
    30  H    0.000001  -0.003019   0.040642   0.132360   0.002694  -0.001076
    31  H   -0.000000   0.000000  -0.000017   0.000896   0.187193   0.000000
    32  H   -0.000088  -0.076763  -0.037698   0.024094  -0.000175   0.361157
    33  H   -0.000009  -0.065777   0.002563  -0.003569   0.000043   0.389712
    34  H   -0.000006   0.006852  -0.000415  -0.000069   0.000001  -0.027033
    35  H    0.001534  -0.007213  -0.000156  -0.000001  -0.000000  -0.020857
    36  H    0.000184  -0.000001  -0.000001   0.000000   0.000000   0.003970
    37  H   -0.000029   0.000163  -0.000046   0.000028   0.000001  -0.001034
              19         20         21         22         23         24
     1  N    0.000000   0.000000  -0.000000   0.184217  -0.031509  -0.000507
     2  C   -0.000000  -0.000000   0.000000  -0.002822  -0.001433   0.002322
     3  C   -0.000000   0.000000  -0.000000  -0.042300   0.275700   0.010316
     4  C    0.000000  -0.000000   0.000000  -0.003973  -0.007511  -0.004436
     5  N   -0.000000   0.000000   0.000000   0.000148  -0.002467  -0.052710
     6  C    0.000000  -0.000000  -0.000009  -0.000061  -0.000040   0.323832
     7  C    0.000000  -0.000002   0.000210   0.000001  -0.000027  -0.017371
     8  N   -0.000027   0.000126   0.000623   0.000000  -0.000000  -0.002049
     9  C    0.000182   0.001720  -0.032278  -0.000000  -0.000000   0.000166
    10  C   -0.004507  -0.041380   0.350548  -0.000000  -0.000000  -0.000022
    11  C    0.004052  -0.007099  -0.013554  -0.000000  -0.000000  -0.000000
    12  C   -0.009639   0.006613  -0.013221  -0.000000   0.000000   0.000000
    13  N    0.002678  -0.007255   0.001027   0.000000   0.000000  -0.000000
    14  C   -0.030737   0.000727   0.002718   0.000000   0.000000  -0.000000
    15  C    0.008749   0.000321   0.000087  -0.000000  -0.000000   0.000001
    16  C    0.000722  -0.000002  -0.000279   0.000000   0.000000   0.000225
    17  C   -0.000001   0.000000   0.000006  -0.000188   0.000001   0.003864
    18  C    0.384010  -0.024761  -0.033870   0.000000   0.000000  -0.000001
    19  C    5.010687   0.346207  -0.077861  -0.000000  -0.000000   0.000000
    20  N    0.346207   6.471113   0.294862   0.000000  -0.000000  -0.000000
    21  N   -0.077861   0.294862   6.522699  -0.000000   0.000000   0.000001
    22  H   -0.000000   0.000000  -0.000000   0.645163  -0.012281   0.000019
    23  H   -0.000000  -0.000000   0.000000  -0.012281   0.685931   0.000122
    24  H    0.000000  -0.000000   0.000001   0.000019   0.000122   0.570797
    25  H    0.000000   0.000000   0.000024  -0.000000   0.000000   0.008877
    26  H   -0.000002  -0.000056   0.003645  -0.000000  -0.000000   0.000066
    27  H    0.000043  -0.000028   0.003295   0.000000  -0.000000   0.000000
    28  H   -0.000040   0.000696  -0.000161  -0.000000   0.000000   0.000000
    29  H   -0.001088  -0.000065  -0.000102   0.000000  -0.000000   0.000000
    30  H    0.000055  -0.000001   0.000005  -0.000000   0.000000   0.000000
    31  H   -0.000000   0.000000  -0.000000   0.000156  -0.000024  -0.000256
    32  H   -0.042210  -0.013376   0.020626  -0.000000  -0.000000   0.000008
    33  H   -0.038860   0.002717   0.000878   0.000000   0.000000   0.000000
    34  H    0.350592  -0.040874   0.005649   0.000000  -0.000000   0.000000
    35  H    0.351008  -0.028377   0.002683   0.000000   0.000000  -0.000000
    36  H   -0.052269   0.354719  -0.032526  -0.000000   0.000000   0.000000
    37  H    0.003273  -0.041539   0.364309  -0.000000  -0.000000   0.000029
              25         26         27         28         29         30
     1  N   -0.000000   0.000000   0.000000   0.000000  -0.000000   0.000000
     2  C   -0.000053  -0.000000  -0.000000  -0.000000   0.000000  -0.000020
     3  C   -0.000043  -0.000000   0.000000   0.000000  -0.000000   0.000000
     4  C    0.000630   0.000002  -0.000000   0.000000  -0.000000   0.000000
     5  N   -0.005319   0.000006   0.000000  -0.000000   0.000000   0.000000
     6  C   -0.041244  -0.000346  -0.000000   0.000000   0.000000   0.000004
     7  C    0.337420  -0.005886  -0.000075   0.000000  -0.000000  -0.000008
     8  N   -0.063858  -0.059163  -0.000203   0.000000  -0.000008   0.000074
     9  C   -0.003450   0.355468  -0.008701   0.000049   0.000057  -0.000082
    10  C   -0.000520  -0.064145  -0.049032   0.001753   0.000216   0.000039
    11  C    0.000013   0.000453   0.383515  -0.003713   0.003751  -0.000033
    12  C    0.000000   0.000079  -0.047070  -0.077821  -0.001836   0.000165
    13  N   -0.000000   0.000009   0.002733   0.323435  -0.000271   0.000001
    14  C    0.000000   0.000029   0.001916   0.003168   0.152294  -0.003019
    15  C   -0.000001   0.000008   0.001646  -0.000002   0.023125   0.040642
    16  C    0.000021   0.000044  -0.000049  -0.000000  -0.000043   0.132360
    17  C   -0.000030   0.000002   0.000000   0.000000  -0.000011   0.002694
    18  C   -0.000001  -0.000065   0.000173  -0.000181  -0.008602  -0.001076
    19  C    0.000000  -0.000002   0.000043  -0.000040  -0.001088   0.000055
    20  N    0.000000  -0.000056  -0.000028   0.000696  -0.000065  -0.000001
    21  N    0.000024   0.003645   0.003295  -0.000161  -0.000102   0.000005
    22  H   -0.000000  -0.000000   0.000000  -0.000000   0.000000  -0.000000
    23  H    0.000000  -0.000000  -0.000000   0.000000  -0.000000   0.000000
    24  H    0.008877   0.000066   0.000000   0.000000   0.000000   0.000000
    25  H    0.659479   0.015979   0.000023  -0.000000   0.000000   0.000000
    26  H    0.015979   0.633742   0.005588  -0.000000  -0.000001   0.000000
    27  H    0.000023   0.005588   0.580420   0.000961  -0.000010   0.000005
    28  H   -0.000000  -0.000000   0.000961   0.497160  -0.000013   0.000000
    29  H    0.000000  -0.000001  -0.000010  -0.000013   0.695295  -0.005782
    30  H    0.000000   0.000000   0.000005   0.000000  -0.005782   0.717787
    31  H    0.000004   0.000000  -0.000000  -0.000000   0.000000  -0.000867
    32  H    0.000007   0.000238   0.000112   0.000028   0.011862  -0.006829
    33  H    0.000000   0.000000   0.000019   0.000007  -0.007347   0.005111
    34  H   -0.000000   0.000000   0.000001   0.000002  -0.000025  -0.000012
    35  H   -0.000000  -0.000000  -0.000003   0.000009   0.000337  -0.000003
    36  H    0.000000   0.000003   0.000002  -0.000006   0.000000   0.000000
    37  H    0.000044   0.000817  -0.000095  -0.000001   0.000001  -0.000001
              31         32         33         34         35         36
     1  N   -0.003135  -0.000000  -0.000000  -0.000000  -0.000000  -0.000000
     2  C    0.005530  -0.000001   0.000000   0.000000   0.000000  -0.000000
     3  C    0.000462  -0.000000  -0.000000   0.000000   0.000000  -0.000000
     4  C    0.000073   0.000000  -0.000000  -0.000000   0.000000   0.000000
     5  N   -0.000020  -0.000000   0.000000  -0.000000   0.000000   0.000000
     6  C    0.000489  -0.000010  -0.000000  -0.000000  -0.000000   0.000000
     7  C    0.000089   0.000124  -0.000000   0.000000   0.000000  -0.000000
     8  N    0.000028   0.002946  -0.000001  -0.000000   0.000000   0.000005
     9  C    0.000003   0.002480  -0.000031   0.000050  -0.000003  -0.000124
    10  C    0.000000  -0.005964  -0.000727   0.000085  -0.000044   0.003372
    11  C    0.000000  -0.008139   0.000658  -0.000201  -0.000092  -0.000008
    12  C   -0.000000  -0.001420   0.004198   0.000563   0.003268  -0.000090
    13  N   -0.000000  -0.000088  -0.000009  -0.000006   0.001534   0.000184
    14  C    0.000000  -0.076763  -0.065777   0.006852  -0.007213  -0.000001
    15  C   -0.000017  -0.037698   0.002563  -0.000415  -0.000156  -0.000001
    16  C    0.000896   0.024094  -0.003569  -0.000069  -0.000001   0.000000
    17  C    0.187193  -0.000175   0.000043   0.000001  -0.000000   0.000000
    18  C    0.000000   0.361157   0.389712  -0.027033  -0.020857   0.003970
    19  C   -0.000000  -0.042210  -0.038860   0.350592   0.351008  -0.052269
    20  N    0.000000  -0.013376   0.002717  -0.040874  -0.028377   0.354719
    21  N   -0.000000   0.020626   0.000878   0.005649   0.002683  -0.032526
    22  H    0.000156  -0.000000   0.000000   0.000000   0.000000  -0.000000
    23  H   -0.000024  -0.000000   0.000000  -0.000000   0.000000   0.000000
    24  H   -0.000256   0.000008   0.000000   0.000000  -0.000000   0.000000
    25  H    0.000004   0.000007   0.000000  -0.000000  -0.000000   0.000000
    26  H    0.000000   0.000238   0.000000   0.000000  -0.000000   0.000003
    27  H   -0.000000   0.000112   0.000019   0.000001  -0.000003   0.000002
    28  H   -0.000000   0.000028   0.000007   0.000002   0.000009  -0.000006
    29  H    0.000000   0.011862  -0.007347  -0.000025   0.000337   0.000000
    30  H   -0.000867  -0.006829   0.005111  -0.000012  -0.000003   0.000000
    31  H    0.662342   0.000005  -0.000001  -0.000000   0.000000  -0.000000
    32  H    0.000005   0.584148  -0.020596  -0.000541   0.006438   0.000483
    33  H   -0.000001  -0.020596   0.621906  -0.008814   0.002844  -0.000187
    34  H   -0.000000  -0.000541  -0.008814   0.669906  -0.043110  -0.007544
    35  H    0.000000   0.006438   0.002844  -0.043110   0.602225   0.003345
    36  H   -0.000000   0.000483  -0.000187  -0.007544   0.003345   0.481714
    37  H    0.000000   0.001375  -0.000016   0.001182  -0.000214  -0.004773
              37
     1  N    0.000000
     2  C   -0.000000
     3  C   -0.000000
     4  C   -0.000000
     5  N   -0.000000
     6  C   -0.000057
     7  C    0.000059
     8  N    0.009488
     9  C    0.007300
    10  C   -0.064149
    11  C    0.004784
    12  C    0.000139
    13  N   -0.000029
    14  C    0.000163
    15  C   -0.000046
    16  C    0.000028
    17  C    0.000001
    18  C   -0.001034
    19  C    0.003273
    20  N   -0.041539
    21  N    0.364309
    22  H   -0.000000
    23  H   -0.000000
    24  H    0.000029
    25  H    0.000044
    26  H    0.000817
    27  H   -0.000095
    28  H   -0.000001
    29  H    0.000001
    30  H   -0.000001
    31  H    0.000000
    32  H    0.001375
    33  H   -0.000016
    34  H    0.001182
    35  H   -0.000214
    36  H   -0.004773
    37  H    0.455289
 Mulliken charges:
               1
     1  N   -0.386189
     2  C    0.063754
     3  C   -0.224337
     4  C    0.286252
     5  N   -0.181857
     6  C   -0.045123
     7  C    0.008004
     8  N   -0.211476
     9  C   -0.031677
    10  C    0.293833
    11  C   -0.183875
    12  C    0.220596
    13  N   -0.503432
    14  C   -0.180800
    15  C   -0.188460
    16  C   -0.144087
    17  C   -0.201873
    18  C   -0.056934
    19  C   -0.205015
    20  N   -0.275004
    21  N   -0.370034
    22  H    0.231919
    23  H    0.093539
    24  H    0.156704
    25  H    0.091997
    26  H    0.113485
    27  H    0.124815
    28  H    0.254668
    29  H    0.138267
    30  H    0.118790
    31  H    0.147051
    32  H    0.197676
    33  H    0.115279
    34  H    0.093759
    35  H    0.126383
    36  H    0.249730
    37  H    0.263672
 Sum of Mulliken charges =  -0.00000
 Mulliken charges with hydrogens summed into heavy atoms:
               1
     1  N   -0.154270
     2  C    0.063754
     3  C   -0.130799
     4  C    0.286252
     5  N   -0.181857
     6  C    0.111582
     7  C    0.100001
     8  N   -0.211476
     9  C    0.081808
    10  C    0.293833
    11  C   -0.059060
    12  C    0.220596
    13  N   -0.248765
    14  C   -0.042533
    15  C   -0.188460
    16  C   -0.025297
    17  C   -0.054823
    18  C    0.256022
    19  C    0.015128
    20  N   -0.025274
    21  N   -0.106362
 Electronic spatial extent (au):  <R**2>=           8055.4465
 Charge=             -0.0000 electrons
 Dipole moment (field-independent basis, Debye):
    X=             -0.5351    Y=             -2.9408    Z=              3.1021  Tot=              4.3078
 Quadrupole moment (field-independent basis, Debye-Ang):
   XX=           -119.3450   YY=           -122.8819   ZZ=           -118.8416
   XY=              5.1721   XZ=              3.6833   YZ=              3.0805
 Traceless Quadrupole moment (field-independent basis, Debye-Ang):
   XX=              1.0111   YY=             -2.5257   ZZ=              1.5146
   XY=              5.1721   XZ=              3.6833   YZ=              3.0805
 Octapole moment (field-independent basis, Debye-Ang**2):
  XXX=           -230.6653  YYY=            -33.9347  ZZZ=             47.1154  XYY=             46.3033
  XXY=            -43.1864  XXZ=             65.9576  XZZ=             39.8641  YZZ=            -24.0687
  YYZ=              2.1320  XYZ=             16.1102
 Hexadecapole moment (field-independent basis, Debye-Ang**3):
 XXXX=          -8178.6648 YYYY=          -1664.1990 ZZZZ=           -694.3453 XXXY=             85.7703
 XXXZ=            -30.0446 YYYX=             11.2365 YYYZ=             32.0368 ZZZX=            120.2184
 ZZZY=             17.4791 XXYY=          -1749.0553 XXZZ=          -1572.1568 YYZZ=           -412.5477
 XXYZ=             20.3613 YYXZ=              1.4201 ZZXY=             -9.8193
 N-N= 1.499890164463D+03 E-N=-5.109746801212D+03  KE= 9.005790337120D+02
 PrsmSu:  requested number of processors reduced to:  12 ShMem   1 Linda.
 Calling FoFJK, ICntrl=      2127 FMM=F ISym2X=0 I1Cent= 0 IOpClX= 0 NMat=1 NMatS=1 NMatT=0.
 ***** Axes restored to original set *****
 -------------------------------------------------------------------
 Center     Atomic                   Forces (Hartrees/Bohr)
 Number     Number              X              Y              Z
 -------------------------------------------------------------------
      1        7           0.035424283    0.014251196    0.041004593
      2        6          -0.110972203    0.001121023    0.022541016
      3        6          -0.140403681    0.018728051    0.022061951
      4        6          -0.088424002   -0.039104019   -0.006415207
      5        7           0.176983360    0.004584070    0.021766717
      6        6           0.029256877    0.040037748   -0.007767746
      7        6           0.021451316   -0.000287521    0.005350067
      8        7           0.017772028    0.007574871    0.000904208
      9        6          -0.012207498    0.017335487   -0.004347486
     10        6          -0.024396670    0.002893130    0.030792318
     11        6          -0.001546678    0.016771920   -0.011937692
     12        6           0.046179838   -0.006061691    0.018382280
     13        7          -0.050354542   -0.032234916   -0.019115228
     14        6           0.033138190   -0.067179327    0.021744499
     15        6           0.023176511   -0.053709588    0.036722624
     16        6           0.042792547    0.017238897   -0.034643959
     17        6          -0.010975095   -0.029261819   -0.014346771
[...]
    15  C    4.228881   4.343665   4.186387   3.972888   3.584681
    16  C    4.503539   4.971680   5.067775   5.097976   4.849163
    17  C    4.728407   5.468574   5.837892   6.070350   6.028111
    18  C    4.969611   5.098435   4.346853   4.284807   3.325262
    19  C    5.895714   5.817606   4.770560   4.581907   3.352292
    20  N    5.721018   5.329066   4.086254   3.703788   2.389690
    21  N    4.570451   4.035812   2.736570   2.416841   1.364229
    22  H    5.778047   6.959484   7.648333   8.302551   8.546240
    23  H    4.062332   5.339174   6.155483   7.000481   7.490871
    24  H    1.086758   2.103392   2.496153   3.625457   4.293342
    25  H    2.119796   1.093162   2.161662   2.543204   3.895518
    26  H    3.719046   2.528569   2.097918   1.097610   2.171150
    27  H    4.990562   4.164521   3.590879   2.469578   2.088926
    28  H    7.342613   6.737438   5.824446   4.818268   3.566260
    29  H    5.959797   5.989759   5.486751   5.069679   4.133863
    30  H    5.579745   5.981618   5.944145   5.836104   5.359544
    31  H    5.801030   6.525772   6.893137   7.050740   6.928302
    32  H    3.989122   4.229999   3.553631   3.770804   3.123336
    33  H    5.559048   5.893630   5.269145   5.316949   4.416052
    34  H    6.208541   6.273815   5.235849   5.264824   4.161512
    35  H    6.845824   6.720610   5.681490   5.320392   3.970993
    36  H    6.383681   5.966162   4.650825   4.335442   3.117046
    37  H    4.209673   3.747400   2.426343   2.548179   2.041328
                   11         12         13         14         15
    11  C    0.000000
    12  C    1.485652   0.000000
    13  N    2.477810   1.267065   0.000000
    14  C    2.552935   1.538335   2.391563   0.000000
    15  C    3.056129   2.576600   3.569699   1.490519   0.000000
    16  C    4.419299   3.844459   4.694878   2.522665   1.365753
    17  C    5.703825   5.218072   6.062141   3.878590   2.689844
    18  C    3.342804   2.576377   3.299248   1.562698   2.566919
    19  C    3.556039   2.882646   3.260301   2.635298   3.914150
    20  N    2.886850   2.796268   3.269154   3.190057   4.353726
    21  N    2.425732   2.971776   3.838088   3.326737   4.074545
    22  H    8.549508   8.225405   9.137559   6.817312   5.719678
    23  H    7.755256   7.758122   8.848166   6.497870   5.379934
    24  H    5.085306   5.610847   6.841818   4.877245   4.263588
    25  H    4.411346   5.512867   6.730685   5.449570   4.663416
    26  H    2.528644   3.924313   4.990361   4.468025   4.214248
    27  H    1.084818   2.198530   3.067768   3.167312   3.251678
    28  H    2.535668   1.874082   1.020086   3.276728   4.358303
    29  H    3.366158   2.069558   2.398145   1.086046   1.956790
    30  H    4.742033   3.846153   4.422483   2.532694   1.873912
    31  H    6.466530   5.823590   6.508334   4.498199   3.423186
    32  H    3.476834   3.146502   4.107631   2.156442   2.608560
    33  H    4.365062   3.419469   3.938618   2.182157   2.995181
    34  H    4.566509   3.972181   4.329354   3.544168   4.691401
    35  H    3.860568   2.881200   2.808997   2.845780   4.292146
    36  H    3.749413   3.738310   4.044848   4.175333   5.351525
    37  H    3.287455   3.910050   4.826174   4.042280   4.606104
                   16         17         18         19         20
    16  C    0.000000
    17  C    1.377592   0.000000
    18  C    3.217591   4.352633   0.000000
    19  C    4.720287   5.880821   1.528471   0.000000
    20  N    5.423194   6.646022   2.536466   1.484672   0.000000
    21  N    5.194446   6.340265   2.876848   2.480309   1.388708
    22  H    4.500561   3.211957   6.800990   8.245509   9.075614
    23  H    4.508662   3.559219   6.355986   7.703988   8.268245
    24  H    4.466680   4.704322   4.480058   5.347653   5.310267
    25  H    5.314780   5.781272   5.815184   6.569928   6.013249
    26  H    5.345748   6.284845   5.029061   5.422789   4.555782
    27  H    4.569577   5.771313   4.206948   4.602016   3.963539
    28  H    5.567684   6.938399   4.114296   3.845220   3.488615
    29  H    2.591139   3.882253   2.204146   3.183275   3.961421
    30  H    1.109891   1.955589   3.336707   4.752875   5.621410
    31  H    2.095642   1.091592   5.060148   6.565745   7.435016
    32  H    3.174494   4.144856   1.095378   2.155830   2.790090
    33  H    3.208904   4.154860   1.094198   2.127092   3.439744
    34  H    5.303605   6.315965   2.140955   1.100511   2.154057
    35  H    5.093473   6.307004   2.151784   1.097528   2.066064
    36  H    6.384529   7.574189   3.376370   2.074040   1.010234
    37  H    5.590770   6.598591   3.360644   3.020434   2.102146
                   21         22         23         24         25
    21  N    0.000000
    22  H    8.648561   0.000000
    23  H    7.591370   2.048223   0.000000
    24  H    4.275682   5.607916   3.919301   0.000000
    25  H    4.722068   7.349824   5.789731   3.080145   0.000000
    26  H    3.376402   8.603984   7.344054   4.279975   2.326070
    27  H    3.364689   8.641743   7.842396   5.359486   4.083475
    28  H    4.001414  10.022757   9.626194   7.355809   6.925027
    29  H    4.321158   6.909910   6.907700   5.796300   6.380412
    30  H    5.648927   5.019786   5.375327   5.488403   6.309918
    31  H    7.252005   3.278222   4.180441   5.786472   6.776768
    32  H    2.646269   6.302359   5.585101   3.415817   5.051159
    33  H    3.915849   6.405578   6.233220   4.977184   6.634551
    34  H    3.063643   8.340857   7.785539   5.496042   7.137230
    35  H    3.282700   8.838806   8.491039   6.358025   7.388063
    36  H    1.971397   9.873729   9.009553   5.904721   6.688877
    37  H    1.009467   8.589983   7.359787   3.798297   4.571995
                   26         27         28         29         30
    26  H    0.000000
    27  H    2.162437   0.000000
    28  H    4.943985   3.018565   0.000000
    29  H    5.407317   3.862327   3.397009   0.000000
    30  H    6.073298   4.943611   5.364951   2.126267   0.000000
    31  H    7.209285   6.498252   7.415041   4.247990   2.126584
    32  H    4.605168   4.264970   4.830756   2.999197   3.629756
    33  H    6.044680   5.173059   4.848106   2.367259   3.119523
    34  H    6.202720   5.612902   4.901355   4.035216   5.360591
    35  H    6.046419   4.874933   3.399198   3.061588   4.894455
    36  H    5.223013   4.801691   4.126535   4.892173   6.572604
    37  H    3.623157   4.114458   5.010607   5.069002   6.165032
                   31         32         33         34         35
    31  H    0.000000
    32  H    5.017347   0.000000
    33  H    4.715046   1.754414   0.000000
    34  H    7.001822   2.502221   2.357914   0.000000
    35  H    6.854312   3.056711   2.494565   1.775328   0.000000
    36  H    8.368246   3.578016   4.155580   2.329783   2.520256
    37  H    7.574827   2.842437   4.304202   3.295655   3.966139
                   36         37
    36  H    0.000000
    37  H    2.370192   0.000000
 Stoichiometry    C15H16N6
 Framework group  C1[X(C15H16N6)]
 Deg. of freedom   105
 Full point group                 C1      NOp   1
 Largest Abelian subgroup         C1      NOp   1
 Largest concise Abelian subgroup C1      NOp   1
                         Standard orientation:                         
 ---------------------------------------------------------------------
 Center     Atomic      Atomic             Coordinates (Angstroms)
 Number     Number       Type             X           Y           Z
 ---------------------------------------------------------------------
      1          7           0       -4.850122    2.001633    0.422556
      2          6           0       -3.890816    1.181398    0.151553
      3          6           0       -4.030002   -0.235500    0.481037
      4          6           0       -3.347347   -1.283759    0.068959
      5          7           0       -2.708518   -2.261518   -0.316208
      6          6           0       -1.522146   -2.598794    0.363582
      7          6           0       -0.476193   -3.094002   -0.314805
      8          7           0        0.762170   -2.723183    0.181045
      9          6           0        1.609863   -2.339596   -0.696451
     10          6           0        2.429662   -1.181961   -0.361241
     11          6           0        2.469079   -0.258405   -1.356074
     12          6           0        2.384265    1.196938   -1.069817
     13          7           0        3.245690    2.094133   -1.311564
     14          6           0        1.098748    1.649507   -0.356302
     15          6           0       -0.189591    1.193252   -0.950996
     16          6           0       -1.397762    1.776658   -0.695573
     17          6           0       -2.767528    1.864402   -0.578084
     18          6           0        1.189277    1.482178    1.194772
     19          6           0        2.588770    1.375688    1.800004
     20          7           0        3.370903    0.197405    1.348155
     21          7           0        2.700701   -0.953995    0.956215
     22          1           0       -5.604065    1.458799    0.873194
     23          1           0       -4.870588   -0.434549    1.142381
     24          1           0       -1.372766   -2.189313    1.359099
     25          1           0       -0.590801   -3.435987   -1.346752
     26          1           0        1.526202   -2.568479   -1.766667
     27          1           0        2.153413   -0.580761   -2.342619
     28          1           0        4.070835    1.670257   -1.735874
     29          1           0        1.024188    2.695798   -0.637749
     30          1           0       -1.088437    2.833422   -0.834952
     31          1           0       -3.212832    2.798724   -0.924954
     32          1           0        0.610716    0.589889    1.457333
     33          1           0        0.691066    2.328638    1.677017
     34          1           0        2.487787    1.408246    2.895388
     35          1           0        3.177519    2.249341    1.492313
     36          1           0        4.087577   -0.041085    2.019032
     37          1           0        2.374758   -1.632300    1.629035
 ---------------------------------------------------------------------
 Rotational constants (GHZ):           0.4505850           0.2265137           0.1753972
 Standard basis: 6-31G(2df,p) (6D, 7F)
 There are   731 symmetry adapted cartesian basis functions of A   symmetry.
 There are   668 symmetry adapted basis functions of A   symmetry.
   668 basis functions,  1036 primitive gaussians,   731 cartesian basis functions
    74 alpha electrons       74 beta electrons
       nuclear repulsion energy      1583.6889763420 Hartrees.
 NAtoms=   37 NActive=   37 NUniq=   37 SFac= 1.00D+00 NAtFMM=   60 NAOKFM=F Big=F
 Integral buffers will be    131072 words long.
 Raffenetti 2 integral format.
 Two-electron integral symmetry is turned on.
 One-electron integrals computed using PRISM.
 PrsmSu:  requested number of processors reduced to:  12 ShMem   1 Linda.
 NBasis=   668 RedAO= T EigKep=  1.31D-04  NBF=   668
 NBsUse=   668 1.00D-06 EigRej= -1.00D+00 NBFU=   668
 Initial guess from the checkpoint file:  "NdC1CdCdNCdCNdCC2dCCqdNrCqdCCdC1rCCNN2.chk"
 B after Tr=    -0.000000   -0.000000    0.000000
         Rot=    0.999985   -0.003407    0.001028   -0.004175 Ang=  -0.63 deg.
 ExpMin= 1.61D-01 ExpMax= 4.17D+03 ExpMxC= 6.27D+02 IAcc=2 IRadAn=         4 AccDes= 0.00D+00
 Harris functional with IExCor=  402 and IRadAn=       4 diagonalized for initial guess.
 HarFok:  IExCor=  402 AccDes= 0.00D+00 IRadAn=         4 IDoV= 1 UseB2=F ITyADJ=14
 ICtDFT=  3500011 ScaDFX=  1.000000  1.000000  1.000000  1.000000
 FoFCou: FMM=F IPFlag=           0 FMFlag=      100000 FMFlg1=           0
         NFxFlg=           0 DoJE=T BraDBF=F KetDBF=T FulRan=T
         wScrn=  0.000000 ICntrl=       500 IOpCl=  0 I1Cent=   200000004 NGrid=           0
         NMat0=    1 NMatS0=      1 NMatT0=    0 NMatD0=    1 NMtDS0=    0 NMtDT0=    0
 Petite list used in FoFCou.
 Requested convergence on RMS density matrix=1.00D-08 within 128 cycles.
 Requested convergence on MAX density matrix=1.00D-06.
 Requested convergence on             energy=1.00D-06.
 No special actions if energy rises.
 Integral accuracy reduced to 1.0D-05 until final iterations.
 Initial convergence to 1.0D-05 achieved.  Increase integral accuracy.
 SCF Done:  E(RB3LYP) =  -909.406837563     A.U. after   14 cycles
            NFock= 14  Conv=0.32D-08     -V/T= 2.0076
 PrsmSu:  requested number of processors reduced to:  12 ShMem   1 Linda.
 Calling FoFJK, ICntrl=      2127 FMM=F ISym2X=0 I1Cent= 0 IOpClX= 0 NMat=1 NMatS=1 NMatT=0.
 ***** Axes restored to original set *****
 -------------------------------------------------------------------
 Center     Atomic                   Forces (Hartrees/Bohr)
 Number     Number              X              Y              Z
 -------------------------------------------------------------------
      1        7          -0.011609889    0.004419185    0.007305043
      2        6           0.021547858   -0.011119706   -0.009984269
      3        6           0.002546021    0.006155223    0.007440389
      4        6           0.004702829    0.000653418    0.001950810
      5        7          -0.007764162    0.003483709   -0.004657309
      6        6          -0.002925791   -0.006231898   -0.000897095
      7        6          -0.000727019   -0.002455624   -0.001266737
      8        7          -0.004083745    0.006112784    0.007831270
      9        6           0.004570121   -0.002006150   -0.003605729
     10        6           0.001522594   -0.000719004    0.002388227
     11        6          -0.001168959   -0.000231290   -0.003503723
     12        6          -0.004614433    0.004903878    0.009141262
     13        7           0.003437135   -0.006784130   -0.005169595
     14        6           0.000123495   -0.003840245   -0.000822341
     15        6          -0.003562421    0.002878190    0.011081573
     16        6          -0.006672127   -0.000520279   -0.004656680
     17        6          -0.013047698    0.000424637    0.008266574
     18        6          -0.002848500   -0.000023961    0.005717639
     19        6           0.002103147   -0.000768048   -0.000515576
     20        7          -0.002309697   -0.003887838   -0.000935284
     21        7           0.003717658    0.002699274   -0.001540440
     22        1           0.001568645   -0.004233011   -0.007939294
     23        1           0.000321549    0.002034717    0.003272864
     24        1          -0.000212705    0.000347355    0.000133426
     25        1           0.000043684    0.001263524    0.000820664
     26        1          -0.001865408   -0.000225409   -0.000216403
     27        1           0.003769594    0.000706693   -0.001311138
     28        1           0.002775530    0.000389375   -0.000435736
     29        1           0.002738490    0.004105335   -0.016812870
     30        1           0.005200080   -0.003661170    0.000737218
     31        1           0.005798783    0.005345011   -0.002230313
     32        1           0.000136106    0.002156815   -0.000789964
     33        1          -0.000035375   -0.001409590    0.000726186
     34        1          -0.000920232   -0.000073037    0.001314346
     35        1          -0.000960942    0.001488984   -0.000488944
     36        1           0.002151553   -0.000059616   -0.000446920
     37        1          -0.003445767   -0.001318103    0.000098868
 -------------------------------------------------------------------
 Cartesian Forces:  Max     0.021547858 RMS     0.004925095

 GradGradGradGradGradGradGradGradGradGradGradGradGradGradGradGradGradGrad
 Berny optimization.
 Using GEDIIS/GDIIS optimizer.
 FormGI is forming the generalized inverse of G from B-inverse, IUseBI=4.
 Internal  Forces:  Max     0.022107806 RMS     0.003203289
 Search for a local minimum.
 Step number  14 out of a maximum of  200
 All quantities printed in internal units (Hartrees-Bohrs-Radians)
 Mixed Optimization -- RFO/linear search
 Update second derivatives using D2CorX and points   13   14
 DE= -3.81D-03 DEPred=-4.00D-03 R= 9.52D-01
 TightC=F SS=  1.41D+00  RLast= 2.43D-01 DXNew= 3.3941D+00 7.2903D-01
 Trust test= 9.52D-01 RLast= 2.43D-01 DXMaxT set to 2.02D+00
 ITU=  1  1  1  1 -1  0  0  1  0  1  0  0  1  0
 Use linear search instead of GDIIS.
     Eigenvalues ---    0.00225   0.00259   0.00267   0.00426   0.00468
     Eigenvalues ---    0.00718   0.00911   0.00948   0.00968   0.01209
     Eigenvalues ---    0.01403   0.01537   0.01672   0.01848   0.01868
     Eigenvalues ---    0.01960   0.02006   0.02106   0.02550   0.02671
     Eigenvalues ---    0.02794   0.02859   0.02933   0.03032   0.03332
     Eigenvalues ---    0.03690   0.03982   0.04178   0.04437   0.05210
     Eigenvalues ---    0.05476   0.05802   0.06304   0.06840   0.07163
     Eigenvalues ---    0.08201   0.08619   0.08947   0.09351   0.09715
     Eigenvalues ---    0.09776   0.09967   0.10840   0.11026   0.11420
     Eigenvalues ---    0.12591   0.13018   0.13265   0.13855   0.14174
     Eigenvalues ---    0.14724   0.14895   0.15120   0.15442   0.15613
     Eigenvalues ---    0.15675   0.15705   0.15973   0.16077   0.16135
     Eigenvalues ---    0.16395   0.16652   0.16946   0.17824   0.18077
     Eigenvalues ---    0.18306   0.20254   0.21031   0.21275   0.22126
     Eigenvalues ---    0.22928   0.23331   0.24167   0.24397   0.24643
     Eigenvalues ---    0.28596   0.31252   0.32924   0.32942   0.33440
     Eigenvalues ---    0.33660   0.34295   0.34614   0.35541   0.35878
     Eigenvalues ---    0.36106   0.36189   0.36599   0.37376   0.38107
     Eigenvalues ---    0.39385   0.43166   0.43787   0.44235   0.47171
     Eigenvalues ---    0.49342   0.53167   0.57854   0.61885   0.66232
     Eigenvalues ---    0.69550   0.80389   0.86362   1.16386   2.42602
 RFO step:  Lambda=-1.23424581D-02 EMin= 2.24751361D-03
 Quartic linear search produced a step of  2.00000.
 SLEqS3 Cycle:  1111 Max:0.954784E-03 RMS:0.150454E-03 Conv:0.112646E-05
 SLEqS3 Cycle:  1111 Max:0.954784E-03 RMS:0.150454E-03 Conv:0.112646E-05
 Iteration  1 RMS(Cart)=  0.01008347 RMS(Int)=  0.45714575
 Iteration  2 RMS(Cart)=  0.00495426 RMS(Int)=  0.45608873
 Iteration  3 RMS(Cart)=  0.00570316 RMS(Int)=  0.45490363
 Iteration  4 RMS(Cart)=  0.05216707 RMS(Int)=  0.44243651
 New curvilinear step failed, DQL= 6.17D+00 SP=-6.66D-01.
 ITry= 1 IFail=1 DXMaxC= 2.73D-01 DCOld= 1.00D+10 DXMaxT= 2.02D+00 DXLimC= 3.00D+00 Rises=F
 SLEqS3 Cycle:  1111 Max:0.738134E-03 RMS:0.125958E-03 Conv:0.104623E-05
 SLEqS3 Cycle:  1111 Max:0.738134E-03 RMS:0.125958E-03 Conv:0.104623E-05
 Iteration  1 RMS(Cart)=  0.00993616 RMS(Int)=  0.45689414
 Iteration  2 RMS(Cart)=  0.07930155 RMS(Int)=  0.43398956
 New curvilinear step failed, DQL= 6.20D+00 SP=-8.39D-01.
 ITry= 2 IFail=1 DXMaxC= 3.39D-01 DCOld= 1.00D+10 DXMaxT= 2.02D+00 DXLimC= 3.00D+00 Rises=F
 SLEqS3 Cycle:  1111 Max:0.586364E-03 RMS:0.106576E-03 Conv:0.966002E-06
 SLEqS3 Cycle:  1111 Max:0.586364E-03 RMS:0.106576E-03 Conv:0.966002E-06
 Iteration  1 RMS(Cart)=  0.00980425 RMS(Int)=  0.45666726
 Iteration  2 RMS(Cart)=  0.09460687 RMS(Int)=  0.43789683
 New curvilinear step failed, DQL= 6.22D+00 SP=-1.31D-01.
 ITry= 3 IFail=1 DXMaxC= 4.00D-01 DCOld= 1.00D+10 DXMaxT= 2.02D+00 DXLimC= 3.00D+00 Rises=F
 SLEqS3 Cycle:  1111 Max:0.983817E-03 RMS:0.158383E-03 Conv:0.885772E-06
 SLEqS3 Cycle:  1111 Max:0.983817E-03 RMS:0.158383E-03 Conv:0.885772E-06
 Iteration  1 RMS(Cart)=  0.00966837 RMS(Int)=  0.45633675
 New curvilinear step failed, DQL= 6.17D+00 SP=-4.08D-01.
 ITry= 4 IFail=1 DXMaxC= 4.26D-02 DCOld= 1.00D+10 DXMaxT= 2.02D+00 DXLimC= 3.00D+00 Rises=F
 SLEqS3 Cycle:  1111 Max:0.719262E-03 RMS:0.126361E-03 Conv:0.805542E-06
slurmstepd: error: *** JOB 27446683 ON lewis4-r630-hpc4-node228 CANCELLED AT 2023-05-17T20:03:07 DUE TO TIME LIMIT ***
