### Starting Gaussian ###
 Entering Gaussian System, Link 0=g16
 Initial command:
 /cluster/software/gaussian/gaussian-16-A.03/avx2/g16/l1.exe "/local/scratch/linjian/Gau-7185.inp" -scrdir="/local/scratch/linjian/"
 Entering Link 1 = /cluster/software/gaussian/gaussian-16-A.03/avx2/g16/l1.exe PID=      7186.
  
 Copyright (c) 1988,1990,1992,1993,1995,1998,2003,2009,2016,
            Gaussian, Inc.  All Rights Reserved.
  
 This is part of the Gaussian(R) 16 program.  It is based on
 the Gaussian(R) 09 system (copyright 2009, Gaussian, Inc.),
 the Gaussian(R) 03 system (copyright 2003, Gaussian, Inc.),
 the Gaussian(R) 98 system (copyright 1998, Gaussian, Inc.),
 the Gaussian(R) 94 system (copyright 1995, Gaussian, Inc.),
 the Gaussian 92(TM) system (copyright 1992, Gaussian, Inc.),
 the Gaussian 90(TM) system (copyright 1990, Gaussian, Inc.),
 the Gaussian 88(TM) system (copyright 1988, Gaussian, Inc.),
 the Gaussian 86(TM) system (copyright 1986, Carnegie Mellon
 University), and the Gaussian 82(TM) system (copyright 1983,
 Carnegie Mellon University). Gaussian is a federally registered
 trademark of Gaussian, Inc.
  
 This software contains proprietary and confidential information,
 including trade secrets, belonging to Gaussian, Inc.
  
 This software is provided under written license and may be
 used, copied, transmitted, or stored only in accord with that
 written license.
  
 The following legend is applicable only to US Government
 contracts under FAR:
  
                    RESTRICTED RIGHTS LEGEND
  
 Use, reproduction and disclosure by the US Government is
 subject to restrictions as set forth in subparagraphs (a)
 and (c) of the Commercial Computer Software - Restricted
 Rights clause in FAR 52.227-19.
  
 Gaussian, Inc.
 340 Quinnipiac St., Bldg. 40, Wallingford CT 06492
  
  
 ---------------------------------------------------------------
 Warning -- This program may not be used in any manner that
 competes with the business of Gaussian, Inc. or will provide
 assistance to any competitor of Gaussian, Inc.  The licensee
 of this program is prohibited from giving any competitor of
 Gaussian, Inc. access to this program.  By using this program,
 the user acknowledges that Gaussian, Inc. is engaged in the
 business of creating and licensing software in the field of
 computational chemistry and represents and warrants to the
 licensee that it is not a competitor of Gaussian, Inc. and that
 it will not use this program in any manner prohibited above.
 ---------------------------------------------------------------
  

 Cite this work as:
 Gaussian 16, Revision A.03,
 M. J. Frisch, G. W. Trucks, H. B. Schlegel, G. E. Scuseria, 
 M. A. Robb, J. R. Cheeseman, G. Scalmani, V. Barone, 
 G. A. Petersson, H. Nakatsuji, X. Li, M. Caricato, A. V. Marenich, 
 J. Bloino, B. G. Janesko, R. Gomperts, B. Mennucci, H. P. Hratchian, 
 J. V. Ortiz, A. F. Izmaylov, J. L. Sonnenberg, D. Williams-Young, 
 F. Ding, F. Lipparini, F. Egidi, J. Goings, B. Peng, A. Petrone, 
 T. Henderson, D. Ranasinghe, V. G. Zakrzewski, J. Gao, N. Rega, 
 G. Zheng, W. Liang, M. Hada, M. Ehara, K. Toyota, R. Fukuda, 
 J. Hasegawa, M. Ishida, T. Nakajima, Y. Honda, O. Kitao, H. Nakai, 
 T. Vreven, K. Throssell, J. A. Montgomery, Jr., J. E. Peralta, 
 F. Ogliaro, M. J. Bearpark, J. J. Heyd, E. N. Brothers, K. N. Kudin, 
 V. N. Staroverov, T. A. Keith, R. Kobayashi, J. Normand, 
 K. Raghavachari, A. P. Rendell, J. C. Burant, S. S. Iyengar, 
 J. Tomasi, M. Cossi, J. M. Millam, M. Klene, C. Adamo, R. Cammi, 
 J. W. Ochterski, R. L. Martin, K. Morokuma, O. Farkas, 
 J. B. Foresman, and D. J. Fox, Gaussian, Inc., Wallingford CT, 2016.
 
 ******************************************
 Gaussian 16:  ES64L-G16RevA.03 25-Dec-2016
                17-May-2023 
 ******************************************
 %chk=Ndc1nc2c3cccqcccc1-2rdCNdCCdNNdCCd3.chk
 %NProcShared=20
 Will use up to   20 processors via shared memory.
 -----------------------------
 # opt freq b3lyp/6-31g(2df,p)
 -----------------------------
 1/18=20,19=15,26=3,38=1/1,3;
 2/9=110,12=2,17=6,18=5,40=1/2;
 3/5=1,6=6,7=104,11=2,25=1,30=1,71=1,74=-5/1,2,3;
 4//1;
 5/5=2,38=5/2;
 6/7=2,8=2,9=2,10=2,28=1/1;
 7//1,2,3,16;
 1/18=20,19=15,26=3/3(2);
 2/9=110/2;
 99//99;
 2/9=110/2;
 3/5=1,6=6,7=104,11=2,25=1,30=1,71=1,74=-5/1,2,3;
 4/5=5,16=3,69=1/1;
 5/5=2,38=5/2;
 7//1,2,3,16;
 1/18=20,19=15,26=3/3(-5);
 2/9=110/2;
 6/7=2,8=2,9=2,10=2,19=2,28=1/1;
 99/9=1/99;
 -------------------
 Title Card Required
 -------------------
 Symbolic Z-matrix:
 Charge =  0 Multiplicity = 1
 N                     1.81975   0.10464   0.13945 
 C                     3.55224  -0.03407  -0.023 
 N                     3.73285  -0.9793   -1.16764 
 C                     5.3252   -1.41434  -1.69216 
 C                     6.89548  -2.49756  -3.00257 
 C                     6.68258  -1.60665  -1.92675 
 C                     7.58563  -2.19811  -2.64206 
 C                     8.94908  -2.15872  -2.59402 
 C                     9.42958  -1.38596  -1.65896 
 C                     8.8828   -0.6314   -0.7475 
 C                     7.59767   0.1281    0.17128 
 C                     5.70693  -0.08603  -0.08227 
 C                     9.90369  -2.76178  -3.3236 
 N                     11.04719  -2.51219  -3.02168 
 C                     10.9773  -3.25631  -3.92164 
 C                     12.68096  -3.51072  -4.22926 
 N                     11.92306  -4.24985  -5.12321 
 N                     12.9341  -4.08236  -4.92044 
 C                     11.00083  -4.15755  -5.01116 
 C                     8.60328  -3.48644  -4.1989 
 H                     0.68668  -0.44705  -0.52595 
 H                     6.77405  -0.98003  -1.16931 
 H                     7.64465  -3.04257  -3.66474 
 H                     10.47207  -1.46151  -1.75107 
 H                     7.90833  -0.63751  -0.75399 
 H                     9.19917   0.36074   0.4474 
 H                     9.74502  -3.71752  -4.47954 
 H                     9.9156   -4.37158  -5.27037 
 H                     13.64243  -3.08801  -3.71803 
 H                     12.34435  -5.00416  -6.03526 
 H                     6.83405  -3.53187  -4.25467 
 
 Add virtual bond connecting atoms H31        and H23        Dist= 2.11D+00.
 Add virtual bond connecting atoms H30        and N17        Dist= 2.37D+00.
 Add virtual bond connecting atoms H21        and N1         Dist= 2.69D+00.
 Add virtual bond connecting atoms H26        and C10        Dist= 3.00D+00.
 Add virtual bond connecting atoms H26        and C11        Dist= 3.10D+00.
 Add virtual bond connecting atoms C2         and N1         Dist= 3.30D+00.
 Add virtual bond connecting atoms C11        and C12        Dist= 3.63D+00.
 Add virtual bond connecting atoms H22        and C12        Dist= 3.34D+00.

 GradGradGradGradGradGradGradGradGradGradGradGradGradGradGradGradGradGrad
 Berny optimization.
 Initialization pass.
                           ----------------------------
                           !    Initial Parameters    !
                           ! (Angstroms and Degrees)  !
 --------------------------                            --------------------------
 ! Name  Definition              Value          Derivative Info.                !
 --------------------------------------------------------------------------------
 ! R1    R(1,2)                  1.7456         estimate D2E/DX2                !
 ! R2    R(1,21)                 1.4251         estimate D2E/DX2                !
 ! R3    R(2,3)                  1.4954         estimate D2E/DX2                !
 ! R4    R(3,4)                  1.732          estimate D2E/DX2                !
 ! R5    R(4,6)                  1.3909         estimate D2E/DX2                !
 ! R6    R(5,6)                  1.413          estimate D2E/DX2                !
 ! R7    R(5,7)                  0.8342         estimate D2E/DX2                !
 ! R8    R(5,23)                 1.1388         estimate D2E/DX2                !
 ! R9    R(6,7)                  1.295          estimate D2E/DX2                !
 ! R10   R(6,22)                 0.9873         estimate D2E/DX2                !
 ! R11   R(7,8)                  1.3649         estimate D2E/DX2                !
 ! R12   R(8,9)                  1.3048         estimate D2E/DX2                !
 ! R13   R(8,13)                 1.3443         estimate D2E/DX2                !
 ! R14   R(9,10)                 1.3035         estimate D2E/DX2                !
 ! R15   R(9,24)                 1.0493         estimate D2E/DX2                !
 ! R16   R(10,11)                1.7529         estimate D2E/DX2                !
 ! R17   R(10,25)                0.9745         estimate D2E/DX2                !
 ! R18   R(10,26)                1.585          estimate D2E/DX2                !
 ! R19   R(11,12)                1.9196         estimate D2E/DX2                !
 ! R20   R(11,25)                1.2405         estimate D2E/DX2                !
 ! R21   R(11,26)                1.6417         estimate D2E/DX2                !
 ! R22   R(12,22)                1.7662         estimate D2E/DX2                !
 ! R23   R(13,14)                1.2087         estimate D2E/DX2                !
 ! R24   R(13,15)                1.3247         estimate D2E/DX2                !
 ! R25   R(13,20)                1.7269         estimate D2E/DX2                !
 ! R26   R(14,15)                1.1698         estimate D2E/DX2                !
 ! R27   R(15,16)                1.7498         estimate D2E/DX2                !
 ! R28   R(15,19)                1.4142         estimate D2E/DX2                !
 ! R29   R(16,17)                1.3856         estimate D2E/DX2                !
 ! R30   R(16,18)                0.932          estimate D2E/DX2                !
 ! R31   R(16,29)                1.1681         estimate D2E/DX2                !
 ! R32   R(17,18)                1.0447         estimate D2E/DX2                !
 ! R33   R(17,19)                0.9336         estimate D2E/DX2                !
 ! R34   R(17,30)                1.2563         estimate D2E/DX2                !
 ! R35   R(19,28)                1.1361         estimate D2E/DX2                !
 ! R36   R(20,23)                1.1838         estimate D2E/DX2                !
 ! R37   R(20,27)                1.1982         estimate D2E/DX2                !
 ! R38   R(23,31)                1.1156         estimate D2E/DX2                !
 ! A1    A(2,1,21)             135.6335         estimate D2E/DX2                !
 ! A2    A(1,2,3)              103.9649         estimate D2E/DX2                !
 ! A3    A(2,3,4)              120.1056         estimate D2E/DX2                !
 ! A4    A(6,5,23)             147.527          estimate D2E/DX2                !
 ! A5    A(7,5,23)              83.0399         estimate D2E/DX2                !
 ! A6    A(4,6,5)              111.2632         estimate D2E/DX2                !
 ! A7    A(4,6,7)              146.8112         estimate D2E/DX2                !
 ! A8    A(4,6,22)              82.7189         estimate D2E/DX2                !
 ! A9    A(7,6,22)             130.4699         estimate D2E/DX2                !
 ! A10   A(5,7,8)              148.4298         estimate D2E/DX2                !
 ! A11   A(6,7,8)              131.6054         estimate D2E/DX2                !
 ! A12   A(7,8,9)              114.2177         estimate D2E/DX2                !
 ! A13   A(7,8,13)             132.6339         estimate D2E/DX2                !
 ! A14   A(9,8,13)             113.1483         estimate D2E/DX2                !
 ! A15   A(8,9,10)             133.5897         estimate D2E/DX2                !
 ! A16   A(8,9,24)             105.0898         estimate D2E/DX2                !
 ! A17   A(10,9,24)            121.3205         estimate D2E/DX2                !
 ! A18   A(9,10,11)            157.6496         estimate D2E/DX2                !
 ! A19   A(9,10,25)            114.2783         estimate D2E/DX2                !
 ! A20   A(9,10,26)            143.6848         estimate D2E/DX2                !
 ! A21   A(25,10,26)           102.0368         estimate D2E/DX2                !
 ! A22   A(10,11,12)           127.1968         estimate D2E/DX2                !
 ! A23   A(12,11,25)            94.5483         estimate D2E/DX2                !
 ! A24   A(25,11,26)            88.2012         estimate D2E/DX2                !
 ! A25   A(11,12,22)            62.7853         estimate D2E/DX2                !
 ! A26   A(8,13,14)            116.3328         estimate D2E/DX2                !
 ! A27   A(8,13,20)             85.9054         estimate D2E/DX2                !
 ! A28   A(14,13,20)           157.7617         estimate D2E/DX2                !
 ! A29   A(15,13,20)           102.9918         estimate D2E/DX2                !
 ! A30   A(13,15,16)           157.3273         estimate D2E/DX2                !
 ! A31   A(13,15,19)           126.8134         estimate D2E/DX2                !
 ! A32   A(14,15,16)            99.7623         estimate D2E/DX2                !
 ! A33   A(16,15,19)            75.8593         estimate D2E/DX2                !
 ! A34   A(15,16,17)            70.0269         estimate D2E/DX2                !
 ! A35   A(15,16,18)           118.9478         estimate D2E/DX2                !
 ! A36   A(15,16,29)           132.2094         estimate D2E/DX2                !
 ! A37   A(17,16,29)           157.7637         estimate D2E/DX2                !
 ! A38   A(18,16,29)           108.8428         estimate D2E/DX2                !
 ! A39   A(16,17,19)           114.2148         estimate D2E/DX2                !
 ! A40   A(16,17,30)           127.2463         estimate D2E/DX2                !
 ! A41   A(18,17,19)           156.4733         estimate D2E/DX2                !
 ! A42   A(18,17,30)            84.9878         estimate D2E/DX2                !
 ! A43   A(19,17,30)           118.5389         estimate D2E/DX2                !
 ! A44   A(15,19,17)            99.899          estimate D2E/DX2                !
 ! A45   A(15,19,28)           106.2571         estimate D2E/DX2                !
 ! A46   A(17,19,28)           153.8438         estimate D2E/DX2                !
 ! A47   A(13,20,23)           102.9291         estimate D2E/DX2                !
 ! A48   A(13,20,27)            58.8098         estimate D2E/DX2                !
 ! A49   A(23,20,27)           161.7386         estimate D2E/DX2                !
 ! A50   A(6,22,12)            137.5144         estimate D2E/DX2                !
 ! A51   A(5,23,31)             92.257          estimate D2E/DX2                !
 ! A52   A(20,23,31)           100.6812         estimate D2E/DX2                !
 ! A53   L(3,4,6,12,-1)        169.4284         estimate D2E/DX2                !
 ! A54   L(5,6,22,4,-1)        193.9821         estimate D2E/DX2                !
 ! A55   L(12,11,26,25,-1)     182.7495         estimate D2E/DX2                !
 ! A56   L(8,13,15,20,-1)      188.8972         estimate D2E/DX2                !
 ! A57   L(14,15,19,16,-1)     175.6215         estimate D2E/DX2                !
 ! A58   L(5,23,20,31,-1)      192.9382         estimate D2E/DX2                !
 ! A59   L(3,4,6,12,-2)        180.0989         estimate D2E/DX2                !
 ! A60   L(5,6,22,4,-2)        179.9552         estimate D2E/DX2                !
 ! A61   L(12,11,26,25,-2)     179.9878         estimate D2E/DX2                !
 ! A62   L(8,13,15,20,-2)      180.0115         estimate D2E/DX2                !
 ! A63   L(14,15,19,16,-2)     179.9877         estimate D2E/DX2                !
 ! A64   L(5,23,20,31,-2)      180.1944         estimate D2E/DX2                !
 ! D1    D(21,1,2,3)             0.2447         estimate D2E/DX2                !
 ! D2    D(1,2,3,4)            179.937          estimate D2E/DX2                !
 ! D3    D(2,3,6,5)            179.9121         estimate D2E/DX2                !
 ! D4    D(2,3,6,7)            179.9532         estimate D2E/DX2                !
 ! D5    D(2,3,6,22)            -0.0538         estimate D2E/DX2                !
 ! D6    D(23,5,6,4)           179.8251         estimate D2E/DX2                !
 ! D7    D(23,5,7,8)            -0.2269         estimate D2E/DX2                !
 ! D8    D(23,5,22,12)        -179.9367         estimate D2E/DX2                !
 ! D9    D(6,5,23,31)         -179.8316         estimate D2E/DX2                !
 ! D10   D(7,5,23,31)          179.9969         estimate D2E/DX2                !
 ! D11   D(4,6,7,8)           -179.8892         estimate D2E/DX2                !
 ! D12   D(22,6,7,8)             0.0335         estimate D2E/DX2                !
 ! D13   D(4,6,22,12)            0.1395         estimate D2E/DX2                !
 ! D14   D(7,6,22,12)         -179.8178         estimate D2E/DX2                !
 ! D15   D(5,7,8,9)           -179.835          estimate D2E/DX2                !
 ! D16   D(5,7,8,13)             0.1737         estimate D2E/DX2                !
 ! D17   D(6,7,8,9)              0.0005         estimate D2E/DX2                !
 ! D18   D(6,7,8,13)          -179.9908         estimate D2E/DX2                !
 ! D19   D(7,8,9,10)            -0.0499         estimate D2E/DX2                !
 ! D20   D(7,8,9,24)          -179.964          estimate D2E/DX2                !
 ! D21   D(13,8,9,10)          179.9431         estimate D2E/DX2                !
 ! D22   D(13,8,9,24)            0.029          estimate D2E/DX2                !
 ! D23   D(7,8,13,14)          179.9848         estimate D2E/DX2                !
 ! D24   D(7,8,13,20)           -0.0435         estimate D2E/DX2                !
 ! D25   D(9,8,13,14)           -0.0065         estimate D2E/DX2                !
 ! D26   D(9,8,13,20)          179.9651         estimate D2E/DX2                !
 ! D27   D(7,8,15,16)          179.9895         estimate D2E/DX2                !
 ! D28   D(7,8,15,19)           -0.0361         estimate D2E/DX2                !
 ! D29   D(9,8,15,16)           -0.0053         estimate D2E/DX2                !
 ! D30   D(9,8,15,19)          179.9691         estimate D2E/DX2                !
 ! D31   D(8,9,10,11)            0.1366         estimate D2E/DX2                !
 ! D32   D(8,9,10,25)            0.0991         estimate D2E/DX2                !
 ! D33   D(8,9,10,26)         -179.7997         estimate D2E/DX2                !
 ! D34   D(24,9,10,11)        -179.9605         estimate D2E/DX2                !
 ! D35   D(24,9,10,25)        -179.998          estimate D2E/DX2                !
 ! D36   D(24,9,10,26)           0.1032         estimate D2E/DX2                !
 ! D37   D(9,10,11,12)           0.032          estimate D2E/DX2                !
 ! D38   D(10,11,12,22)         -0.1546         estimate D2E/DX2                !
 ! D39   D(25,11,12,22)         -0.1103         estimate D2E/DX2                !
 ! D40   D(11,12,22,6)         179.9005         estimate D2E/DX2                !
 ! D41   D(20,13,15,16)       -179.9753         estimate D2E/DX2                !
 ! D42   D(20,13,15,19)          0.011          estimate D2E/DX2                !
 ! D43   D(8,13,20,23)           0.0943         estimate D2E/DX2                !
 ! D44   D(8,13,20,27)         179.9772         estimate D2E/DX2                !
 ! D45   D(14,13,20,23)       -179.9729         estimate D2E/DX2                !
 ! D46   D(14,13,20,27)         -0.0899         estimate D2E/DX2                !
 ! D47   D(15,13,20,23)       -179.9172         estimate D2E/DX2                !
 ! D48   D(15,13,20,27)         -0.0343         estimate D2E/DX2                !
 ! D49   D(13,15,16,17)       -179.9992         estimate D2E/DX2                !
 ! D50   D(13,15,16,18)        179.9935         estimate D2E/DX2                !
 ! D51   D(13,15,16,29)         -0.001          estimate D2E/DX2                !
 ! D52   D(14,15,16,17)        179.9999         estimate D2E/DX2                !
 ! D53   D(14,15,16,18)        179.9926         estimate D2E/DX2                !
 ! D54   D(14,15,16,29)         -0.0019         estimate D2E/DX2                !
 ! D55   D(19,15,16,17)          0.0122         estimate D2E/DX2                !
 ! D56   D(19,15,16,18)          0.0049         estimate D2E/DX2                !
 ! D57   D(19,15,16,29)       -179.9896         estimate D2E/DX2                !
 ! D58   D(13,15,19,17)        179.9882         estimate D2E/DX2                !
 ! D59   D(13,15,19,28)          0.0224         estimate D2E/DX2                !
 ! D60   D(16,15,19,17)         -0.0173         estimate D2E/DX2                !
 ! D61   D(16,15,19,28)       -179.9831         estimate D2E/DX2                !
 ! D62   D(15,16,17,19)         -0.0196         estimate D2E/DX2                !
 ! D63   D(15,16,17,30)       -179.9923         estimate D2E/DX2                !
 ! D64   D(29,16,17,19)        179.9839         estimate D2E/DX2                !
 ! D65   D(29,16,17,30)          0.0113         estimate D2E/DX2                !
 ! D66   D(16,17,19,15)          0.0232         estimate D2E/DX2                !
 ! D67   D(16,17,19,28)        179.9487         estimate D2E/DX2                !
 ! D68   D(18,17,19,15)          0.0705         estimate D2E/DX2                !
 ! D69   D(18,17,19,28)        179.9961         estimate D2E/DX2                !
 ! D70   D(30,17,19,15)        179.9984         estimate D2E/DX2                !
 ! D71   D(30,17,19,28)         -0.076          estimate D2E/DX2                !
 ! D72   D(13,20,23,31)       -179.9664         estimate D2E/DX2                !
 ! D73   D(27,20,23,31)        179.7141         estimate D2E/DX2                !
 --------------------------------------------------------------------------------
 Trust Radius=3.00D-01 FncErr=1.00D-07 GrdErr=1.00D-06 EigMax=2.50D+02 EigMin=1.00D-04
 Number of steps in this run=    185 maximum allowed number of steps=    186.
 GradGradGradGradGradGradGradGradGradGradGradGradGradGradGradGradGradGrad

                          Input orientation:                          
 ---------------------------------------------------------------------
 Center     Atomic      Atomic             Coordinates (Angstroms)
 Number     Number       Type             X           Y           Z
 ---------------------------------------------------------------------
      1          7           0        1.819750    0.104640    0.139450
      2          6           0        3.552240   -0.034070   -0.023000
      3          7           0        3.732850   -0.979300   -1.167640
      4          6           0        5.325200   -1.414340   -1.692160
      5          6           0        6.895480   -2.497560   -3.002570
      6          6           0        6.682580   -1.606650   -1.926750
      7          6           0        7.585630   -2.198110   -2.642060
      8          6           0        8.949080   -2.158720   -2.594020
      9          6           0        9.429580   -1.385960   -1.658960
     10          6           0        8.882800   -0.631400   -0.747500
     11          6           0        7.597670    0.128100    0.171280
     12          6           0        5.706930   -0.086030   -0.082270
     13          6           0        9.903690   -2.761780   -3.323600
     14          7           0       11.047190   -2.512190   -3.021680
     15          6           0       10.977300   -3.256310   -3.921640
     16          6           0       12.680960   -3.510720   -4.229260
     17          7           0       11.923060   -4.249850   -5.123210
     18          7           0       12.934100   -4.082360   -4.920440
     19          6           0       11.000830   -4.157550   -5.011160
     20          6           0        8.603280   -3.486440   -4.198900
     21          1           0        0.686680   -0.447050   -0.525950
     22          1           0        6.774050   -0.980030   -1.169310
     23          1           0        7.644650   -3.042570   -3.664740
     24          1           0       10.472070   -1.461510   -1.751070
     25          1           0        7.908330   -0.637510   -0.753990
     26          1           0        9.199170    0.360740    0.447400
     27          1           0        9.745020   -3.717520   -4.479540
     28          1           0        9.915600   -4.371580   -5.270370
     29          1           0       13.642430   -3.088010   -3.718030
     30          1           0       12.344350   -5.004160   -6.035260
     31          1           0        6.834050   -3.531870   -4.254670
 ---------------------------------------------------------------------
                    Distance matrix (angstroms):
                    1          2          3          4          5
     1  N    0.000000
     2  C    1.745609   0.000000
     3  N    2.558000   1.495420   0.000000
     4  C    4.236777   2.799040   1.732039   0.000000
     5  C    6.512048   5.111152   3.959079   2.314372   0.000000
     6  C    5.553811   3.987016   3.109779   1.390862   1.412953
     7  C    6.803295   5.273593   4.301549   2.574131   0.834233
     8  C    7.963793   6.344302   5.534857   3.807881   2.121084
     9  C    7.960256   6.248768   5.732321   4.104612   3.076135
    10  C    7.156473   5.412631   5.178758   3.763229   3.537985
    11  C    5.778055   4.053338   4.237437   3.318983   4.178575
    12  C    3.898164   2.156131   2.423417   2.121761   3.969418
    13  C    9.249820   7.659979   6.775298   5.043784   3.036808
    14  N   10.098821   8.444373   7.699791   5.976125   4.151780
    15  C   10.566417   8.984083   8.077831   6.348990   4.252252
    16  C   12.252442  10.635471   9.790315   8.058467   6.000253
    17  N   12.195657  10.670313   9.665535   7.958893   5.730986
    18  N   12.909773  11.331058  10.410355   8.685360   6.531060
    19  C   11.357257   9.867437   8.814616   7.124166   4.862499
    20  C    8.816656   7.407429   6.260621   4.617700   2.307741
    21  H    1.425120   2.938528   3.158197   4.879709   6.991955
    22  H    5.237791   3.548088   3.041201   1.600364   2.382957
    23  H    7.635853   6.249893   5.078855   3.452833   1.138754
    24  H    8.993861   7.273779   6.781593   5.147423   3.928314
    25  H    6.198373   4.458027   4.209817   2.855904   3.088974
    26  H    7.390281   5.680226   5.855315   4.768256   5.037773
    27  H    9.937499   8.472253   7.390042   5.710423   3.433602
    28  H   10.716599   9.318864   8.158821   6.528448   4.216159
    29  H   12.839351  11.171022  10.447532   8.722479   6.810422
    30  H   13.228533  11.753734  10.679474   9.000988   6.720896
    31  H    7.594452   6.396242   5.065847   3.650619   1.625215
                    6          7          8          9         10
     6  C    0.000000
     7  C    1.294988   0.000000
     8  C    2.426325   1.364865   0.000000
     9  C    2.768831   2.241924   1.304751   0.000000
    10  C    2.680058   2.779674   2.397235   1.303491   0.000000
    11  C    2.872016   3.650518   3.834415   2.999675   1.752871
    12  C    2.581915   3.813518   4.595266   4.246633   3.290305
    13  C    3.696088   2.481053   1.344339   2.211038   3.495286
    14  N    4.590065   3.496449   2.170230   2.396260   3.659761
    15  C    5.014537   3.776313   2.661006   3.318639   4.620849
    16  C    6.701313   5.495865   4.292883   4.657523   5.902470
    17  N    6.683300   5.401763   4.428790   5.140072   6.440745
    18  N    7.360219   6.111264   4.999300   5.494496   6.762809
    19  C    5.887950   4.595175   3.748008   4.624693   5.924406
    20  C    3.519285   2.262555   2.111411   3.397953   4.487933
    21  H    6.265599   7.425607   8.687576   8.865865   8.201186
    22  H    0.987287   2.076385   2.854797   2.730637   2.178599
    23  H    2.451133   1.327581   1.905038   3.154914   3.982091
    24  H    3.796336   3.109337   1.875144   1.049275   2.054754
    25  H    1.953730   2.470712   2.604410   1.921809   0.974511
    26  H    3.980005   4.323886   3.957330   2.746052   1.584998
    27  H    4.511214   3.216816   2.572657   3.673057   4.918911
    28  H    5.410827   4.130466   3.604686   4.710884   5.959193
    29  H    7.337753   6.215662   4.914724   4.988472   6.124791
    30  H    7.776797   6.483297   5.609503   6.382731   7.685295
    31  H    3.024670   2.223578   3.019379   4.251990   4.991026
                   11         12         13         14         15
    11  C    0.000000
    12  C    1.919645   0.000000
    13  C    5.087565   5.939584   0.000000
    14  N    5.391226   6.560851   1.208736   0.000000
    15  C    6.295087   7.250396   1.324708   1.169841   0.000000
    16  C    7.644972   8.806993   3.015686   2.263739   1.749803
    17  N    8.118317   9.021571   3.087200   2.864095   1.823555
    18  N    8.493001   9.571339   3.671133   3.103410   2.347132
    19  C    7.536974   8.300398   2.449438   2.582129   1.414157
    20  C    5.759742   6.074395   1.726948   2.882309   2.401209
    21  H    6.969843   5.052732   9.906467  10.855120  11.194620
    22  H    1.924444   1.766249   4.196456   4.902909   5.515803
    23  H    4.976988   5.032890   2.301843   3.503157   3.349364
    24  H    3.805846   5.232915   2.118162   1.746179   2.861457
    25  H    1.240481   2.366749   3.885470   4.302242   5.129395
    26  H    1.641696   3.560322   4.946405   4.868616   5.944183
    27  H    6.405469   6.987838   1.508248   2.296481   1.429154
    28  H    7.431788   7.936953   2.526165   3.129606   2.046975
    29  H    7.874593   9.230536   3.773616   2.748043   2.678190
    30  H    9.348380  10.182408   4.282311   4.119976   3.064506
    31  H    5.793749   5.527489   3.298882   4.506724   4.165737
                   16         17         18         19         20
    16  C    0.000000
    17  N    1.385595   0.000000
    18  N    0.931977   1.044687   0.000000
    19  C    1.962802   0.933586   1.936857   0.000000
    20  C    4.077865   3.529601   4.430772   2.618855   0.000000
    21  H   12.921429  12.722119  13.510230  11.843421   9.241267
    22  H    7.117533   7.268931   7.851219   6.536216   4.336656
    23  H    5.089427   4.678616   5.535000   3.784174   1.183773
    24  H    3.901267   4.609939   4.793261   4.263380   3.685728
    25  H    6.565884   6.946736   7.381373   6.330698   4.524021
    26  H    6.998729   7.727148   7.905982   7.311416   6.061681
    27  H    2.953836   2.332712   3.240020   1.432936   1.198218
    28  H    3.077695   2.016524   3.052448   1.136100   1.911467
    29  H    1.168103   2.506120   1.713550   3.129561   5.077698
    30  H    2.367553   1.256306   1.562160   1.889597   4.435234
    31  H    5.847003   5.212282   6.160917   4.280865   1.770692
                   21         22         23         24         25
    21  H    0.000000
    22  H    6.144433   0.000000
    23  H    8.062386   3.352490   0.000000
    24  H    9.913824   3.774337   3.762471   0.000000
    25  H    7.227759   1.255548   3.785011   2.871569   0.000000
    26  H    8.605953   3.208212   5.559564   3.126362   2.026354
    27  H   10.410589   5.222848   2.351810   3.614240   5.171036
    28  H   11.094342   6.179858   3.082455   4.600395   6.194360
    29  H   13.602040   7.623267   5.998189   4.070088   6.904374
    30  H   13.675563   8.420174   5.617329   5.866011   8.163193
    31  H    7.823658   4.004364   1.115574   4.877458   4.667564
                   26         27         28         29         30
    26  H    0.000000
    27  H    6.419104   0.000000
    28  H    7.456609   1.040338   0.000000
    29  H    6.999089   4.020695   4.236340   0.000000
    30  H    8.983273   3.291234   2.623746   3.275087   0.000000
    31  H    6.546424   2.925539   3.351524   6.843905   5.975077
                   31
    31  H    0.000000
 Stoichiometry    C15H11N5
 Framework group  C1[X(C15H11N5)]
 Deg. of freedom    87
 Full point group                 C1      NOp   1
 Largest Abelian subgroup         C1      NOp   1
 Largest concise Abelian subgroup C1      NOp   1
                         Standard orientation:                         
 ---------------------------------------------------------------------
 Center     Atomic      Atomic             Coordinates (Angstroms)
 Number     Number       Type             X           Y           Z
 ---------------------------------------------------------------------
      1          7           0        7.276101   -0.814276    0.002422
      2          6           0        5.723421   -0.016575   -0.000930
      3          7           0        4.739246   -1.142486   -0.000002
      4          6           0        3.039327   -0.810468   -0.001011
      5          6           0        0.784763   -1.333209   -0.000771
      6          6           0        1.746345   -0.297934    0.000291
      7          6           0        0.477651   -0.557563    0.000295
      8          6           0       -0.614824    0.260578    0.000065
      9          6           0       -0.329948    1.533850   -0.000221
     10          6           0        0.787616    2.204774    0.000487
     11          6           0        2.520650    2.467736    0.000324
     12          6           0        3.897440    1.130024   -0.003167
     13          6           0       -1.936494    0.014739    0.000224
     14          7           0       -2.661734    0.981729    0.000207
     15          6           0       -3.260659   -0.023167    0.000206
     16          6           0       -4.893880    0.604847    0.000191
     17          7           0       -4.919509   -0.780511    0.000193
     18          7           0       -5.607615    0.005543    0.000083
     19          6           0       -4.075294   -1.179113   -0.000091
     20          6           0       -1.500263   -1.656204   -0.000517
     21          1           0        7.726920   -2.166211    0.001236
     22          1           0        2.223549    0.566364    0.000555
     23          1           0       -0.317014   -1.621038    0.001167
     24          1           0       -1.258959    2.021616    0.000268
     25          1           0        1.588384    1.649400   -0.000104
     26          1           0        1.399442    3.666922    0.003694
     27          1           0       -2.648789   -1.314715    0.000246
     28          1           0       -3.366982   -2.067379    0.000116
     29          1           0       -5.315846    1.694071    0.000214
     30          1           0       -5.933473   -1.522252    0.000052
     31          1           0       -0.077772   -2.710655   -0.000023
 ---------------------------------------------------------------------
 Rotational constants (GHZ):           1.4031990           0.1405094           0.1277201
 Standard basis: 6-31G(2df,p) (6D, 7F)
 There are   675 symmetry adapted cartesian basis functions of A   symmetry.
 There are   615 symmetry adapted basis functions of A   symmetry.
   615 basis functions,   957 primitive gaussians,   675 cartesian basis functions
    68 alpha electrons       68 beta electrons
       nuclear repulsion energy      1387.3030589687 Hartrees.
 NAtoms=   31 NActive=   31 NUniq=   31 SFac= 1.00D+00 NAtFMM=   60 NAOKFM=F Big=F
 Integral buffers will be    131072 words long.
 Raffenetti 2 integral format.
 Two-electron integral symmetry is turned on.
 One-electron integrals computed using PRISM.
 PrsmSu:  requested number of processors reduced to:  12 ShMem   1 Linda.
 NBasis=   615 RedAO= T EigKep=  2.11D-05  NBF=   615
 NBsUse=   615 1.00D-06 EigRej= -1.00D+00 NBFU=   615
 ExpMin= 1.61D-01 ExpMax= 4.17D+03 ExpMxC= 6.27D+02 IAcc=3 IRadAn=         5 AccDes= 0.00D+00
 Harris functional with IExCor=  402 and IRadAn=       5 diagonalized for initial guess.
 HarFok:  IExCor=  402 AccDes= 0.00D+00 IRadAn=         5 IDoV= 1 UseB2=F ITyADJ=14
 ICtDFT=  3500011 ScaDFX=  1.000000  1.000000  1.000000  1.000000
 FoFCou: FMM=F IPFlag=           0 FMFlag=      100000 FMFlg1=           0
         NFxFlg=           0 DoJE=T BraDBF=F KetDBF=T FulRan=T
         wScrn=  0.000000 ICntrl=       500 IOpCl=  0 I1Cent=   200000004 NGrid=           0
         NMat0=    1 NMatS0=      1 NMatT0=    0 NMatD0=    1 NMtDS0=    0 NMtDT0=    0
 Petite list used in FoFCou.
 Requested convergence on RMS density matrix=1.00D-08 within 128 cycles.
 Requested convergence on MAX density matrix=1.00D-06.
 Requested convergence on             energy=1.00D-06.
 No special actions if energy rises.
 Integral accuracy reduced to 1.0D-05 until final iterations.
 EnCoef did     7 forward-backward iterations
 EnCoef did   100 forward-backward iterations
 EnCoef did     5 forward-backward iterations
 EnCoef did     3 forward-backward iterations
 EnCoef did     5 forward-backward iterations
 EnCoef did   100 forward-backward iterations
 EnCoef did    14 forward-backward iterations
 EnCoef did     6 forward-backward iterations
 EnCoef did     2 forward-backward iterations
 EnCoef did   100 forward-backward iterations
 EnCoef did     3 forward-backward iterations
 EnCoef did     5 forward-backward iterations
 EnCoef did     3 forward-backward iterations
 EnCoef did     5 forward-backward iterations
 Restarting incremental Fock formation.
 Initial convergence to 1.0D-05 achieved.  Increase integral accuracy.
 SCF Done:  E(RB3LYP) =  -847.739712872     A.U. after   46 cycles
            NFock= 46  Conv=0.79D-08     -V/T= 1.9900

 **********************************************************************

            Population analysis using the SCF density.

 **********************************************************************

 Orbital symmetries:
       Occupied  (A) (A) (A) (A) (A) (A) (A) (A) (A) (A) (A) (A)
                 (A) (A) (A) (A) (A) (A) (A) (A) (A) (A) (A) (A)
                 (A) (A) (A) (A) (A) (A) (A) (A) (A) (A) (A) (A)
                 (A) (A) (A) (A) (A) (A) (A) (A) (A) (A) (A) (A)
                 (A) (A) (A) (A) (A) (A) (A) (A) (A) (A) (A) (A)
                 (A) (A) (A) (A) (A) (A) (A) (A)
       Virtual   (A) (A) (A) (A) (A) (A) (A) (A) (A) (A) (A) (A)
                 (A) (A) (A) (A) (A) (A) (A) (A) (A) (A) (A) (A)
                 (A) (A) (A) (A) (A) (A) (A) (A) (A) (A) (A) (A)
                 (A) (A) (A) (A) (A) (A) (A) (A) (A) (A) (A) (A)
                 (A) (A) (A) (A) (A) (A) (A) (A) (A) (A) (A) (A)
                 (A) (A) (A) (A) (A) (A) (A) (A) (A) (A) (A) (A)
                 (A) (A) (A) (A) (A) (A) (A) (A) (A) (A) (A) (A)
                 (A) (A) (A) (A) (A) (A) (A) (A) (A) (A) (A) (A)
                 (A) (A) (A) (A) (A) (A) (A) (A) (A) (A) (A) (A)
                 (A) (A) (A) (A) (A) (A) (A) (A) (A) (A) (A) (A)
                 (A) (A) (A) (A) (A) (A) (A) (A) (A) (A) (A) (A)
                 (A) (A) (A) (A) (A) (A) (A) (A) (A) (A) (A) (A)
                 (A) (A) (A) (A) (A) (A) (A) (A) (A) (A) (A) (A)
                 (A) (A) (A) (A) (A) (A) (A) (A) (A) (A) (A) (A)
                 (A) (A) (A) (A) (A) (A) (A) (A) (A) (A) (A) (A)
                 (A) (A) (A) (A) (A) (A) (A) (A) (A) (A) (A) (A)
                 (A) (A) (A) (A) (A) (A) (A) (A) (A) (A) (A) (A)
                 (A) (A) (A) (A) (A) (A) (A) (A) (A) (A) (A) (A)
                 (A) (A) (A) (A) (A) (A) (A) (A) (A) (A) (A) (A)
                 (A) (A) (A) (A) (A) (A) (A) (A) (A) (A) (A) (A)
                 (A) (A) (A) (A) (A) (A) (A) (A) (A) (A) (A) (A)
                 (A) (A) (A) (A) (A) (A) (A) (A) (A) (A) (A) (A)
                 (A) (A) (A) (A) (A) (A) (A) (A) (A) (A) (A) (A)
                 (A) (A) (A) (A) (A) (A) (A) (A) (A) (A) (A) (A)
                 (A) (A) (A) (A) (A) (A) (A) (A) (A) (A) (A) (A)
                 (A) (A) (A) (A) (A) (A) (A) (A) (A) (A) (A) (A)
                 (A) (A) (A) (A) (A) (A) (A) (A) (A) (A) (A) (A)
                 (A) (A) (A) (A) (A) (A) (A) (A) (A) (A) (A) (A)
                 (A) (A) (A) (A) (A) (A) (A) (A) (A) (A) (A) (A)
                 (A) (A) (A) (A) (A) (A) (A) (A) (A) (A) (A) (A)
                 (A) (A) (A) (A) (A) (A) (A) (A) (A) (A) (A) (A)
                 (A) (A) (A) (A) (A) (A) (A) (A) (A) (A) (A) (A)
                 (A) (A) (A) (A) (A) (A) (A) (A) (A) (A) (A) (A)
                 (A) (A) (A) (A) (A) (A) (A) (A) (A) (A) (A) (A)
                 (A) (A) (A) (A) (A) (A) (A) (A) (A) (A) (A) (A)
                 (A) (A) (A) (A) (A) (A) (A) (A) (A) (A) (A) (A)
                 (A) (A) (A) (A) (A) (A) (A) (A) (A) (A) (A) (A)
                 (A) (A) (A) (A) (A) (A) (A) (A) (A) (A) (A) (A)
                 (A) (A) (A) (A) (A) (A) (A) (A) (A) (A) (A) (A)
                 (A) (A) (A) (A) (A) (A) (A) (A) (A) (A) (A) (A)
                 (A) (A) (A) (A) (A) (A) (A) (A) (A) (A) (A) (A)
                 (A) (A) (A) (A) (A) (A) (A) (A) (A) (A) (A) (A)
                 (A) (A) (A) (A) (A) (A) (A) (A) (A) (A) (A) (A)
                 (A) (A) (A) (A) (A) (A) (A) (A) (A) (A) (A) (A)
                 (A) (A) (A) (A) (A) (A) (A) (A) (A) (A) (A) (A)
                 (A) (A) (A) (A) (A) (A) (A)
 The electronic state is 1-A.
 Alpha  occ. eigenvalues --  -14.51311 -14.39816 -14.38036 -14.37873 -14.34401
 Alpha  occ. eigenvalues --  -10.30748 -10.30566 -10.30210 -10.29428 -10.29182
 Alpha  occ. eigenvalues --  -10.28935 -10.28710 -10.27422 -10.26305 -10.24648
 Alpha  occ. eigenvalues --  -10.24341 -10.24261 -10.23735 -10.21016 -10.19741
 Alpha  occ. eigenvalues --   -1.45995  -1.21777  -1.12561  -1.11124  -0.93103
 Alpha  occ. eigenvalues --   -0.91735  -0.90315  -0.85699  -0.82786  -0.82337
 Alpha  occ. eigenvalues --   -0.78769  -0.77530  -0.75267  -0.71635  -0.70332
 Alpha  occ. eigenvalues --   -0.68703  -0.64071  -0.61572  -0.60052  -0.57770
 Alpha  occ. eigenvalues --   -0.57285  -0.55740  -0.54803  -0.54082  -0.51146
 Alpha  occ. eigenvalues --   -0.49132  -0.48547  -0.45137  -0.44019  -0.43022
 Alpha  occ. eigenvalues --   -0.41320  -0.39238  -0.38399  -0.37419  -0.35256
 Alpha  occ. eigenvalues --   -0.33159  -0.32431  -0.29024  -0.28945  -0.28177
 Alpha  occ. eigenvalues --   -0.26793  -0.25837  -0.22497  -0.21537  -0.21093
 Alpha  occ. eigenvalues --   -0.19445  -0.18066  -0.17747
 Alpha virt. eigenvalues --   -0.14576  -0.13535  -0.13488  -0.08199  -0.07725
 Alpha virt. eigenvalues --   -0.06159  -0.04961  -0.04344  -0.03036  -0.02121
 Alpha virt. eigenvalues --   -0.00803   0.01465   0.02614   0.03811   0.04114
 Alpha virt. eigenvalues --    0.04965   0.05416   0.07661   0.08679   0.10102
 Alpha virt. eigenvalues --    0.11781   0.13533   0.15428   0.18111   0.18593
 Alpha virt. eigenvalues --    0.19666   0.22695   0.24023   0.24576   0.25044
 Alpha virt. eigenvalues --    0.27492   0.28338   0.29437   0.32885   0.33532
 Alpha virt. eigenvalues --    0.34125   0.35557   0.35585   0.37752   0.38247
 Alpha virt. eigenvalues --    0.38582   0.39951   0.40276   0.42067   0.42882
 Alpha virt. eigenvalues --    0.44001   0.45362   0.45809   0.46017   0.46782
 Alpha virt. eigenvalues --    0.48679   0.48692   0.50007   0.50589   0.51124
 Alpha virt. eigenvalues --    0.51435   0.52076   0.52568   0.52716   0.53232
 Alpha virt. eigenvalues --    0.53818   0.54443   0.54814   0.56738   0.57189
 Alpha virt. eigenvalues --    0.57378   0.57452   0.59482   0.59508   0.59773
 Alpha virt. eigenvalues --    0.61174   0.61240   0.61585   0.63037   0.63455
 Alpha virt. eigenvalues --    0.64339   0.64505   0.64542   0.64945   0.66085
 Alpha virt. eigenvalues --    0.67609   0.68206   0.69482   0.69595   0.70667
 Alpha virt. eigenvalues --    0.71459   0.71493   0.71959   0.72786   0.73096
 Alpha virt. eigenvalues --    0.74279   0.74642   0.75621   0.76607   0.77418
 Alpha virt. eigenvalues --    0.77518   0.78124   0.78895   0.79078   0.79530
 Alpha virt. eigenvalues --    0.79550   0.81260   0.81921   0.82449   0.83174
 Alpha virt. eigenvalues --    0.83501   0.83958   0.84927   0.85704   0.86475
 Alpha virt. eigenvalues --    0.88003   0.89682   0.90214   0.90686   0.92060
 Alpha virt. eigenvalues --    0.93007   0.93608   0.93822   0.94693   0.94940
 Alpha virt. eigenvalues --    0.97393   0.97420   0.98112   1.00121   1.00658
 Alpha virt. eigenvalues --    1.01395   1.01462   1.01763   1.04251   1.04440
 Alpha virt. eigenvalues --    1.06446   1.07459   1.08585   1.09546   1.09659
 Alpha virt. eigenvalues --    1.10467   1.11351   1.11809   1.12642   1.13651
 Alpha virt. eigenvalues --    1.15216   1.16310   1.17339   1.17387   1.18291
 Alpha virt. eigenvalues --    1.20147   1.20437   1.20997   1.21821   1.22069
 Alpha virt. eigenvalues --    1.23394   1.24641   1.25243   1.26928   1.27126
 Alpha virt. eigenvalues --    1.28513   1.30172   1.30695   1.31575   1.33853
 Alpha virt. eigenvalues --    1.34898   1.36207   1.36755   1.38477   1.38940
 Alpha virt. eigenvalues --    1.39536   1.40586   1.43230   1.44015   1.44299
 Alpha virt. eigenvalues --    1.44399   1.45648   1.45773   1.47438   1.48410
 Alpha virt. eigenvalues --    1.49371   1.50134   1.50783   1.51294   1.52102
 Alpha virt. eigenvalues --    1.52854   1.55788   1.58217   1.58869   1.60559
 Alpha virt. eigenvalues --    1.61126   1.61429   1.63695   1.65182   1.65556
 Alpha virt. eigenvalues --    1.66983   1.67459   1.67840   1.69502   1.70211
 Alpha virt. eigenvalues --    1.72840   1.73158   1.73631   1.75581   1.76527
 Alpha virt. eigenvalues --    1.78621   1.80251   1.82565   1.84022   1.84796
 Alpha virt. eigenvalues --    1.85157   1.86850   1.89256   1.90740   1.92988
 Alpha virt. eigenvalues --    1.94986   1.97214   1.97854   1.98812   2.01067
 Alpha virt. eigenvalues --    2.01604   2.02217   2.03655   2.04226   2.05505
 Alpha virt. eigenvalues --    2.10597   2.11031   2.11747   2.12910   2.13947
 Alpha virt. eigenvalues --    2.15403   2.15588   2.16519   2.18765   2.19669
 Alpha virt. eigenvalues --    2.20367   2.22604   2.23761   2.24598   2.28680
 Alpha virt. eigenvalues --    2.28966   2.29631   2.31819   2.34301   2.35420
 Alpha virt. eigenvalues --    2.36232   2.39455   2.39847   2.41617   2.42263
 Alpha virt. eigenvalues --    2.44946   2.46402   2.46995   2.49003   2.51195
 Alpha virt. eigenvalues --    2.51946   2.52983   2.58775   2.59488   2.60938
 Alpha virt. eigenvalues --    2.61609   2.63748   2.64689   2.66159   2.68140
 Alpha virt. eigenvalues --    2.69012   2.70058   2.70869   2.71966   2.72395
 Alpha virt. eigenvalues --    2.73138   2.76016   2.77124   2.77287   2.79584
 Alpha virt. eigenvalues --    2.80110   2.81333   2.81925   2.82693   2.84968
 Alpha virt. eigenvalues --    2.85587   2.86700   2.87402   2.88469   2.89405
 Alpha virt. eigenvalues --    2.91676   2.92007   2.93448   2.93689   2.94697
 Alpha virt. eigenvalues --    2.95492   2.97329   2.98786   2.99648   3.00462
 Alpha virt. eigenvalues --    3.01190   3.02476   3.02538   3.03247   3.04655
 Alpha virt. eigenvalues --    3.04737   3.06117   3.06712   3.07861   3.11650
 Alpha virt. eigenvalues --    3.11857   3.12575   3.13551   3.13880   3.14049
 Alpha virt. eigenvalues --    3.14909   3.17098   3.17668   3.18214   3.19841
 Alpha virt. eigenvalues --    3.20774   3.22311   3.22514   3.23648   3.24404
 Alpha virt. eigenvalues --    3.25810   3.27301   3.28847   3.30579   3.32891
 Alpha virt. eigenvalues --    3.33105   3.33170   3.33995   3.34424   3.36131
 Alpha virt. eigenvalues --    3.37837   3.37945   3.38920   3.39248   3.42800
 Alpha virt. eigenvalues --    3.43027   3.44798   3.45518   3.46825   3.48922
 Alpha virt. eigenvalues --    3.51234   3.51756   3.51984   3.53363   3.54120
 Alpha virt. eigenvalues --    3.55874   3.56661   3.57305   3.58637   3.60462
 Alpha virt. eigenvalues --    3.62405   3.63670   3.64221   3.64495   3.65058
 Alpha virt. eigenvalues --    3.66077   3.66527   3.68011   3.69356   3.70103
 Alpha virt. eigenvalues --    3.71789   3.71847   3.73882   3.74607   3.75186
 Alpha virt. eigenvalues --    3.76394   3.79113   3.79753   3.80928   3.82192
 Alpha virt. eigenvalues --    3.83592   3.85488   3.86293   3.86395   3.89742
 Alpha virt. eigenvalues --    3.90368   3.91080   3.91408   3.92901   3.93751
 Alpha virt. eigenvalues --    3.96450   3.98094   4.00338   4.00553   4.01547
 Alpha virt. eigenvalues --    4.02059   4.03260   4.07011   4.07121   4.08168
 Alpha virt. eigenvalues --    4.09286   4.10004   4.12296   4.12676   4.15593
 Alpha virt. eigenvalues --    4.16498   4.18033   4.18711   4.19257   4.20332
 Alpha virt. eigenvalues --    4.21085   4.22533   4.22967   4.23701   4.25128
 Alpha virt. eigenvalues --    4.26707   4.27279   4.28236   4.28883   4.30243
 Alpha virt. eigenvalues --    4.30932   4.31458   4.34719   4.34897   4.35319
 Alpha virt. eigenvalues --    4.36444   4.36693   4.38967   4.39079   4.39812
 Alpha virt. eigenvalues --    4.40382   4.41277   4.41774   4.42288   4.44343
 Alpha virt. eigenvalues --    4.44558   4.46106   4.47922   4.48202   4.48849
 Alpha virt. eigenvalues --    4.50290   4.51008   4.52165   4.53331   4.54273
 Alpha virt. eigenvalues --    4.54548   4.56135   4.57638   4.58444   4.61039
 Alpha virt. eigenvalues --    4.61942   4.62365   4.64392   4.65189   4.67023
 Alpha virt. eigenvalues --    4.67883   4.68591   4.69447   4.71135   4.72124
 Alpha virt. eigenvalues --    4.72989   4.73910   4.74665   4.76491   4.78677
 Alpha virt. eigenvalues --    4.80572   4.83736   4.84912   4.86983   4.87169
 Alpha virt. eigenvalues --    4.89375   4.89440   4.91068   4.93060   4.93238
 Alpha virt. eigenvalues --    4.94084   4.97017   4.97977   4.99494   5.01313
 Alpha virt. eigenvalues --    5.01392   5.04879   5.05777   5.07204   5.07448
 Alpha virt. eigenvalues --    5.09657   5.10805   5.14222   5.14380   5.18875
 Alpha virt. eigenvalues --    5.24393   5.26679   5.27433   5.32470   5.33222
 Alpha virt. eigenvalues --    5.34426   5.36364   5.38306   5.42727   5.43146
 Alpha virt. eigenvalues --    5.46754   5.51110   5.53244   5.57247   5.60233
 Alpha virt. eigenvalues --    5.60296   5.65117   5.69514   5.73274   5.76021
 Alpha virt. eigenvalues --    5.77025   5.78944   5.83087   5.91622   5.94373
 Alpha virt. eigenvalues --    5.97565   6.02701   6.04208   6.12464   6.13987
 Alpha virt. eigenvalues --    6.19641   6.23203   6.26627   6.31665   6.33251
 Alpha virt. eigenvalues --    6.35693   6.51813   6.55382   6.64060   6.76970
 Alpha virt. eigenvalues --    6.87951   6.94733   7.24608   7.42263   7.54498
 Alpha virt. eigenvalues --    7.95043   9.00671   9.76330   9.87939   9.98873
 Alpha virt. eigenvalues --   10.23630  10.41171  10.45217  10.76507  11.00856
 Alpha virt. eigenvalues --   11.13197  11.20131  11.23933  11.31509  11.40311
 Alpha virt. eigenvalues --   11.48631  11.76534  11.76907  11.79637  12.08169
 Alpha virt. eigenvalues --   12.35418  12.62471  13.12170  14.54766  27.23906
 Alpha virt. eigenvalues --   29.90341  41.80958
          Condensed to atoms (all electrons):
               1          2          3          4          5          6
     1  N    6.992845   0.276889  -0.016348   0.001469   0.000000  -0.000007
     2  C    0.276889   5.214325   0.344874  -0.021561  -0.000113  -0.002455
     3  N   -0.016348   0.344874   6.772993   0.193677  -0.002657  -0.035762
     4  C    0.001469  -0.021561   0.193677   5.737106  -0.222580   0.200395
     5  C    0.000000  -0.000113  -0.002657  -0.222580  10.284657   0.115121
     6  C   -0.000007  -0.002455  -0.035762   0.200395   0.115121   5.530012
     7  C   -0.000000   0.000083   0.002498   0.151834  -3.612258  -0.134612
     8  C    0.000000   0.000003   0.000046   0.025148  -0.057614   0.124660
     9  C   -0.000000  -0.000002  -0.000001  -0.005184   0.080240  -0.102606
    10  C    0.000000  -0.000009  -0.000070   0.013223   0.045812   0.029494
    11  C   -0.000004  -0.000742   0.001618  -0.003136   0.002292  -0.049498
    12  C   -0.002011   0.064862  -0.030090   0.120509   0.003164   0.003915
    13  C    0.000000   0.000000   0.000000   0.001038  -0.406931   0.052472
    14  N   -0.000000  -0.000000  -0.000000   0.000002  -0.002488   0.000358
    15  C    0.000000   0.000000  -0.000000   0.000005  -0.016929   0.001517
    16  C    0.000000  -0.000000  -0.000000   0.000000  -0.000023   0.000001
    17  N    0.000000   0.000000   0.000000  -0.000000  -0.000002  -0.000000
    18  N    0.000000   0.000000  -0.000000  -0.000000   0.000001  -0.000000
    19  C   -0.000000  -0.000000  -0.000000  -0.000000   0.000482  -0.000026
    20  C   -0.000000   0.000000   0.000000   0.001271  -0.103239  -0.000314
    21  H    0.156597  -0.003694  -0.000397   0.000161   0.000000  -0.000001
    22  H   -0.000011  -0.000183   0.004247  -0.020043  -0.058750   0.231907
    23  H    0.000000   0.000000  -0.000016  -0.005489   0.634798  -0.046704
    24  H    0.000000  -0.000000  -0.000000   0.000000  -0.002584  -0.000076
    25  H   -0.000000   0.000176   0.000040  -0.026115  -0.038506   0.050051
    26  H    0.000000  -0.000005   0.000000  -0.000259  -0.000054   0.000813
    27  H   -0.000000   0.000000   0.000000   0.000011  -0.014196   0.000237
    28  H    0.000000  -0.000000  -0.000000  -0.000000  -0.000296   0.000020
    29  H    0.000000   0.000000   0.000000  -0.000000   0.000000  -0.000000
    30  H    0.000000   0.000000   0.000000   0.000000  -0.000000   0.000000
    31  H    0.000000  -0.000000   0.000004  -0.003814   0.056383  -0.000499
               7          8          9         10         11         12
     1  N   -0.000000   0.000000  -0.000000   0.000000  -0.000004  -0.002011
     2  C    0.000083   0.000003  -0.000002  -0.000009  -0.000742   0.064862
     3  N    0.002498   0.000046  -0.000001  -0.000070   0.001618  -0.030090
     4  C    0.151834   0.025148  -0.005184   0.013223  -0.003136   0.120509
     5  C   -3.612258  -0.057614   0.080240   0.045812   0.002292   0.003164
     6  C   -0.134612   0.124660  -0.102606   0.029494  -0.049498   0.003915
     7  C    9.101501   0.059768   0.246218  -0.238173  -0.013122   0.007850
     8  C    0.059768   6.428510   0.412992   0.119155   0.004600  -0.000357
     9  C    0.246218   0.412992   5.122266   0.249177  -0.048203   0.001587
    10  C   -0.238173   0.119155   0.249177   5.946495   0.034133  -0.015372
    11  C   -0.013122   0.004600  -0.048203   0.034133   6.367230   0.152544
    12  C    0.007850  -0.000357   0.001587  -0.015372   0.152544   5.793077
    13  C    0.189279  -0.292055  -0.380802   0.037071   0.000141  -0.000013
    14  N    0.013436  -0.107190  -0.065690  -0.000462  -0.000008   0.000000
    15  C    0.000832  -0.520860  -0.036878   0.001635  -0.000000  -0.000000
    16  C   -0.000039  -0.009983  -0.000060  -0.000004  -0.000000  -0.000000
    17  N    0.000017   0.000028  -0.000036  -0.000000  -0.000000   0.000000
    18  N    0.000002   0.001444  -0.000018  -0.000000   0.000000   0.000000
    19  C   -0.000916   0.027171   0.000094   0.000008   0.000000  -0.000000
    20  C   -0.146088  -0.029953   0.006299  -0.001130  -0.000004   0.000008
    21  H    0.000000   0.000000  -0.000000  -0.000000  -0.000000  -0.000036
    22  H   -0.011416  -0.006821   0.008371  -0.005958   0.071745  -0.073100
    23  H   -0.539884   0.051283   0.022275  -0.001083  -0.000048  -0.000090
    24  H    0.003535  -0.020750   0.376910  -0.059421   0.000499  -0.000004
    25  H    0.082646  -0.038710   0.025411   0.084380  -0.108450   0.034208
    26  H    0.001696  -0.001301   0.005521   0.254618   0.003221   0.001566
    27  H    0.024912  -0.106026  -0.000431  -0.000042   0.000000  -0.000000
    28  H    0.000853  -0.006420  -0.000182   0.000003  -0.000000   0.000000
    29  H    0.000000   0.000282  -0.000039   0.000000   0.000000   0.000000
    30  H    0.000001  -0.000061   0.000000   0.000000  -0.000000   0.000000
    31  H    0.059232  -0.000659  -0.001487   0.000250  -0.000005   0.000018
              13         14         15         16         17         18
     1  N    0.000000  -0.000000   0.000000   0.000000   0.000000   0.000000
     2  C    0.000000  -0.000000   0.000000  -0.000000   0.000000   0.000000
     3  N    0.000000  -0.000000  -0.000000  -0.000000   0.000000  -0.000000
     4  C    0.001038   0.000002   0.000005   0.000000  -0.000000  -0.000000
     5  C   -0.406931  -0.002488  -0.016929  -0.000023  -0.000002   0.000001
     6  C    0.052472   0.000358   0.001517   0.000001  -0.000000  -0.000000
     7  C    0.189279   0.013436   0.000832  -0.000039   0.000017   0.000002
     8  C   -0.292055  -0.107190  -0.520860  -0.009983   0.000028   0.001444
     9  C   -0.380802  -0.065690  -0.036878  -0.000060  -0.000036  -0.000018
    10  C    0.037071  -0.000462   0.001635  -0.000004  -0.000000  -0.000000
    11  C    0.000141  -0.000008  -0.000000  -0.000000  -0.000000   0.000000
    12  C   -0.000013   0.000000  -0.000000  -0.000000   0.000000   0.000000
    13  C    6.743538   0.443342  -0.555626  -0.097414  -0.008711   0.055212
    14  N    0.443342   6.763089   0.316157  -0.225374   0.009095   0.022412
    15  C   -0.555626   0.316157   6.555367   0.383293  -0.159949  -0.087320
    16  C   -0.097414  -0.225374   0.383293   6.540631  -0.230474   0.137942
    17  N   -0.008711   0.009095  -0.159949  -0.230474   5.756338   0.314707
    18  N    0.055212   0.022412  -0.087320   0.137942   0.314707   6.763354
    19  C    0.013413   0.056103   0.284800  -0.006853   0.262155  -0.269864
    20  C    0.180319  -0.051584  -0.059645   0.004514  -0.001404   0.000401
    21  H    0.000000  -0.000000   0.000000   0.000000   0.000000   0.000000
    22  H    0.000057   0.000015   0.000017   0.000000   0.000000  -0.000000
    23  H   -0.187077  -0.001222  -0.017748  -0.000082   0.000030   0.000010
    24  H   -0.032963   0.019562  -0.004628  -0.000011  -0.000011   0.000029
    25  H   -0.001168  -0.000099  -0.000115  -0.000000   0.000000   0.000000
    26  H   -0.000190   0.000022  -0.000006   0.000000   0.000000  -0.000000
    27  H   -0.138354   0.008854   0.055366   0.012111  -0.015821  -0.013308
    28  H   -0.041206   0.006532  -0.073226   0.013401  -0.001945  -0.001365
    29  H    0.002931   0.014757  -0.030356   0.174359   0.003711   0.029687
    30  H   -0.001881  -0.000817   0.034174   0.071066   0.241145  -0.289228
    31  H    0.017181   0.000036   0.001675  -0.000019   0.000017   0.000002
              19         20         21         22         23         24
     1  N   -0.000000  -0.000000   0.156597  -0.000011   0.000000   0.000000
     2  C   -0.000000   0.000000  -0.003694  -0.000183   0.000000  -0.000000
     3  N   -0.000000   0.000000  -0.000397   0.004247  -0.000016  -0.000000
     4  C   -0.000000   0.001271   0.000161  -0.020043  -0.005489   0.000000
     5  C    0.000482  -0.103239   0.000000  -0.058750   0.634798  -0.002584
     6  C   -0.000026  -0.000314  -0.000001   0.231907  -0.046704  -0.000076
     7  C   -0.000916  -0.146088   0.000000  -0.011416  -0.539884   0.003535
     8  C    0.027171  -0.029953   0.000000  -0.006821   0.051283  -0.020750
     9  C    0.000094   0.006299  -0.000000   0.008371   0.022275   0.376910
    10  C    0.000008  -0.001130  -0.000000  -0.005958  -0.001083  -0.059421
    11  C    0.000000  -0.000004  -0.000000   0.071745  -0.000048   0.000499
    12  C   -0.000000   0.000008  -0.000036  -0.073100  -0.000090  -0.000004
    13  C    0.013413   0.180319   0.000000   0.000057  -0.187077  -0.032963
    14  N    0.056103  -0.051584  -0.000000   0.000015  -0.001222   0.019562
    15  C    0.284800  -0.059645   0.000000   0.000017  -0.017748  -0.004628
    16  C   -0.006853   0.004514   0.000000   0.000000  -0.000082  -0.000011
    17  N    0.262155  -0.001404   0.000000   0.000000   0.000030  -0.000011
    18  N   -0.269864   0.000401   0.000000  -0.000000   0.000010   0.000029
    19  C    6.226524  -0.085489   0.000000  -0.000000   0.005041  -0.000077
    20  C   -0.085489   6.346064  -0.000000  -0.000686   0.218321   0.001451
    21  H    0.000000  -0.000000   0.703017   0.000000   0.000000  -0.000000
    22  H   -0.000000  -0.000686   0.000000   0.484203   0.001886  -0.000227
    23  H    0.005041   0.218321   0.000000   0.001886   0.859507  -0.000897
    24  H   -0.000077   0.001451  -0.000000  -0.000227  -0.000897   0.556282
    25  H    0.000000   0.000252   0.000000   0.008055  -0.000157   0.006129
    26  H   -0.000000   0.000004  -0.000000  -0.001660   0.000008  -0.002305
    27  H   -0.181437   0.372203  -0.000000   0.000003  -0.051657  -0.000163
    28  H    0.341295   0.028821  -0.000000   0.000000  -0.001169  -0.000034
    29  H    0.003088  -0.000053   0.000000  -0.000000   0.000002   0.000051
    30  H   -0.023227   0.000089   0.000000   0.000000  -0.000007  -0.000001
    31  H   -0.000144   0.009211   0.000000  -0.000431  -0.061216   0.000002
              25         26         27         28         29         30
     1  N   -0.000000   0.000000  -0.000000   0.000000   0.000000   0.000000
     2  C    0.000176  -0.000005   0.000000  -0.000000   0.000000   0.000000
     3  N    0.000040   0.000000   0.000000  -0.000000   0.000000   0.000000
     4  C   -0.026115  -0.000259   0.000011  -0.000000  -0.000000   0.000000
     5  C   -0.038506  -0.000054  -0.014196  -0.000296   0.000000  -0.000000
     6  C    0.050051   0.000813   0.000237   0.000020  -0.000000   0.000000
     7  C    0.082646   0.001696   0.024912   0.000853   0.000000   0.000001
     8  C   -0.038710  -0.001301  -0.106026  -0.006420   0.000282  -0.000061
     9  C    0.025411   0.005521  -0.000431  -0.000182  -0.000039   0.000000
    10  C    0.084380   0.254618  -0.000042   0.000003   0.000000   0.000000
    11  C   -0.108450   0.003221   0.000000  -0.000000   0.000000  -0.000000
    12  C    0.034208   0.001566  -0.000000   0.000000   0.000000   0.000000
    13  C   -0.001168  -0.000190  -0.138354  -0.041206   0.002931  -0.001881
    14  N   -0.000099   0.000022   0.008854   0.006532   0.014757  -0.000817
    15  C   -0.000115  -0.000006   0.055366  -0.073226  -0.030356   0.034174
    16  C   -0.000000   0.000000   0.012111   0.013401   0.174359   0.071066
    17  N    0.000000   0.000000  -0.015821  -0.001945   0.003711   0.241145
    18  N    0.000000  -0.000000  -0.013308  -0.001365   0.029687  -0.289228
    19  C    0.000000  -0.000000  -0.181437   0.341295   0.003088  -0.023227
    20  C    0.000252   0.000004   0.372203   0.028821  -0.000053   0.000089
    21  H    0.000000  -0.000000  -0.000000  -0.000000   0.000000   0.000000
    22  H    0.008055  -0.001660   0.000003   0.000000  -0.000000   0.000000
    23  H   -0.000157   0.000008  -0.051657  -0.001169   0.000002  -0.000007
    24  H    0.006129  -0.002305  -0.000163  -0.000034   0.000051  -0.000001
    25  H    0.585747  -0.006886   0.000014  -0.000000   0.000000  -0.000000
    26  H   -0.006886   0.499801  -0.000000  -0.000000  -0.000000   0.000000
    27  H    0.000014  -0.000000   0.688830   0.039891  -0.000620   0.006276
    28  H   -0.000000  -0.000000   0.039891   0.446307  -0.000089  -0.009240
    29  H    0.000000  -0.000000  -0.000620  -0.000089   0.747414  -0.009371
    30  H   -0.000000   0.000000   0.006276  -0.009240  -0.009371   0.873088
    31  H   -0.000105  -0.000000   0.004294  -0.000145   0.000000  -0.000001
              31
     1  N    0.000000
     2  C   -0.000000
     3  N    0.000004
     4  C   -0.003814
     5  C    0.056383
     6  C   -0.000499
     7  C    0.059232
     8  C   -0.000659
     9  C   -0.001487
    10  C    0.000250
    11  C   -0.000005
    12  C    0.000018
    13  C    0.017181
    14  N    0.000036
    15  C    0.001675
    16  C   -0.000019
    17  N    0.000017
    18  N    0.000002
    19  C   -0.000144
    20  C    0.009211
    21  H    0.000000
    22  H   -0.000431
    23  H   -0.061216
    24  H    0.000002
    25  H   -0.000105
    26  H   -0.000000
    27  H    0.004294
    28  H   -0.000145
    29  H    0.000000
    30  H   -0.000001
    31  H    0.719925
 Mulliken charges:
               1
     1  N   -0.409418
     2  C    0.127551
     3  N   -0.234654
     4  C   -0.137668
     5  C   -0.683728
     6  C    0.031587
     7  C    0.750316
     8  C   -0.056330
     9  C    0.084259
    10  C   -0.493729
    11  C   -0.414803
    12  C   -0.062235
    13  C    0.408395
    14  N   -0.218836
    15  C   -0.071551
    16  C   -0.766984
    17  N    0.831110
    18  N    0.335901
    19  C   -0.652141
    20  C   -0.689640
    21  H    0.144353
    22  H    0.368780
    23  H    0.121385
    24  H    0.159701
    25  H    0.343204
    26  H    0.245397
    27  H    0.309055
    28  H    0.258194
    29  H    0.064245
    30  H    0.107994
    31  H    0.200294
 Sum of Mulliken charges =  -0.00000
 Mulliken charges with hydrogens summed into heavy atoms:
               1
     1  N   -0.265065
     2  C    0.127551
     3  N   -0.234654
     4  C   -0.137668
     5  C   -0.362050
     6  C    0.400367
     7  C    0.750316
     8  C   -0.056330
     9  C    0.243959
    10  C    0.094871
    11  C   -0.414803
    12  C   -0.062235
    13  C    0.408395
    14  N   -0.218836
    15  C   -0.071551
    16  C   -0.702739
    17  N    0.939104
    18  N    0.335901
    19  C   -0.393947
    20  C   -0.380586
 Electronic spatial extent (au):  <R**2>=           7707.4031
 Charge=             -0.0000 electrons
 Dipole moment (field-independent basis, Debye):
    X=            -15.0189    Y=             -1.7770    Z=              0.0689  Tot=             15.1238
 Quadrupole moment (field-independent basis, Debye-Ang):
   XX=           -157.4782   YY=           -115.5033   ZZ=           -117.1223
   XY=              5.6499   XZ=              0.7690   YZ=              0.2140
 Traceless Quadrupole moment (field-independent basis, Debye-Ang):
   XX=            -27.4436   YY=             14.5313   ZZ=             12.9123
   XY=              5.6499   XZ=              0.7690   YZ=              0.2140
 Octapole moment (field-independent basis, Debye-Ang**2):
  XXX=           -595.5938  YYY=             -7.5772  ZZZ=              0.2153  XYY=            -27.6547
  XXY=            -46.0588  XXZ=              7.0927  XZZ=            -35.1084  YZZ=             -4.2039
  YYZ=              0.1562  XYZ=              0.8409
 Hexadecapole moment (field-independent basis, Debye-Ang**3):
 XXXX=         -11777.0865 YYYY=          -1115.9421 ZZZZ=           -114.2437 XXXY=            -44.0448
 XXXZ=             60.8962 YYYX=            -56.8170 YYYZ=              0.2908 ZZZX=              1.5476
 ZZZY=              0.0383 XXYY=          -1715.3480 XXZZ=          -1620.7677 YYZZ=           -236.1702
 XXYZ=              1.7479 YYXZ=              1.1260 ZZXY=            -12.2876
 N-N= 1.387303058969D+03 E-N=-4.749579406396D+03  KE= 8.562668718114D+02
 PrsmSu:  requested number of processors reduced to:  12 ShMem   1 Linda.
 Calling FoFJK, ICntrl=      2127 FMM=F ISym2X=0 I1Cent= 0 IOpClX= 0 NMat=1 NMatS=1 NMatT=0.
 ***** Axes restored to original set *****
 -------------------------------------------------------------------
 Center     Atomic                   Forces (Hartrees/Bohr)
 Number     Number              X              Y              Z
 -------------------------------------------------------------------
      1        7           0.019127769    0.016024598   -0.011510250
      2        6          -0.054820784   -0.110177926   -0.099708962
      3        7           0.011751054    0.050059137    0.026752627
      4        6          -0.020401124    0.057303126    0.073372144
      5        6          -2.168531458   -0.917331441   -1.085996681
      6        6          -0.247205176    0.064422918    0.069933993
      7        6           2.141202501    0.833602757    0.993025312
      8        6          -0.005659104    0.027020113    0.028468641
      9        6           0.052410469    0.044848231    0.053395861
     10        6           0.156195379    0.091038810    0.108650202
     11        6          -0.069105067    0.032471936    0.039558748
     12        6           0.046253224   -0.023633843   -0.025516784
     13        6          -0.375092069    0.064563035    0.077082837
     14        7           0.151821225    0.179281073    0.218918690
     15        6           0.209315286   -0.163383634   -0.198183379
     16        6          -0.051964259    0.977936665    1.182537327
     17        7           0.637203262   -0.556219911   -0.672763807
     18        7           0.956077668   -0.662074050   -0.800544330
     19        6          -1.351129442    0.136528145    0.164870593
     20        6           0.072538415   -0.047010145   -0.055827937
     21        1           0.088311733    0.005912986    0.027635985
     22        1           0.029501412    0.050542447    0.067518693
     23        1           0.101740209   -0.083444386   -0.099837174
     24        1           0.031224323    0.019086558    0.023772592
     25        1          -0.119239383   -0.006828454   -0.008960981
     26        1          -0.019616198   -0.057048420   -0.068528642
     27        1          -0.141095604   -0.005617875   -0.007766142
     28        1           0.026542324   -0.035367603   -0.042851689
     29        1          -0.029150151    0.025605570    0.030950235
     30        1          -0.065064666   -0.020136241   -0.024253156
     31        1          -0.013141768    0.012025822    0.015805436
 -------------------------------------------------------------------
 Cartesian Forces:  Max     2.168531458 RMS     0.475495695

 GradGradGradGradGradGradGradGradGradGradGradGradGradGradGradGradGradGrad
 Berny optimization.
 FormGI is forming the generalized inverse of G from B-inverse, IUseBI=4.
 Internal  Forces:  Max     1.825029413 RMS     0.226026331
 Search for a local minimum.
 Step number   1 out of a maximum of  185
 All quantities printed in internal units (Hartrees-Bohrs-Radians)
 Mixed Optimization -- RFO/linear search
 Second derivative matrix not updated -- first step.
 ITU=  0
     Eigenvalues ---    0.00230   0.00230   0.00230   0.00230   0.00383
     Eigenvalues ---    0.00429   0.00430   0.00555   0.00646   0.00839
     Eigenvalues ---    0.00909   0.01121   0.01348   0.01421   0.01469
     Eigenvalues ---    0.01841   0.02043   0.02210   0.02215   0.02469
     Eigenvalues ---    0.02632   0.02726   0.02949   0.03229   0.03360
     Eigenvalues ---    0.04368   0.04532   0.07075   0.07108   0.07220
     Eigenvalues ---    0.08883   0.09401   0.09496   0.10739   0.13325
     Eigenvalues ---    0.13424   0.13514   0.14861   0.15984   0.15999
     Eigenvalues ---    0.16000   0.16000   0.16000   0.16000   0.16000
     Eigenvalues ---    0.16000   0.16552   0.16610   0.16621   0.17317
     Eigenvalues ---    0.17919   0.19284   0.19417   0.20973   0.21168
     Eigenvalues ---    0.22277   0.22692   0.22904   0.23506   0.24365
     Eigenvalues ---    0.24796   0.25000   0.25000   0.25366   0.27148
     Eigenvalues ---    0.28896   0.29986   0.32822   0.32863   0.34163
     Eigenvalues ---    0.39977   0.42042   0.44237   0.46718   0.47169
     Eigenvalues ---    0.48732   0.53957   0.55381   0.56072   0.64016
     Eigenvalues ---    0.65683   0.80294   1.08127   1.87645   4.33647
     Eigenvalues ---    4.70366  10.41795
 RFO step:  Lambda=-1.41791265D+00 EMin= 2.30000000D-03
 Linear search not attempted -- first point.
 Maximum step size (   0.300) exceeded in Quadratic search.
    -- Step size scaled by   0.498
 Iteration  1 RMS(Cart)=  0.06839294 RMS(Int)=  0.00100055
 Iteration  2 RMS(Cart)=  0.00144894 RMS(Int)=  0.00011536
 Iteration  3 RMS(Cart)=  0.00000070 RMS(Int)=  0.00011536
 Variable       Old X    -DE/DX   Delta X   Delta X   Delta X     New X
                                 (Linear)    (Quad)   (Total)
    R1        3.29872  -0.10339   0.00000  -0.03261  -0.03261   3.26612
    R2        2.69309  -0.08541   0.00000  -0.02736  -0.02736   2.66572
    R3        2.82593  -0.12611   0.00000  -0.03593  -0.03593   2.79001
    R4        3.27308  -0.08598   0.00000  -0.02702  -0.02702   3.24606
    R5        2.62835  -0.03747   0.00000  -0.00987  -0.00987   2.61848
    R6        2.67009   0.37201   0.00000   0.03551   0.03537   2.70546
    R7        1.57647   1.82503   0.00000   0.07675   0.07696   1.65343
    R8        2.15193   0.16906   0.00000   0.04043   0.04038   2.19232
    R9        2.44717   0.14093   0.00000   0.03254   0.03263   2.47980
   R10        1.86570   0.07430   0.00000   0.01622   0.01622   1.88192
   R11        2.57922  -0.14644   0.00000   0.01737   0.01748   2.59670
   R12        2.46562   0.17399   0.00000   0.04643   0.04643   2.51206
   R13        2.54043   0.09960   0.00000   0.03624   0.03629   2.57672
   R14        2.46324   0.08952   0.00000   0.02023   0.02022   2.48346
   R15        1.98284   0.02756   0.00000   0.00754   0.00754   1.99039
   R16        3.31245   0.05995   0.00000   0.01428   0.01424   3.32668
   R17        1.84156   0.12481   0.00000   0.03022   0.03021   1.87177
   R18        2.99521  -0.09020   0.00000  -0.02664  -0.02666   2.96856
   R19        3.62760   0.00357   0.00000  -0.00937  -0.00939   3.61822
   R20        2.34417   0.00521   0.00000   0.00185   0.00188   2.34605
   R21        3.10236   0.00630   0.00000  -0.00047  -0.00044   3.10191
   R22        3.33773  -0.04154   0.00000  -0.01001  -0.01000   3.32773
   R23        2.28418   0.16313   0.00000   0.03233   0.03219   2.31638
   R24        2.50333   0.42050   0.00000   0.10392   0.10400   2.60734
   R25        3.26346   0.35780   0.00000   0.04648   0.04641   3.30987
   R26        2.21068   0.21273   0.00000   0.04076   0.04080   2.25148
   R27        3.30665   0.35365   0.00000   0.05565   0.05517   3.36182
   R28        2.67237   0.15078   0.00000   0.04948   0.04933   2.72170
   R29        2.61839   0.48190   0.00000   0.09281   0.09294   2.71134
   R30        1.76118   1.15013   0.00000   0.09277   0.09289   1.85408
   R31        2.20739  -0.00118   0.00000  -0.00035  -0.00035   2.20705
   R32        1.97417   0.49570   0.00000   0.07887   0.07911   2.05329
   R33        1.76422   1.13223   0.00000   0.09376   0.09425   1.85847
   R34        2.37407   0.00788   0.00000   0.00241   0.00241   2.37648
   R35        2.14692  -0.00891   0.00000  -0.00258  -0.00258   2.14434
   R36        2.23701   0.08341   0.00000   0.00224   0.00217   2.23918
   R37        2.26430  -0.13154   0.00000  -0.03929  -0.03929   2.22501
   R38        2.10813  -0.00408   0.00000  -0.00131  -0.00131   2.10682
    A1        2.36725  -0.09071   0.00000  -0.02860  -0.02860   2.33865
    A2        1.81453   0.03918   0.00000   0.01169   0.01169   1.82622
    A3        2.09624  -0.14567   0.00000  -0.04346  -0.04346   2.05278
    A4        2.57483  -0.44918   0.00000  -0.01034  -0.01028   2.56456
    A5        1.44932  -0.14013   0.00000  -0.00408  -0.00401   1.44531
    A6        1.94191  -0.28311   0.00000   0.00265   0.00272   1.94463
    A7        2.56234   0.39756   0.00000   0.02580   0.02571   2.58805
    A8        1.44372   0.00177   0.00000  -0.00547  -0.00548   1.43824
    A9        2.27713  -0.39933   0.00000  -0.02033  -0.02023   2.25690
   A10        2.59059  -0.01961   0.00000   0.00672   0.00669   2.59728
   A11        2.29695   0.39122   0.00000   0.01017   0.01003   2.30697
   A12        1.99348  -0.02614   0.00000  -0.00111  -0.00112   1.99236
   A13        2.31490  -0.20384   0.00000  -0.02343  -0.02334   2.29156
   A14        1.97481   0.22998   0.00000   0.02455   0.02446   1.99927
   A15        2.33158  -0.09063   0.00000  -0.00591  -0.00588   2.32570
   A16        1.83416   0.07885   0.00000   0.01353   0.01352   1.84768
   A17        2.11744   0.01177   0.00000  -0.00762  -0.00763   2.10981
   A18        2.75150  -0.02483   0.00000  -0.00440  -0.00438   2.74712
   A19        1.99453  -0.01637   0.00000  -0.00279  -0.00278   1.99175
   A20        2.50777   0.02139   0.00000   0.00353   0.00356   2.51133
   A21        1.78088  -0.00502   0.00000  -0.00074  -0.00078   1.78010
   A22        2.22000   0.03889   0.00000   0.00372   0.00369   2.22370
   A23        1.65018   0.00263   0.00000  -0.00520  -0.00522   1.64496
   A24        1.53940  -0.00755   0.00000  -0.00305  -0.00303   1.53637
   A25        1.09581   0.10067   0.00000   0.00758   0.00757   1.10338
   A26        2.03039  -0.10833   0.00000  -0.01359  -0.01359   2.01680
   A27        1.49933   0.17516   0.00000   0.01540   0.01539   1.51473
   A28        2.75346  -0.06683   0.00000  -0.00181  -0.00181   2.75166
   A29        1.79755  -0.03143   0.00000   0.01109   0.01109   1.80864
   A30        2.74588  -0.19679   0.00000  -0.02986  -0.02941   2.71647
   A31        2.21331  -0.06067   0.00000   0.00750   0.00768   2.22099
   A32        1.74118  -0.11840   0.00000  -0.00878  -0.00861   1.73257
   A33        1.32399   0.25745   0.00000   0.02236   0.02173   1.34572
   A34        1.22220   0.13624   0.00000   0.01088   0.01088   1.23308
   A35        2.07603   0.20176   0.00000   0.01558   0.01530   2.09133
   A36        2.30749  -0.14918   0.00000  -0.02033  -0.02024   2.28725
   A37        2.75350   0.01293   0.00000   0.00945   0.00936   2.76286
   A38        1.89967  -0.05258   0.00000   0.00475   0.00494   1.90461
   A39        1.99342  -0.33189   0.00000  -0.03436  -0.03384   1.95958
   A40        2.22087   0.30654   0.00000   0.03448   0.03412   2.25498
   A41        2.73097   0.08522   0.00000  -0.01908  -0.01914   2.71183
   A42        1.48332  -0.11057   0.00000   0.01920   0.01941   1.50273
   A43        2.06889   0.02535   0.00000  -0.00012  -0.00027   2.06862
   A44        1.74357  -0.06181   0.00000   0.00112   0.00123   1.74480
   A45        1.85454   0.09631   0.00000   0.02006   0.02001   1.87454
   A46        2.68508  -0.03450   0.00000  -0.02119  -0.02124   2.66384
   A47        1.79645   0.24479   0.00000   0.00363   0.00352   1.79997
   A48        1.02642  -0.06361   0.00000   0.01672   0.01678   1.04320
   A49        2.82287   0.18117   0.00000   0.02035   0.02030   2.84317
   A50        2.40008  -0.01013   0.00000  -0.01029  -0.01032   2.38976
   A51        1.61019   0.00347   0.00000  -0.00867  -0.00867   1.60152
   A52        1.75722   0.05290   0.00000   0.00691   0.00692   1.76414
   A53        2.95708  -0.02351   0.00000  -0.00812  -0.00812   2.94896
   A54        3.38563  -0.28134   0.00000  -0.00282  -0.00276   3.38287
   A55        3.18958  -0.00492   0.00000  -0.00825  -0.00825   3.18133
   A56        3.29688   0.14373   0.00000   0.02649   0.02649   3.32337
   A57        3.06517   0.13905   0.00000   0.01358   0.01312   3.07830
   A58        3.36741   0.05637   0.00000  -0.00176  -0.00174   3.36567
   A59        3.14332   0.00858   0.00000   0.00308   0.00300   3.14632
   A60        3.14081  -0.00368   0.00000  -0.00119  -0.00123   3.13958
   A61        3.14138   0.00015   0.00000   0.00007   0.00008   3.14146
   A62        3.14179  -0.00047   0.00000  -0.00016  -0.00016   3.14163
   A63        3.14138   0.00002   0.00000   0.00003   0.00002   3.14140
   A64        3.14499  -0.00105   0.00000  -0.00035  -0.00035   3.14464
    D1        0.00427   0.02448   0.00000   0.00858   0.00858   0.01285
    D2        3.14049   0.00857   0.00000   0.00300   0.00300  -3.13970
    D3        3.14006  -0.00941   0.00000  -0.00311  -0.00319   3.13686
    D4        3.14078   0.00354   0.00000   0.00108   0.00118  -3.14123
    D5       -0.00094  -0.00655   0.00000  -0.00232  -0.00234  -0.00328
    D6        3.13854  -0.00258   0.00000  -0.00105  -0.00101   3.13753
    D7       -0.00396  -0.00130   0.00000  -0.00035  -0.00035  -0.00431
    D8       -3.14049   0.00255   0.00000   0.00103   0.00103  -3.13945
    D9       -3.13865  -0.00241   0.00000  -0.00047  -0.00044  -3.13909
   D10        3.14154  -0.00008   0.00000   0.00002  -0.00000   3.14154
   D11       -3.13966  -0.00633   0.00000  -0.00224  -0.00220   3.14133
   D12        0.00058  -0.00467   0.00000  -0.00161  -0.00161  -0.00102
   D13        0.00243   0.00221   0.00000   0.00061   0.00059   0.00302
   D14       -3.13841   0.00084   0.00000   0.00023   0.00025  -3.13817
   D15       -3.13871   0.00233   0.00000   0.00081   0.00079  -3.13792
[...]
 PrsmSu:  requested number of processors reduced to:  13 ShMem   1 Linda.
 Calling FoFJK, ICntrl=      2127 FMM=F ISym2X=0 I1Cent= 0 IOpClX= 0 NMat=1 NMatS=1 NMatT=0.
 ***** Axes restored to original set *****
 -------------------------------------------------------------------
 Center     Atomic                   Forces (Hartrees/Bohr)
 Number     Number              X              Y              Z
 -------------------------------------------------------------------
      1        7          -0.036107868    0.082056683    0.104070276
      2        6           0.154025472   -0.099811322   -0.135885683
      3        7           0.010474142    0.002819046    0.010205009
      4        6          -0.012900111    0.044862606    0.047787714
      5        6          -0.049709052   -0.041455895   -0.053468690
      6        6          -0.036049258   -0.042591388   -0.056208977
      7        6           0.026788848    0.047902236    0.053620152
      8        6           0.006947265   -0.003573636   -0.004658428
      9        6           0.014439440    0.008990367    0.011147322
     10        6          -0.001122627    0.009258109    0.011197410
     11        6          -0.137047124    0.006298179    0.009259072
     12        6           0.046518126    0.014287886    0.013552850
     13        6          -0.105323928   -0.011509168   -0.008802658
     14        7          -0.031898353    0.008494642    0.007946526
     15        6           0.196222554   -0.021294414   -0.024077798
     16        6          -0.040746788   -0.038102029   -0.047373971
     17        7          -0.017704136    0.035847363    0.043900734
     18        7          -0.047509115    0.025941885    0.032723183
     19        6           0.012706618    0.015691613    0.017880907
     20        6           0.079766783    0.069331381    0.076586150
     21        1          -0.079281531   -0.005443275   -0.000465068
     22        1           0.000849882    0.004241454    0.022528026
     23        1           0.076949094   -0.051080101   -0.052456957
     24        1           0.000441568   -0.000418833   -0.000510331
     25        1           0.025954818   -0.001761156   -0.007720418
     26        1           0.041340927   -0.017480987   -0.020560945
     27        1          -0.055704548   -0.006983449   -0.002857166
     28        1           0.003801502   -0.018270824   -0.025348042
     29        1           0.005181229    0.005111239    0.006053598
     30        1           0.015694206   -0.041836365   -0.051372287
     31        1          -0.066998032    0.020478153    0.023308492
 -------------------------------------------------------------------
 Cartesian Forces:  Max     0.196222554 RMS     0.050304799

 GradGradGradGradGradGradGradGradGradGradGradGradGradGradGradGradGradGrad
 Berny optimization.
 Using GEDIIS/GDIIS optimizer.
 FormGI is forming the generalized inverse of G from B-inverse, IUseBI=4.
 Internal  Forces:  Max     0.170989572 RMS     0.025514633
 Search for a local minimum.
 Step number  11 out of a maximum of  185
 All quantities printed in internal units (Hartrees-Bohrs-Radians)
 Mixed Optimization -- RFO/linear search
 Update second derivatives using D2CorX and points   10   11
 DE= -6.56D-03 DEPred=-4.18D-03 R= 1.57D+00
 TightC=F SS=  1.41D+00  RLast= 7.82D-01 DXNew= 5.0454D+00 2.3454D+00
 Trust test= 1.57D+00 RLast= 7.82D-01 DXMaxT set to 3.00D+00
 ITU=  1  1  1  0  1  1  0  0  0  1  0
 Use linear search instead of GDIIS.
     Eigenvalues ---    0.00002   0.00009   0.00230   0.00231   0.00233
     Eigenvalues ---    0.00326   0.00379   0.00430   0.00583   0.00645
     Eigenvalues ---    0.00724   0.00878   0.01125   0.01276   0.01531
     Eigenvalues ---    0.01662   0.01682   0.02021   0.02180   0.02437
     Eigenvalues ---    0.02549   0.03118   0.03192   0.03252   0.03359
     Eigenvalues ---    0.03509   0.04326   0.05219   0.05836   0.07279
     Eigenvalues ---    0.08220   0.09062   0.09477   0.10000   0.10521
     Eigenvalues ---    0.10964   0.12704   0.13459   0.13768   0.14936
     Eigenvalues ---    0.15843   0.15996   0.16000   0.16002   0.16026
     Eigenvalues ---    0.16311   0.16567   0.16826   0.17493   0.18252
     Eigenvalues ---    0.18764   0.19169   0.19798   0.20243   0.21389
     Eigenvalues ---    0.22350   0.23265   0.23774   0.24484   0.25197
     Eigenvalues ---    0.25539   0.27041   0.28428   0.29654   0.29901
     Eigenvalues ---    0.32934   0.36627   0.39898   0.40486   0.42517
     Eigenvalues ---    0.44849   0.45767   0.48622   0.50289   0.51136
     Eigenvalues ---    0.55726   0.58480   0.62966   0.66057   0.71750
     Eigenvalues ---    0.96354   1.08082   1.17650   2.63286   4.63897
     Eigenvalues ---    7.80499  12.30369
 RFO step:  Lambda=-1.66684856D-01 EMin= 1.80736069D-05
 Quartic linear search produced a step of  1.19524.
 Iteration  1 RMS(Cart)=  0.00726413 RMS(Int)=  0.25077496
 Iteration  2 RMS(Cart)=  0.07385192 RMS(Int)=  0.24417777
 Iteration  3 RMS(Cart)=  0.01127348 RMS(Int)=  0.22618705
 Iteration  4 RMS(Cart)=  0.00809429 RMS(Int)=  0.20862642
 Iteration  5 RMS(Cart)=  0.00720763 RMS(Int)=  0.19133367
 Iteration  6 RMS(Cart)=  0.00601549 RMS(Int)=  0.17453745
 Iteration  7 RMS(Cart)=  0.00221663 RMS(Int)=  0.16499960
 Iteration  8 RMS(Cart)=  0.00028218 RMS(Int)=  0.16332477
 Iteration  9 RMS(Cart)=  0.00021351 RMS(Int)=  0.16195761
 Iteration 10 RMS(Cart)=  0.00018397 RMS(Int)=  0.16069693
 Iteration 11 RMS(Cart)=  0.00016621 RMS(Int)=  0.15948333
 Iteration 12 RMS(Cart)=  0.00015380 RMS(Int)=  0.15828900
 Iteration 13 RMS(Cart)=  0.00014449 RMS(Int)=  0.15709547
 Iteration 14 RMS(Cart)=  0.00013728 RMS(Int)=  0.15588529
 Iteration 15 RMS(Cart)=  0.00013170 RMS(Int)=  0.15463518
 Iteration 16 RMS(Cart)=  0.00012749 RMS(Int)=  0.15330227
 Iteration 17 RMS(Cart)=  0.00012468 RMS(Int)=  0.15177349
 Iteration 18 RMS(Cart)=  0.00012372 RMS(Int)=  0.14944640
 Iteration 19 RMS(Cart)=  0.00012795 RMS(Int)=  0.08694039
 Iteration 20 RMS(Cart)=  0.00042892 RMS(Int)=  0.15123226
 Iteration 21 RMS(Cart)=  0.00013128 RMS(Int)=  0.14979541
 Iteration 22 RMS(Cart)=  0.00013074 RMS(Int)=  0.14793953
 Iteration 23 RMS(Cart)=  0.00013356 RMS(Int)=  0.13132658
 Iteration 24 RMS(Cart)=  0.00023849 RMS(Int)=  0.10685451
 Iteration 25 RMS(Cart)=  0.00032351 RMS(Int)=  0.12877391
 Iteration 26 RMS(Cart)=  0.00025994 RMS(Int)=  0.10896422
 Iteration 27 RMS(Cart)=  0.00030368 RMS(Int)=  0.12785627
 Iteration 28 RMS(Cart)=  0.00026816 RMS(Int)=  0.10955710
 Iteration 29 RMS(Cart)=  0.00029638 RMS(Int)=  0.12764916
 Iteration 30 RMS(Cart)=  0.00027077 RMS(Int)=  0.10949140
 Iteration 31 RMS(Cart)=  0.00029458 RMS(Int)=  0.12793140
 Iteration 32 RMS(Cart)=  0.00026988 RMS(Int)=  0.10887926
 Iteration 33 RMS(Cart)=  0.00029685 RMS(Int)=  0.12872995
 Iteration 34 RMS(Cart)=  0.00026581 RMS(Int)=  0.10742465
 Iteration 35 RMS(Cart)=  0.00030465 RMS(Int)=  0.13038926
 Iteration 36 RMS(Cart)=  0.00025658 RMS(Int)=  0.10291205
 Iteration 37 RMS(Cart)=  0.00033166 RMS(Int)=  0.13514255
 Iteration 38 RMS(Cart)=  0.00022763 RMS(Int)=  0.13033760
 Iteration 39 RMS(Cart)=  0.00024638 RMS(Int)=  0.10756336
 Iteration 40 RMS(Cart)=  0.00030944 RMS(Int)=  0.12906910
 Iteration 41 RMS(Cart)=  0.00025927 RMS(Int)=  0.10833735
 Iteration 42 RMS(Cart)=  0.00030053 RMS(Int)=  0.12896653
 Iteration 43 RMS(Cart)=  0.00026257 RMS(Int)=  0.10784912
 Iteration 44 RMS(Cart)=  0.00030133 RMS(Int)=  0.12979649
 Iteration 45 RMS(Cart)=  0.00025934 RMS(Int)=  0.10573871
 Iteration 46 RMS(Cart)=  0.00031302 RMS(Int)=  0.13217814
 Iteration 47 RMS(Cart)=  0.00024613 RMS(Int)=  0.06204943
 Iteration 48 RMS(Cart)=  0.00048053 RMS(Int)=  0.17629378
 Iteration 49 RMS(Cart)=  0.00030865 RMS(Int)=  0.16615429
 Iteration 50 RMS(Cart)=  0.00008131 RMS(Int)=  0.16434061
 Iteration 51 RMS(Cart)=  0.00006443 RMS(Int)=  0.16304709
 Iteration 52 RMS(Cart)=  0.00006306 RMS(Int)=  0.16183975
 Iteration 53 RMS(Cart)=  0.00006387 RMS(Int)=  0.16065645
 Iteration 54 RMS(Cart)=  0.00006552 RMS(Int)=  0.15946866
 Iteration 55 RMS(Cart)=  0.00006766 RMS(Int)=  0.15825168
 Iteration 56 RMS(Cart)=  0.00007022 RMS(Int)=  0.15696927
 Iteration 57 RMS(Cart)=  0.00007332 RMS(Int)=  0.15553936
 Iteration 58 RMS(Cart)=  0.00007743 RMS(Int)=  0.15363201
 Iteration 59 RMS(Cart)=  0.00008464 RMS(Int)=  0.06737060
 Iteration 60 RMS(Cart)=  0.00047698 RMS(Int)=  0.17093269
 Iteration 61 RMS(Cart)=  0.00012404 RMS(Int)=  0.15736703
 Iteration 62 RMS(Cart)=  0.00008059 RMS(Int)=  0.15610769
 Iteration 63 RMS(Cart)=  0.00008290 RMS(Int)=  0.15473812
 Iteration 64 RMS(Cart)=  0.00008601 RMS(Int)=  0.15307357
 Iteration 65 RMS(Cart)=  0.00009115 RMS(Int)=  0.14912114
 Iteration 66 RMS(Cart)=  0.00011183 RMS(Int)=  0.08875664
 Iteration 67 RMS(Cart)=  0.00041105 RMS(Int)=  0.14921961
 Iteration 68 RMS(Cart)=  0.00013108 RMS(Int)=  0.14760379
 Iteration 69 RMS(Cart)=  0.00013349 RMS(Int)=  0.14462446
 Iteration 70 RMS(Cart)=  0.00014566 RMS(Int)=  0.09282517
 Iteration 71 RMS(Cart)=  0.00039087 RMS(Int)=  0.14512956
 Iteration 72 RMS(Cart)=  0.00015842 RMS(Int)=  0.14314450
 Iteration 73 RMS(Cart)=  0.00016199 RMS(Int)=  0.08178549
 Iteration 74 RMS(Cart)=  0.00043463 RMS(Int)=  0.15642707
 Iteration 75 RMS(Cart)=  0.00009021 RMS(Int)=  0.15517514
 Iteration 76 RMS(Cart)=  0.00009188 RMS(Int)=  0.15382578
 Iteration 77 RMS(Cart)=  0.00009436 RMS(Int)=  0.15223215
 Iteration 78 RMS(Cart)=  0.00009857 RMS(Int)=  0.14932142
 Iteration 79 RMS(Cart)=  0.00011177 RMS(Int)=  0.08814714
 Iteration 80 RMS(Cart)=  0.00041235 RMS(Int)=  0.14989886
 Iteration 81 RMS(Cart)=  0.00012791 RMS(Int)=  0.14836593
 Iteration 82 RMS(Cart)=  0.00012983 RMS(Int)=  0.14603266
 Iteration 83 RMS(Cart)=  0.00013754 RMS(Int)=  0.09022291
 Iteration 84 RMS(Cart)=  0.00040144 RMS(Int)=  0.14786749
 Iteration 85 RMS(Cart)=  0.00014231 RMS(Int)=  0.14624997
 Iteration 86 RMS(Cart)=  0.00014409 RMS(Int)=  0.14328608
 Iteration 87 RMS(Cart)=  0.00015559 RMS(Int)=  0.09413587
 Iteration 88 RMS(Cart)=  0.00038415 RMS(Int)=  0.14379287
 Iteration 89 RMS(Cart)=  0.00016721 RMS(Int)=  0.14159118
 Iteration 90 RMS(Cart)=  0.00017184 RMS(Int)=  0.09349185
 Iteration 91 RMS(Cart)=  0.00038455 RMS(Int)=  0.14460055
 Iteration 92 RMS(Cart)=  0.00016450 RMS(Int)=  0.14274315
 Iteration 93 RMS(Cart)=  0.00016677 RMS(Int)=  0.12935135
 Iteration 94 RMS(Cart)=  0.00025133 RMS(Int)=  0.10878378
 Iteration 95 RMS(Cart)=  0.00030175 RMS(Int)=  0.12579860
 Iteration 96 RMS(Cart)=  0.00027888 RMS(Int)=  0.11210512
 Iteration 97 RMS(Cart)=  0.00027636 RMS(Int)=  0.12269409
 Iteration 98 RMS(Cart)=  0.00029893 RMS(Int)=  0.11524650
 Iteration 99 RMS(Cart)=  0.00025480 RMS(Int)=  0.10959049
 New curvilinear step failed, DQL= 3.14D+00 SP=-9.51D-01.
 ITry= 1 IFail=1 DXMaxC= 4.37D-01 DCOld= 1.00D+10 DXMaxT= 3.00D+00 DXLimC= 3.00D+00 Rises=F
 Iteration  1 RMS(Cart)=  0.00658093 RMS(Int)=  0.24995633
 Iteration  2 RMS(Cart)=  0.06741192 RMS(Int)=  0.24435015
 Iteration  3 RMS(Cart)=  0.00882812 RMS(Int)=  0.22637247
 Iteration  4 RMS(Cart)=  0.00723094 RMS(Int)=  0.20878835
 Iteration  5 RMS(Cart)=  0.00647487 RMS(Int)=  0.19146563
 Iteration  6 RMS(Cart)=  0.00541849 RMS(Int)=  0.17462287
 Iteration  7 RMS(Cart)=  0.00199084 RMS(Int)=  0.16493891
 Iteration  8 RMS(Cart)=  0.00024998 RMS(Int)=  0.16324568
 Iteration  9 RMS(Cart)=  0.00018805 RMS(Int)=  0.16187231
 Iteration 10 RMS(Cart)=  0.00016198 RMS(Int)=  0.16060827
 Iteration 11 RMS(Cart)=  0.00014614 RMS(Int)=  0.15939250
 Iteration 12 RMS(Cart)=  0.00013557 RMS(Int)=  0.15819670
 Iteration 13 RMS(Cart)=  0.00012750 RMS(Int)=  0.15700228
 Iteration 14 RMS(Cart)=  0.00012129 RMS(Int)=  0.15579184
 Iteration 15 RMS(Cart)=  0.00011650 RMS(Int)=  0.15454238
 Iteration 16 RMS(Cart)=  0.00011293 RMS(Int)=  0.15321191
 Iteration 17 RMS(Cart)=  0.00011060 RMS(Int)=  0.15169092
 Iteration 18 RMS(Cart)=  0.00010989 RMS(Int)=  0.14941417
 Iteration 19 RMS(Cart)=  0.00011365 RMS(Int)=  0.08656768
 Iteration 20 RMS(Cart)=  0.00038667 RMS(Int)=  0.15146658
 Iteration 21 RMS(Cart)=  0.00011573 RMS(Int)=  0.15004851
 Iteration 22 RMS(Cart)=  0.00011520 RMS(Int)=  0.14826385
 Iteration 23 RMS(Cart)=  0.00011761 RMS(Int)=  0.14121875
 Iteration 24 RMS(Cart)=  0.00015218 RMS(Int)=  0.09673699
 Iteration 25 RMS(Cart)=  0.00034392 RMS(Int)=  0.14072677
 Iteration 26 RMS(Cart)=  0.00016583 RMS(Int)=  0.13576776
 Iteration 27 RMS(Cart)=  0.00018626 RMS(Int)=  0.10203882
 Iteration 28 RMS(Cart)=  0.00031417 RMS(Int)=  0.13516410
 Iteration 29 RMS(Cart)=  0.00019776 RMS(Int)=  0.09855031
 Iteration 30 RMS(Cart)=  0.00032528 RMS(Int)=  0.13939621
 Iteration 31 RMS(Cart)=  0.00017837 RMS(Int)=  0.13678570
 Iteration 32 RMS(Cart)=  0.00018326 RMS(Int)=  0.09997953
 Iteration 33 RMS(Cart)=  0.00031925 RMS(Int)=  0.13776568
 Iteration 34 RMS(Cart)=  0.00018551 RMS(Int)=  0.13325101
 Iteration 35 RMS(Cart)=  0.00020217 RMS(Int)=  0.10448538
 Iteration 36 RMS(Cart)=  0.00029735 RMS(Int)=  0.13254167
 Iteration 37 RMS(Cart)=  0.00021277 RMS(Int)=  0.10360273
 Iteration 38 RMS(Cart)=  0.00029675 RMS(Int)=  0.13414423
 Iteration 39 RMS(Cart)=  0.00020791 RMS(Int)=  0.11874484
 New curvilinear step failed, DQL= 3.14D+00 SP=-9.70D-01.
 ITry= 2 IFail=1 DXMaxC= 3.92D-01 DCOld= 1.00D+10 DXMaxT= 3.00D+00 DXLimC= 3.00D+00 Rises=F
 Iteration  1 RMS(Cart)=  0.00594155 RMS(Int)=  0.24920282
 Iteration  2 RMS(Cart)=  0.06016016 RMS(Int)=  0.24459997
 Iteration  3 RMS(Cart)=  0.00774997 RMS(Int)=  0.22662174
 Iteration  4 RMS(Cart)=  0.00640305 RMS(Int)=  0.20901313
 Iteration  5 RMS(Cart)=  0.00574058 RMS(Int)=  0.19166057
 Iteration  6 RMS(Cart)=  0.00482146 RMS(Int)=  0.17476949
 Iteration  7 RMS(Cart)=  0.00178408 RMS(Int)=  0.16487856
 Iteration  8 RMS(Cart)=  0.00021914 RMS(Int)=  0.16316634
 Iteration  9 RMS(Cart)=  0.00016417 RMS(Int)=  0.16178674
 Iteration 10 RMS(Cart)=  0.00014127 RMS(Int)=  0.16051940
 Iteration 11 RMS(Cart)=  0.00012770 RMS(Int)=  0.15930154
 Iteration 12 RMS(Cart)=  0.00011833 RMS(Int)=  0.15810438
 Iteration 13 RMS(Cart)=  0.00011138 RMS(Int)=  0.15690918
 Iteration 14 RMS(Cart)=  0.00010606 RMS(Int)=  0.15569861
 Iteration 15 RMS(Cart)=  0.00010199 RMS(Int)=  0.15444995
 Iteration 16 RMS(Cart)=  0.00009899 RMS(Int)=  0.15312213
 Iteration 17 RMS(Cart)=  0.00009706 RMS(Int)=  0.15160929
 Iteration 18 RMS(Cart)=  0.00009654 RMS(Int)=  0.14938249
 Iteration 19 RMS(Cart)=  0.00009975 RMS(Int)=  0.08613486
 Iteration 20 RMS(Cart)=  0.00034451 RMS(Int)=  0.15177751
 Iteration 21 RMS(Cart)=  0.00010030 RMS(Int)=  0.15038013
 Iteration 22 RMS(Cart)=  0.00009987 RMS(Int)=  0.14866710
 Iteration 23 RMS(Cart)=  0.00010189 RMS(Int)=  0.14420322
 Iteration 24 RMS(Cart)=  0.00011843 RMS(Int)=  0.09346758
 Iteration 25 RMS(Cart)=  0.00031798 RMS(Int)=  0.14410789
 Iteration 26 RMS(Cart)=  0.00013006 RMS(Int)=  0.14180699
 Iteration 27 RMS(Cart)=  0.00013416 RMS(Int)=  0.09383891
 Iteration 28 RMS(Cart)=  0.00031144 RMS(Int)=  0.14396931
 Iteration 29 RMS(Cart)=  0.00013286 RMS(Int)=  0.14203985
 Iteration 30 RMS(Cart)=  0.00013479 RMS(Int)=  0.01198937
 New curvilinear step failed, DQL= 3.13D+00 SP=-8.27D-01.
 ITry= 3 IFail=1 DXMaxC= 3.47D-01 DCOld= 1.00D+10 DXMaxT= 3.00D+00 DXLimC= 3.00D+00 Rises=F
 Iteration  1 RMS(Cart)=  0.00517072 RMS(Int)=  0.24851963
 Iteration  2 RMS(Cart)=  0.05309850 RMS(Int)=  0.24486538
 Iteration  3 RMS(Cart)=  0.00660962 RMS(Int)=  0.22689597
 Iteration  4 RMS(Cart)=  0.00557015 RMS(Int)=  0.20927035
 Iteration  5 RMS(Cart)=  0.00499699 RMS(Int)=  0.19189643
 Iteration  6 RMS(Cart)=  0.00422270 RMS(Int)=  0.17496445
 Iteration  7 RMS(Cart)=  0.00156414 RMS(Int)=  0.16485330
 Iteration  8 RMS(Cart)=  0.00018867 RMS(Int)=  0.16311108
 Iteration  9 RMS(Cart)=  0.00013979 RMS(Int)=  0.16172295
 Iteration 10 RMS(Cart)=  0.00012011 RMS(Int)=  0.16045171
 Iteration 11 RMS(Cart)=  0.00010862 RMS(Int)=  0.15923175
 Iteration 12 RMS(Cart)=  0.00010076 RMS(Int)=  0.15803350
 Iteration 13 RMS(Cart)=  0.00009498 RMS(Int)=  0.15683802
 Iteration 14 RMS(Cart)=  0.00009059 RMS(Int)=  0.15562807
 Iteration 15 RMS(Cart)=  0.00008727 RMS(Int)=  0.15438136
 Iteration 16 RMS(Cart)=  0.00008486 RMS(Int)=  0.15305819
 Iteration 17 RMS(Cart)=  0.00008329 RMS(Int)=  0.15155812
 Iteration 18 RMS(Cart)=  0.00008304 RMS(Int)=  0.14940288
 Iteration 19 RMS(Cart)=  0.00008583 RMS(Int)=  0.08530219
 Iteration 20 RMS(Cart)=  0.00030249 RMS(Int)=  0.15250877
 Iteration 21 RMS(Cart)=  0.00008358 RMS(Int)=  0.15114662
 Iteration 22 RMS(Cart)=  0.00008344 RMS(Int)=  0.14954133
 Iteration 23 RMS(Cart)=  0.00008465 RMS(Int)=  0.14665121
 Iteration 24 RMS(Cart)=  0.00009186 RMS(Int)=  0.09038903
 Iteration 25 RMS(Cart)=  0.00028636 RMS(Int)=  0.14725823
 Iteration 26 RMS(Cart)=  0.00010029 RMS(Int)=  0.14556445
 Iteration 27 RMS(Cart)=  0.00010153 RMS(Int)=  0.14166590
 Iteration 28 RMS(Cart)=  0.00011363 RMS(Int)=  0.09577073
 Iteration 29 RMS(Cart)=  0.00026789 RMS(Int)=  0.14164482
 Iteration 30 RMS(Cart)=  0.00012329 RMS(Int)=  0.13869973
 Iteration 31 RMS(Cart)=  0.00012971 RMS(Int)=  0.09828960
 Iteration 32 RMS(Cart)=  0.00025629 RMS(Int)=  0.13917561
 Iteration 33 RMS(Cart)=  0.00013536 RMS(Int)=  0.13546350
 Iteration 34 RMS(Cart)=  0.00014510 RMS(Int)=  0.10188819
 Iteration 35 RMS(Cart)=  0.00024224 RMS(Int)=  0.13527721
 Iteration 36 RMS(Cart)=  0.00015212 RMS(Int)=  0.08949041
 Iteration 37 RMS(Cart)=  0.00028339 RMS(Int)=  0.14830413
 Iteration 38 RMS(Cart)=  0.00009597 RMS(Int)=  0.14678968
 Iteration 39 RMS(Cart)=  0.00009680 RMS(Int)=  0.14459565
 Iteration 40 RMS(Cart)=  0.00010108 RMS(Int)=  0.09018411
 Iteration 41 RMS(Cart)=  0.00028186 RMS(Int)=  0.14755357
 Iteration 42 RMS(Cart)=  0.00009850 RMS(Int)=  0.14596423
 Iteration 43 RMS(Cart)=  0.00009962 RMS(Int)=  0.14328047
 Iteration 44 RMS(Cart)=  0.00010626 RMS(Int)=  0.09345709
 Iteration 45 RMS(Cart)=  0.00027196 RMS(Int)=  0.14414978
 Iteration 46 RMS(Cart)=  0.00011287 RMS(Int)=  0.14215203
 Iteration 47 RMS(Cart)=  0.00011528 RMS(Int)=  0.08369808
 Iteration 48 RMS(Cart)=  0.00029919 RMS(Int)=  0.15410892
 Iteration 49 RMS(Cart)=  0.00007027 RMS(Int)=  0.15280767
 Iteration 50 RMS(Cart)=  0.00007139 RMS(Int)=  0.15135424
 Iteration 51 RMS(Cart)=  0.00007325 RMS(Int)=  0.14940844
 Iteration 52 RMS(Cart)=  0.00007755 RMS(Int)=  0.07283237
 Iteration 53 RMS(Cart)=  0.00032059 RMS(Int)=  0.16500966
 Iteration 54 RMS(Cart)=  0.00003205 RMS(Int)=  0.16366858
 Iteration 55 RMS(Cart)=  0.00003189 RMS(Int)=  0.16245977
 Iteration 56 RMS(Cart)=  0.00003340 RMS(Int)=  0.16127368
 Iteration 57 RMS(Cart)=  0.00003538 RMS(Int)=  0.16007306
 Iteration 58 RMS(Cart)=  0.00003762 RMS(Int)=  0.15882348
 Iteration 59 RMS(Cart)=  0.00004015 RMS(Int)=  0.15746269
 Iteration 60 RMS(Cart)=  0.00004319 RMS(Int)=  0.15579292
 Iteration 61 RMS(Cart)=  0.00004756 RMS(Int)=  0.15124927
 Iteration 62 RMS(Cart)=  0.00006505 RMS(Int)=  0.08635078
 Iteration 63 RMS(Cart)=  0.00029448 RMS(Int)=  0.15127181
 Iteration 64 RMS(Cart)=  0.00008022 RMS(Int)=  0.14980846
 Iteration 65 RMS(Cart)=  0.00008168 RMS(Int)=  0.14783529
 Iteration 66 RMS(Cart)=  0.00008571 RMS(Int)=  0.07833312
 Iteration 67 RMS(Cart)=  0.00031065 RMS(Int)=  0.15948970
 Iteration 68 RMS(Cart)=  0.00004864 RMS(Int)=  0.15829197
 Iteration 69 RMS(Cart)=  0.00005008 RMS(Int)=  0.15705645
 Iteration 70 RMS(Cart)=  0.00005183 RMS(Int)=  0.15573969
 Iteration 71 RMS(Cart)=  0.00005403 RMS(Int)=  0.15422903
 Iteration 72 RMS(Cart)=  0.00005715 RMS(Int)=  0.15192030
 Iteration 73 RMS(Cart)=  0.00006392 RMS(Int)=  0.08413832
 Iteration 74 RMS(Cart)=  0.00029830 RMS(Int)=  0.15361720
 Iteration 75 RMS(Cart)=  0.00007184 RMS(Int)=  0.15228876
 Iteration 76 RMS(Cart)=  0.00007303 RMS(Int)=  0.15076711
 Iteration 77 RMS(Cart)=  0.00007522 RMS(Int)=  0.14847313
 Iteration 78 RMS(Cart)=  0.00008116 RMS(Int)=  0.08731217
slurmstepd: error: *** JOB 27446653 ON lewis4-r630-hpc4-node296 CANCELLED AT 2023-05-17T11:01:09 DUE TO TIME LIMIT ***
