### Starting Gaussian ###
 Entering Gaussian System, Link 0=g16
 Initial command:
 /cluster/software/gaussian/gaussian-16-A.03/avx2/g16/l1.exe "/local/scratch/linjian/Gau-12376.inp" -scrdir="/local/scratch/linjian/"
 Entering Link 1 = /cluster/software/gaussian/gaussian-16-A.03/avx2/g16/l1.exe PID=     12377.
  
 Copyright (c) 1988,1990,1992,1993,1995,1998,2003,2009,2016,
            Gaussian, Inc.  All Rights Reserved.
  
 This is part of the Gaussian(R) 16 program.  It is based on
 the Gaussian(R) 09 system (copyright 2009, Gaussian, Inc.),
 the Gaussian(R) 03 system (copyright 2003, Gaussian, Inc.),
 the Gaussian(R) 98 system (copyright 1998, Gaussian, Inc.),
 the Gaussian(R) 94 system (copyright 1995, Gaussian, Inc.),
 the Gaussian 92(TM) system (copyright 1992, Gaussian, Inc.),
 the Gaussian 90(TM) system (copyright 1990, Gaussian, Inc.),
 the Gaussian 88(TM) system (copyright 1988, Gaussian, Inc.),
 the Gaussian 86(TM) system (copyright 1986, Carnegie Mellon
 University), and the Gaussian 82(TM) system (copyright 1983,
 Carnegie Mellon University). Gaussian is a federally registered
 trademark of Gaussian, Inc.
  
 This software contains proprietary and confidential information,
 including trade secrets, belonging to Gaussian, Inc.
  
 This software is provided under written license and may be
 used, copied, transmitted, or stored only in accord with that
 written license.
  
 The following legend is applicable only to US Government
 contracts under FAR:
  
                    RESTRICTED RIGHTS LEGEND
  
 Use, reproduction and disclosure by the US Government is
 subject to restrictions as set forth in subparagraphs (a)
 and (c) of the Commercial Computer Software - Restricted
 Rights clause in FAR 52.227-19.
  
 Gaussian, Inc.
 340 Quinnipiac St., Bldg. 40, Wallingford CT 06492
  
  
 ---------------------------------------------------------------
 Warning -- This program may not be used in any manner that
 competes with the business of Gaussian, Inc. or will provide
 assistance to any competitor of Gaussian, Inc.  The licensee
 of this program is prohibited from giving any competitor of
 Gaussian, Inc. access to this program.  By using this program,
 the user acknowledges that Gaussian, Inc. is engaged in the
 business of creating and licensing software in the field of
 computational chemistry and represents and warrants to the
 licensee that it is not a competitor of Gaussian, Inc. and that
 it will not use this program in any manner prohibited above.
 ---------------------------------------------------------------
  

 Cite this work as:
 Gaussian 16, Revision A.03,
 M. J. Frisch, G. W. Trucks, H. B. Schlegel, G. E. Scuseria, 
 M. A. Robb, J. R. Cheeseman, G. Scalmani, V. Barone, 
 G. A. Petersson, H. Nakatsuji, X. Li, M. Caricato, A. V. Marenich, 
 J. Bloino, B. G. Janesko, R. Gomperts, B. Mennucci, H. P. Hratchian, 
 J. V. Ortiz, A. F. Izmaylov, J. L. Sonnenberg, D. Williams-Young, 
 F. Ding, F. Lipparini, F. Egidi, J. Goings, B. Peng, A. Petrone, 
 T. Henderson, D. Ranasinghe, V. G. Zakrzewski, J. Gao, N. Rega, 
 G. Zheng, W. Liang, M. Hada, M. Ehara, K. Toyota, R. Fukuda, 
 J. Hasegawa, M. Ishida, T. Nakajima, Y. Honda, O. Kitao, H. Nakai, 
 T. Vreven, K. Throssell, J. A. Montgomery, Jr., J. E. Peralta, 
 F. Ogliaro, M. J. Bearpark, J. J. Heyd, E. N. Brothers, K. N. Kudin, 
 V. N. Staroverov, T. A. Keith, R. Kobayashi, J. Normand, 
 K. Raghavachari, A. P. Rendell, J. C. Burant, S. S. Iyengar, 
 J. Tomasi, M. Cossi, J. M. Millam, M. Klene, C. Adamo, R. Cammi, 
 J. W. Ochterski, R. L. Martin, K. Morokuma, O. Farkas, 
 J. B. Foresman, and D. J. Fox, Gaussian, Inc., Wallingford CT, 2016.
 
 ******************************************
 Gaussian 16:  ES64L-G16RevA.03 25-Dec-2016
                19-May-2023 
 ******************************************
 %chk=NdC1CdC2CdCNdCN2CdCc2scnc21.chk
 %NProcShared=20
 Will use up to   20 processors via shared memory.
 -----------------------------
 # opt freq b3lyp/6-31g(2df,p)
 -----------------------------
 1/18=20,19=15,26=3,38=1/1,3;
 2/9=110,12=2,17=6,18=5,40=1/2;
 3/5=1,6=6,7=104,11=2,25=1,30=1,71=1,74=-5/1,2,3;
 4//1;
 5/5=2,38=5/2;
 6/7=2,8=2,9=2,10=2,28=1/1;
 7//1,2,3,16;
 1/18=20,19=15,26=3/3(2);
 2/9=110/2;
 99//99;
 2/9=110/2;
 3/5=1,6=6,7=104,11=2,25=1,30=1,71=1,74=-5/1,2,3;
 4/5=5,16=3,69=1/1;
 5/5=2,38=5/2;
 7//1,2,3,16;
 1/18=20,19=15,26=3/3(-5);
 2/9=110/2;
 6/7=2,8=2,9=2,10=2,19=2,28=1/1;
 99/9=1/99;
 -------------------
 Title Card Required
 -------------------
 Symbolic Z-matrix:
 Charge =  0 Multiplicity = 1
 N                     0.88101   1.21422  -0.39304 
 C                     1.64024   2.17326  -0.80679 
 C                     3.0912    1.42911  -0.53764 
 C                     4.46032   1.3547   -0.55242 
 C                     5.16519   0.1528   -0.03749 
 C                     6.51151   0.08114  -0.089 
 N                     7.33625   1.01907  -0.66541 
 C                     6.70401   2.00881  -1.20505 
 N                     5.34781   2.23824  -1.22068 
 C                     4.81746   3.22922  -2.01564 
 C                     3.68616   2.9885   -2.59176 
 C                     2.62712   3.86854  -2.52619 
 S                     2.5603    5.01107  -3.74001 
 C                     1.01105   5.37551  -3.14875 
 N                     0.50676   4.55387  -2.19903 
 C                     1.51838   3.5622   -1.76151 
 H                     0.00269   0.7324   -0.29011 
 H                     2.82209   0.5362   -1.15094 
 H                     4.61467  -0.67121   0.4118 
 H                     7.04594  -0.7699    0.32704 
 H                     7.26405   2.79003  -1.74957 
 H                     5.3849    4.16157  -2.11172 
 H                     3.23893   2.00291  -2.62405 
 H                     0.63161   6.255    -3.67303 
 

 GradGradGradGradGradGradGradGradGradGradGradGradGradGradGradGradGradGrad
 Berny optimization.
 Initialization pass.
                           ----------------------------
                           !    Initial Parameters    !
                           ! (Angstroms and Degrees)  !
 --------------------------                            --------------------------
 ! Name  Definition              Value          Derivative Info.                !
 --------------------------------------------------------------------------------
 ! R1    R(1,2)                  1.2913         estimate D2E/DX2                !
 ! R2    R(1,17)                 1.0071         estimate D2E/DX2                !
 ! R3    R(2,3)                  1.6527         estimate D2E/DX2                !
 ! R4    R(2,16)                 1.6898         estimate D2E/DX2                !
 ! R5    R(3,4)                  1.3712         estimate D2E/DX2                !
 ! R6    R(3,18)                 1.1162         estimate D2E/DX2                !
 ! R7    R(4,5)                  1.4854         estimate D2E/DX2                !
 ! R8    R(4,9)                  1.4195         estimate D2E/DX2                !
 ! R9    R(5,6)                  1.3492         estimate D2E/DX2                !
 ! R10   R(5,19)                 1.0881         estimate D2E/DX2                !
 ! R11   R(6,7)                  1.3756         estimate D2E/DX2                !
 ! R12   R(6,20)                 1.0876         estimate D2E/DX2                !
 ! R13   R(7,8)                  1.2925         estimate D2E/DX2                !
 ! R14   R(8,9)                  1.3756         estimate D2E/DX2                !
 ! R15   R(8,21)                 1.1047         estimate D2E/DX2                !
 ! R16   R(9,10)                 1.3767         estimate D2E/DX2                !
 ! R17   R(10,11)                1.2922         estimate D2E/DX2                !
 ! R18   R(10,22)                1.0957         estimate D2E/DX2                !
 ! R19   R(11,12)                1.3785         estimate D2E/DX2                !
 ! R20   R(11,23)                1.0828         estimate D2E/DX2                !
 ! R21   R(12,13)                1.6683         estimate D2E/DX2                !
 ! R22   R(12,16)                1.3813         estimate D2E/DX2                !
 ! R23   R(13,14)                1.6978         estimate D2E/DX2                !
 ! R24   R(14,15)                1.3533         estimate D2E/DX2                !
 ! R25   R(14,24)                1.0919         estimate D2E/DX2                !
 ! R26   R(15,16)                1.4826         estimate D2E/DX2                !
 ! A1    A(2,1,17)             154.2755         estimate D2E/DX2                !
 ! A2    A(1,2,3)               97.4465         estimate D2E/DX2                !
 ! A3    A(1,2,16)             138.5124         estimate D2E/DX2                !
 ! A4    A(3,2,16)             121.6956         estimate D2E/DX2                !
 ! A5    A(2,3,4)              154.0604         estimate D2E/DX2                !
 ! A6    A(2,3,18)              93.385          estimate D2E/DX2                !
 ! A7    A(4,3,18)             101.0344         estimate D2E/DX2                !
 ! A8    A(3,4,5)              120.928          estimate D2E/DX2                !
 ! A9    A(3,4,9)              126.5534         estimate D2E/DX2                !
 ! A10   A(5,4,9)              111.7248         estimate D2E/DX2                !
 ! A11   A(4,5,6)              120.2146         estimate D2E/DX2                !
 ! A12   A(4,5,19)             121.051          estimate D2E/DX2                !
 ! A13   A(6,5,19)             118.7123         estimate D2E/DX2                !
 ! A14   A(5,6,7)              125.3147         estimate D2E/DX2                !
 ! A15   A(5,6,20)             121.1491         estimate D2E/DX2                !
 ! A16   A(7,6,20)             113.5286         estimate D2E/DX2                !
 ! A17   A(6,7,8)              113.8165         estimate D2E/DX2                !
 ! A18   A(7,8,9)              127.9336         estimate D2E/DX2                !
 ! A19   A(7,8,21)             119.9554         estimate D2E/DX2                !
 ! A20   A(9,8,21)             112.1023         estimate D2E/DX2                !
 ! A21   A(4,9,8)              120.4819         estimate D2E/DX2                !
 ! A22   A(4,9,10)             118.6232         estimate D2E/DX2                !
 ! A23   A(8,9,10)             120.4267         estimate D2E/DX2                !
 ! A24   A(9,10,11)            117.428          estimate D2E/DX2                !
 ! A25   A(9,10,22)            117.6233         estimate D2E/DX2                !
 ! A26   A(11,10,22)           124.9487         estimate D2E/DX2                !
 ! A27   A(10,11,12)           122.1721         estimate D2E/DX2                !
 ! A28   A(10,11,23)           122.9889         estimate D2E/DX2                !
 ! A29   A(12,11,23)           105.3783         estimate D2E/DX2                !
 ! A30   A(11,12,13)           115.6813         estimate D2E/DX2                !
 ! A31   A(11,12,16)           120.0937         estimate D2E/DX2                !
 ! A32   A(13,12,16)           121.5024         estimate D2E/DX2                !
 ! A33   A(12,13,14)            85.996          estimate D2E/DX2                !
 ! A34   A(13,14,15)           117.0074         estimate D2E/DX2                !
 ! A35   A(13,14,24)           108.8303         estimate D2E/DX2                !
 ! A36   A(15,14,24)           134.1453         estimate D2E/DX2                !
 ! A37   A(14,15,16)           111.0346         estimate D2E/DX2                !
 ! A38   A(2,16,12)            115.9246         estimate D2E/DX2                !
 ! A39   A(2,16,15)            139.9686         estimate D2E/DX2                !
 ! A40   A(12,16,15)           103.6496         estimate D2E/DX2                !
 ! D1    D(17,1,2,3)          -165.5996         estimate D2E/DX2                !
 ! D2    D(17,1,2,16)           -4.2191         estimate D2E/DX2                !
 ! D3    D(1,2,3,4)            179.0675         estimate D2E/DX2                !
 ! D4    D(1,2,3,18)            55.0174         estimate D2E/DX2                !
 ! D5    D(16,2,3,4)            13.4614         estimate D2E/DX2                !
 ! D6    D(16,2,3,18)         -110.5887         estimate D2E/DX2                !
 ! D7    D(1,2,16,12)         -144.7544         estimate D2E/DX2                !
 ! D8    D(1,2,16,15)           25.8577         estimate D2E/DX2                !
 ! D9    D(3,2,16,12)           13.4013         estimate D2E/DX2                !
 ! D10   D(3,2,16,15)         -175.9866         estimate D2E/DX2                !
 ! D11   D(2,3,4,5)            178.9917         estimate D2E/DX2                !
 ! D12   D(2,3,4,9)            -12.0838         estimate D2E/DX2                !
 ! D13   D(18,3,4,5)           -58.4327         estimate D2E/DX2                !
 ! D14   D(18,3,4,9)           110.4918         estimate D2E/DX2                !
 ! D15   D(3,4,5,6)            178.3734         estimate D2E/DX2                !
 ! D16   D(3,4,5,19)            -3.3571         estimate D2E/DX2                !
 ! D17   D(9,4,5,6)              7.9355         estimate D2E/DX2                !
 ! D18   D(9,4,5,19)          -173.795          estimate D2E/DX2                !
 ! D19   D(3,4,9,8)           -176.851          estimate D2E/DX2                !
 ! D20   D(3,4,9,10)            -4.6678         estimate D2E/DX2                !
 ! D21   D(5,4,9,8)             -7.0687         estimate D2E/DX2                !
 ! D22   D(5,4,9,10)           165.1145         estimate D2E/DX2                !
 ! D23   D(4,5,6,7)             -4.0655         estimate D2E/DX2                !
 ! D24   D(4,5,6,20)           177.0092         estimate D2E/DX2                !
 ! D25   D(19,5,6,7)           177.6248         estimate D2E/DX2                !
 ! D26   D(19,5,6,20)           -1.3004         estimate D2E/DX2                !
 ! D27   D(5,6,7,8)             -1.4068         estimate D2E/DX2                !
 ! D28   D(20,6,7,8)           177.59           estimate D2E/DX2                !
 ! D29   D(6,7,8,9)              2.4821         estimate D2E/DX2                !
 ! D30   D(6,7,8,21)          -176.356          estimate D2E/DX2                !
 ! D31   D(7,8,9,4)              2.2055         estimate D2E/DX2                !
 ! D32   D(7,8,9,10)          -169.8362         estimate D2E/DX2                !
 ! D33   D(21,8,9,4)          -178.881          estimate D2E/DX2                !
 ! D34   D(21,8,9,10)            9.0772         estimate D2E/DX2                !
 ! D35   D(4,9,10,11)          -30.0911         estimate D2E/DX2                !
 ! D36   D(4,9,10,22)          149.8681         estimate D2E/DX2                !
 ! D37   D(8,9,10,11)          142.0966         estimate D2E/DX2                !
 ! D38   D(8,9,10,22)          -37.9442         estimate D2E/DX2                !
 ! D39   D(9,10,11,12)         129.9821         estimate D2E/DX2                !
 ! D40   D(9,10,11,23)         -11.4487         estimate D2E/DX2                !
 ! D41   D(22,10,11,12)        -49.9738         estimate D2E/DX2                !
 ! D42   D(22,10,11,23)        168.5954         estimate D2E/DX2                !
 ! D43   D(10,11,12,13)         90.0848         estimate D2E/DX2                !
 ! D44   D(10,11,12,16)       -108.3259         estimate D2E/DX2                !
 ! D45   D(23,11,12,13)       -122.7597         estimate D2E/DX2                !
 ! D46   D(23,11,12,16)         38.8295         estimate D2E/DX2                !
 ! D47   D(11,12,13,14)        169.8226         estimate D2E/DX2                !
 ! D48   D(16,12,13,14)          8.5152         estimate D2E/DX2                !
 ! D49   D(11,12,16,2)           6.926          estimate D2E/DX2                !
 ! D50   D(11,12,16,15)       -166.8758         estimate D2E/DX2                !
 ! D51   D(13,12,16,2)         167.4246         estimate D2E/DX2                !
 ! D52   D(13,12,16,15)         -6.3772         estimate D2E/DX2                !
 ! D53   D(12,13,14,15)         -8.157          estimate D2E/DX2                !
 ! D54   D(12,13,14,24)        173.1317         estimate D2E/DX2                !
 ! D55   D(13,14,15,16)          6.3947         estimate D2E/DX2                !
 ! D56   D(24,14,15,16)       -175.3051         estimate D2E/DX2                !
 ! D57   D(14,15,16,2)        -171.5551         estimate D2E/DX2                !
 ! D58   D(14,15,16,12)         -0.2381         estimate D2E/DX2                !
 --------------------------------------------------------------------------------
 Trust Radius=3.00D-01 FncErr=1.00D-07 GrdErr=1.00D-06 EigMax=2.50D+02 EigMin=1.00D-04
 Number of steps in this run=    134 maximum allowed number of steps=    144.
 GradGradGradGradGradGradGradGradGradGradGradGradGradGradGradGradGradGrad

                          Input orientation:                          
 ---------------------------------------------------------------------
 Center     Atomic      Atomic             Coordinates (Angstroms)
 Number     Number       Type             X           Y           Z
 ---------------------------------------------------------------------
      1          7           0        0.881010    1.214220   -0.393040
      2          6           0        1.640240    2.173260   -0.806790
      3          6           0        3.091200    1.429110   -0.537640
      4          6           0        4.460320    1.354700   -0.552420
      5          6           0        5.165190    0.152800   -0.037490
      6          6           0        6.511510    0.081140   -0.089000
      7          7           0        7.336250    1.019070   -0.665410
      8          6           0        6.704010    2.008810   -1.205050
      9          7           0        5.347810    2.238240   -1.220680
     10          6           0        4.817460    3.229220   -2.015640
     11          6           0        3.686160    2.988500   -2.591760
     12          6           0        2.627120    3.868540   -2.526190
     13         16           0        2.560300    5.011070   -3.740010
     14          6           0        1.011050    5.375510   -3.148750
     15          7           0        0.506760    4.553870   -2.199030
     16          6           0        1.518380    3.562200   -1.761510
     17          1           0        0.002690    0.732400   -0.290110
     18          1           0        2.822090    0.536200   -1.150940
     19          1           0        4.614670   -0.671210    0.411800
     20          1           0        7.045940   -0.769900    0.327040
     21          1           0        7.264050    2.790030   -1.749570
     22          1           0        5.384900    4.161570   -2.111720
     23          1           0        3.238930    2.002910   -2.624050
     24          1           0        0.631610    6.255000   -3.673030
 ---------------------------------------------------------------------
                    Distance matrix (angstroms):
                    1          2          3          4          5
     1  N    0.000000
     2  C    1.291270   0.000000
     3  C    2.225315   1.652721   0.000000
     4  C    3.585610   2.947473   1.371220   0.000000
     5  C    4.428005   4.135136   2.486072   1.485449   0.000000
     6  C    5.751421   5.349903   3.703623   2.458474   1.349209
     7  N    6.463930   5.813491   4.266721   2.897652   2.420374
     8  C    5.932796   5.082069   3.719393   2.426506   2.678794
     9  N    4.656813   3.731166   2.492694   1.419455   2.404651
    10  C    4.710488   3.559648   2.899113   2.404659   3.674011
    11  C    3.981370   2.834876   2.646712   2.725350   4.093045
    12  C    3.826832   2.608494   3.181276   3.684533   5.142193
    13  S    5.332757   4.183713   4.833991   5.209592   6.640549
    14  C    4.992713   4.016847   5.169042   5.899602   7.362983
    15  N    3.815092   2.981680   4.382199   5.345713   6.763331
    16  C    2.791408   1.689821   2.919194   3.871688   5.281617
    17  H    1.007071   2.241563   3.175779   4.508495   5.201073
    18  H    2.191327   2.048212   1.116174   1.926646   2.622381
    19  H    4.259440   4.292226   2.762923   2.248968   1.088084
    20  H    6.516257   6.258542   4.606874   3.460174   2.126377
    21  H    6.713162   5.735545   4.553411   3.369606   3.780399
    22  H    5.650288   4.436068   3.899375   3.341375   4.518953
    23  H    3.340543   2.426368   2.168912   2.490707   3.718021
    24  H    6.019136   5.088543   6.258552   6.957742   8.426586
                    6          7          8          9         10
     6  C    0.000000
     7  N    1.375557   0.000000
     8  C    2.235740   1.292488   0.000000
     9  N    2.699625   2.397623   1.375558   0.000000
    10  C    4.061053   3.612781   2.388625   1.376689   0.000000
    11  C    4.764363   4.573034   3.462683   2.281191   1.292169
    12  C    5.947502   5.810154   4.671728   3.429925   2.338158
    13  S    7.296996   6.942545   5.710510   4.669670   3.353090
    14  C    8.224809   8.071784   6.893652   5.689236   4.514339
    15  N    7.779111   7.841475   6.772831   5.454821   4.513365
    16  C    6.312402   6.443334   5.441822   4.087775   3.325566
    17  H    6.544412   7.348750   6.882879   5.630615   5.691535
    18  H    3.866085   4.565801   4.152206   3.046484   3.461440
    19  H    2.101150   3.380004   3.763250   3.415755   4.598581
    20  H    1.087646   2.066313   3.191464   3.785233   5.142687
    21  H    3.265256   2.077719   1.104740   2.063049   2.499897
    22  H    4.691541   3.971761   2.682625   2.120030   1.095672
    23  H    4.563930   4.646745   3.744379   2.544052   2.089439
    24  H    9.248516   9.022912   7.809936   6.662651   5.424355
                   11         12         13         14         15
    11  C    0.000000
    12  C    1.378527   0.000000
    13  S    2.583956   1.668292   0.000000
    14  C    3.628260   2.295696   1.697816   0.000000
    15  N    3.565558   2.252252   2.607811   1.353281   0.000000
    16  C    2.391175   1.381262   2.664448   2.338784   1.482636
    17  H    4.894439   4.660800   6.062194   5.545005   4.301360
    18  H    2.972601   3.610238   5.176512   5.539858   4.754042
    19  H    4.824622   5.761204   7.331185   7.888372   7.140926
    20  H    5.825211   7.012989   8.371468   9.288007   8.802524
    21  H    3.681029   4.823634   5.569572   6.909589   6.998151
    22  H    2.119493   2.804105   3.369176   4.656141   4.894668
    23  H    1.082795   1.965824   3.279471   4.075928   3.762020
    24  H    4.601026   3.315493   2.296017   1.091946   2.254353
                   16         17         18         19         20
    16  C    0.000000
    17  H    3.531303   0.000000
    18  H    3.350990   2.954410   0.000000
    19  H    5.677328   4.871669   2.667084   0.000000
    20  H    7.326872   7.228081   4.661677   2.434748   0.000000
    21  H    5.797337   7.687081   5.016883   4.865277   4.127103
    22  H    3.928342   6.636690   4.542510   5.506103   5.746825
    23  H    2.477025   4.187448   2.120153   4.273168   5.557943
    24  H    3.419275   6.506827   6.622976   8.973460  10.319564
                   21         22         23         24
    21  H    0.000000
    22  H    2.354459   0.000000
    23  H    4.193550   3.086662   0.000000
    24  H    7.726252   5.423459   5.096935   0.000000
 Stoichiometry    C11H8N4S
 Framework group  C1[X(C11H8N4S)]
 Deg. of freedom    66
 Full point group                 C1      NOp   1
 Largest Abelian subgroup         C1      NOp   1
 Largest concise Abelian subgroup C1      NOp   1
                         Standard orientation:                         
 ---------------------------------------------------------------------
 Center     Atomic      Atomic             Coordinates (Angstroms)
 Number     Number       Type             X           Y           Z
 ---------------------------------------------------------------------
      1          7           0       -0.583803    3.226190    0.148589
      2          6           0       -0.757139    1.989331   -0.179301
      3          6           0        0.822028    1.514764   -0.067482
      4          6           0        1.842784    0.601564   -0.133552
      5          6           0        3.247362    1.006033    0.131258
      6          6           0        4.236416    0.089090    0.094470
      7          7           0        4.061718   -1.261628   -0.098401
      8          6           0        2.824710   -1.615673   -0.220819
      9          7           0        1.710762   -0.808673   -0.226580
     10          6           0        0.450742   -1.359051   -0.157961
     11          6           0       -0.434950   -0.732686    0.544120
     12          6           0       -1.687640   -0.436678    0.050681
     13         16           0       -2.860580   -1.593244    0.314808
     14          6           0       -3.965638   -0.426790   -0.233655
     15          7           0       -3.489817    0.824077   -0.434389
     16          6           0       -2.017570    0.867037   -0.264532
     17          1           0       -0.892521    4.139217    0.440594
     18          1           0        0.924465    1.873950    0.984344
     19          1           0        3.504407    2.044472    0.330003
     20          1           0        5.275536    0.376332    0.238322
     21          1           0        2.564059   -2.684693   -0.319353
     22          1           0        0.274155   -2.293373   -0.702346
     23          1           0       -0.188773    0.083901    1.211224
     24          1           0       -4.950695   -0.889303   -0.323612
 ---------------------------------------------------------------------
 Rotational constants (GHZ):           1.0339460           0.3220106           0.2497360
 Standard basis: 6-31G(2df,p) (6D, 7F)
 There are   540 symmetry adapted cartesian basis functions of A   symmetry.
 There are   492 symmetry adapted basis functions of A   symmetry.
   492 basis functions,   784 primitive gaussians,   540 cartesian basis functions
    59 alpha electrons       59 beta electrons
       nuclear repulsion energy      1105.5246194132 Hartrees.
 NAtoms=   24 NActive=   24 NUniq=   24 SFac= 1.00D+00 NAtFMM=   60 NAOKFM=F Big=F
 Integral buffers will be    131072 words long.
 Raffenetti 2 integral format.
 Two-electron integral symmetry is turned on.
 One-electron integrals computed using PRISM.
 PrsmSu:  requested number of processors reduced to:  12 ShMem   1 Linda.
 NBasis=   492 RedAO= T EigKep=  1.63D-04  NBF=   492
 NBsUse=   492 1.00D-06 EigRej= -1.00D+00 NBFU=   492
 ExpMin= 1.17D-01 ExpMax= 2.19D+04 ExpMxC= 3.30D+03 IAcc=3 IRadAn=         5 AccDes= 0.00D+00
 Harris functional with IExCor=  402 and IRadAn=       5 diagonalized for initial guess.
 HarFok:  IExCor=  402 AccDes= 0.00D+00 IRadAn=         5 IDoV= 1 UseB2=F ITyADJ=14
 ICtDFT=  3500011 ScaDFX=  1.000000  1.000000  1.000000  1.000000
 FoFCou: FMM=F IPFlag=           0 FMFlag=      100000 FMFlg1=           0
         NFxFlg=           0 DoJE=T BraDBF=F KetDBF=T FulRan=T
         wScrn=  0.000000 ICntrl=       500 IOpCl=  0 I1Cent=   200000004 NGrid=           0
         NMat0=    1 NMatS0=      1 NMatT0=    0 NMatD0=    1 NMtDS0=    0 NMtDT0=    0
 Petite list used in FoFCou.
 Requested convergence on RMS density matrix=1.00D-08 within 128 cycles.
 Requested convergence on MAX density matrix=1.00D-06.
 Requested convergence on             energy=1.00D-06.
 No special actions if energy rises.
 Integral accuracy reduced to 1.0D-05 until final iterations.
 Initial convergence to 1.0D-05 achieved.  Increase integral accuracy.
 SCF Done:  E(RB3LYP) =  -1040.87674041     A.U. after   19 cycles
            NFock= 19  Conv=0.38D-08     -V/T= 2.0058

 **********************************************************************

            Population analysis using the SCF density.

 **********************************************************************

 Orbital symmetries:
       Occupied  (A) (A) (A) (A) (A) (A) (A) (A) (A) (A) (A) (A)
                 (A) (A) (A) (A) (A) (A) (A) (A) (A) (A) (A) (A)
                 (A) (A) (A) (A) (A) (A) (A) (A) (A) (A) (A) (A)
                 (A) (A) (A) (A) (A) (A) (A) (A) (A) (A) (A) (A)
                 (A) (A) (A) (A) (A) (A) (A) (A) (A) (A) (A)
       Virtual   (A) (A) (A) (A) (A) (A) (A) (A) (A) (A) (A) (A)
                 (A) (A) (A) (A) (A) (A) (A) (A) (A) (A) (A) (A)
                 (A) (A) (A) (A) (A) (A) (A) (A) (A) (A) (A) (A)
                 (A) (A) (A) (A) (A) (A) (A) (A) (A) (A) (A) (A)
                 (A) (A) (A) (A) (A) (A) (A) (A) (A) (A) (A) (A)
                 (A) (A) (A) (A) (A) (A) (A) (A) (A) (A) (A) (A)
                 (A) (A) (A) (A) (A) (A) (A) (A) (A) (A) (A) (A)
                 (A) (A) (A) (A) (A) (A) (A) (A) (A) (A) (A) (A)
                 (A) (A) (A) (A) (A) (A) (A) (A) (A) (A) (A) (A)
                 (A) (A) (A) (A) (A) (A) (A) (A) (A) (A) (A) (A)
                 (A) (A) (A) (A) (A) (A) (A) (A) (A) (A) (A) (A)
                 (A) (A) (A) (A) (A) (A) (A) (A) (A) (A) (A) (A)
                 (A) (A) (A) (A) (A) (A) (A) (A) (A) (A) (A) (A)
                 (A) (A) (A) (A) (A) (A) (A) (A) (A) (A) (A) (A)
                 (A) (A) (A) (A) (A) (A) (A) (A) (A) (A) (A) (A)
                 (A) (A) (A) (A) (A) (A) (A) (A) (A) (A) (A) (A)
                 (A) (A) (A) (A) (A) (A) (A) (A) (A) (A) (A) (A)
                 (A) (A) (A) (A) (A) (A) (A) (A) (A) (A) (A) (A)
                 (A) (A) (A) (A) (A) (A) (A) (A) (A) (A) (A) (A)
                 (A) (A) (A) (A) (A) (A) (A) (A) (A) (A) (A) (A)
                 (A) (A) (A) (A) (A) (A) (A) (A) (A) (A) (A) (A)
                 (A) (A) (A) (A) (A) (A) (A) (A) (A) (A) (A) (A)
                 (A) (A) (A) (A) (A) (A) (A) (A) (A) (A) (A) (A)
                 (A) (A) (A) (A) (A) (A) (A) (A) (A) (A) (A) (A)
                 (A) (A) (A) (A) (A) (A) (A) (A) (A) (A) (A) (A)
                 (A) (A) (A) (A) (A) (A) (A) (A) (A) (A) (A) (A)
                 (A) (A) (A) (A) (A) (A) (A) (A) (A) (A) (A) (A)
                 (A) (A) (A) (A) (A) (A) (A) (A) (A) (A) (A) (A)
                 (A) (A) (A) (A) (A) (A) (A) (A) (A) (A) (A) (A)
                 (A) (A) (A) (A) (A) (A) (A) (A) (A) (A) (A) (A)
                 (A) (A) (A) (A) (A) (A) (A) (A) (A) (A) (A) (A)
                 (A) (A) (A) (A) (A) (A) (A) (A) (A) (A) (A) (A)
                 (A) (A) (A) (A) (A) (A) (A) (A) (A) (A) (A) (A)
                 (A) (A) (A) (A) (A) (A) (A) (A) (A) (A) (A) (A)
                 (A) (A) (A) (A) (A) (A) (A) (A) (A) (A) (A) (A)
                 (A) (A) (A) (A) (A) (A) (A) (A) (A) (A) (A) (A)
                 (A)
 The electronic state is 1-A.
 Alpha  occ. eigenvalues --  -88.91923 -14.40923 -14.34911 -14.33405 -14.31366
 Alpha  occ. eigenvalues --  -10.28844 -10.27778 -10.25238 -10.25147 -10.24368
 Alpha  occ. eigenvalues --  -10.23903 -10.22616 -10.22232 -10.20312 -10.18500
 Alpha  occ. eigenvalues --  -10.17019  -7.98411  -5.94747  -5.94399  -5.94220
 Alpha  occ. eigenvalues --   -1.02511  -0.94702  -0.93363  -0.88219  -0.84313
 Alpha  occ. eigenvalues --   -0.81213  -0.78910  -0.74630  -0.72460  -0.66757
 Alpha  occ. eigenvalues --   -0.65851  -0.62630  -0.59832  -0.58764  -0.55231
 Alpha  occ. eigenvalues --   -0.53999  -0.51233  -0.50197  -0.49128  -0.46441
 Alpha  occ. eigenvalues --   -0.46068  -0.45203  -0.44107  -0.42874  -0.40480
 Alpha  occ. eigenvalues --   -0.39495  -0.39312  -0.38319  -0.37767  -0.34136
 Alpha  occ. eigenvalues --   -0.31727  -0.29916  -0.28560  -0.27465  -0.27238
 Alpha  occ. eigenvalues --   -0.26191  -0.23507  -0.21804  -0.16468
 Alpha virt. eigenvalues --   -0.07580  -0.03950  -0.02698  -0.01633  -0.00168
 Alpha virt. eigenvalues --    0.00181   0.05233   0.06439   0.09080   0.09610
 Alpha virt. eigenvalues --    0.10715   0.11455   0.12462   0.13400   0.14352
 Alpha virt. eigenvalues --    0.15244   0.16591   0.17301   0.17668   0.18880
 Alpha virt. eigenvalues --    0.20605   0.21875   0.23459   0.26824   0.28297
 Alpha virt. eigenvalues --    0.28955   0.29077   0.29875   0.30388   0.33014
 Alpha virt. eigenvalues --    0.33536   0.34008   0.37598   0.38661   0.39522
 Alpha virt. eigenvalues --    0.39666   0.40638   0.42167   0.43483   0.43969
 Alpha virt. eigenvalues --    0.44188   0.46256   0.46652   0.47425   0.47881
 Alpha virt. eigenvalues --    0.48403   0.48942   0.49961   0.51341   0.53310
 Alpha virt. eigenvalues --    0.54033   0.54564   0.55385   0.55947   0.56637
 Alpha virt. eigenvalues --    0.57113   0.58857   0.59202   0.60075   0.61016
 Alpha virt. eigenvalues --    0.62682   0.63722   0.63958   0.65583   0.66383
 Alpha virt. eigenvalues --    0.67442   0.67635   0.68807   0.69227   0.70823
 Alpha virt. eigenvalues --    0.71244   0.72318   0.73345   0.73639   0.74923
 Alpha virt. eigenvalues --    0.75617   0.76114   0.76758   0.77678   0.77776
 Alpha virt. eigenvalues --    0.79592   0.79768   0.80659   0.80872   0.81813
 Alpha virt. eigenvalues --    0.82493   0.83385   0.83923   0.84851   0.85152
 Alpha virt. eigenvalues --    0.86431   0.86919   0.87525   0.89029   0.91167
 Alpha virt. eigenvalues --    0.91459   0.93818   0.93849   0.95439   0.96005
 Alpha virt. eigenvalues --    0.96231   0.97507   0.99558   0.99915   1.01063
 Alpha virt. eigenvalues --    1.02354   1.03443   1.05267   1.06390   1.08041
 Alpha virt. eigenvalues --    1.10148   1.10773   1.11415   1.12242   1.14588
 Alpha virt. eigenvalues --    1.17436   1.18319   1.19859   1.21330   1.22263
 Alpha virt. eigenvalues --    1.23026   1.23741   1.24675   1.25405   1.26305
 Alpha virt. eigenvalues --    1.28348   1.31058   1.31352   1.32787   1.33668
 Alpha virt. eigenvalues --    1.34408   1.35568   1.37201   1.38961   1.39635
 Alpha virt. eigenvalues --    1.40649   1.42342   1.43492   1.44477   1.45563
 Alpha virt. eigenvalues --    1.46197   1.47761   1.48682   1.49949   1.51097
 Alpha virt. eigenvalues --    1.52457   1.53368   1.55083   1.57886   1.58651
 Alpha virt. eigenvalues --    1.61676   1.62966   1.63945   1.65029   1.66022
 Alpha virt. eigenvalues --    1.67030   1.68146   1.69013   1.70296   1.71603
 Alpha virt. eigenvalues --    1.74392   1.75623   1.76584   1.77250   1.77642
 Alpha virt. eigenvalues --    1.79946   1.81979   1.84422   1.85215   1.85705
 Alpha virt. eigenvalues --    1.86084   1.87543   1.89242   1.92754   1.93749
 Alpha virt. eigenvalues --    1.96432   1.99051   1.99649   2.01786   2.04135
 Alpha virt. eigenvalues --    2.06525   2.07437   2.12161   2.13660   2.14243
 Alpha virt. eigenvalues --    2.15999   2.17418   2.18801   2.19954   2.23436
 Alpha virt. eigenvalues --    2.25715   2.26663   2.28223   2.30370   2.31804
 Alpha virt. eigenvalues --    2.32293   2.33528   2.34635   2.38760   2.40686
 Alpha virt. eigenvalues --    2.42018   2.42450   2.43142   2.45903   2.46947
 Alpha virt. eigenvalues --    2.51507   2.53277   2.55363   2.56449   2.60102
 Alpha virt. eigenvalues --    2.62237   2.64461   2.65788   2.67414   2.72586
 Alpha virt. eigenvalues --    2.73116   2.74688   2.76753   2.78005   2.81207
 Alpha virt. eigenvalues --    2.81832   2.83845   2.86497   2.87133   2.87961
 Alpha virt. eigenvalues --    2.89965   2.90867   2.93102   2.93940   2.94981
 Alpha virt. eigenvalues --    2.96311   2.97061   2.99169   3.00319   3.02308
 Alpha virt. eigenvalues --    3.03749   3.05556   3.06312   3.08431   3.08908
 Alpha virt. eigenvalues --    3.11075   3.11374   3.12545   3.13523   3.14818
 Alpha virt. eigenvalues --    3.15422   3.16275   3.17997   3.18825   3.19309
 Alpha virt. eigenvalues --    3.21869   3.23636   3.24504   3.25444   3.25800
 Alpha virt. eigenvalues --    3.26409   3.27518   3.29800   3.31104   3.31934
 Alpha virt. eigenvalues --    3.32996   3.33609   3.35106   3.36140   3.39050
 Alpha virt. eigenvalues --    3.40451   3.40807   3.41353   3.43640   3.44686
 Alpha virt. eigenvalues --    3.46576   3.49815   3.50543   3.52867   3.53514
 Alpha virt. eigenvalues --    3.55381   3.56939   3.58033   3.60069   3.62335
 Alpha virt. eigenvalues --    3.63259   3.64853   3.66864   3.67923   3.69052
 Alpha virt. eigenvalues --    3.70214   3.72457   3.73063   3.74804   3.76900
 Alpha virt. eigenvalues --    3.77995   3.79962   3.81988   3.83242   3.84942
 Alpha virt. eigenvalues --    3.86210   3.88065   3.89721   3.92943   3.94702
 Alpha virt. eigenvalues --    3.96673   3.97427   3.99109   4.01231   4.02157
 Alpha virt. eigenvalues --    4.03041   4.06174   4.06432   4.09302   4.09909
 Alpha virt. eigenvalues --    4.10954   4.11470   4.13505   4.15343   4.17018
 Alpha virt. eigenvalues --    4.19285   4.20450   4.21472   4.23160   4.25667
 Alpha virt. eigenvalues --    4.27425   4.28033   4.29165   4.30659   4.34110
 Alpha virt. eigenvalues --    4.34872   4.35286   4.35961   4.38250   4.40137
 Alpha virt. eigenvalues --    4.41362   4.41881   4.43902   4.44362   4.45274
 Alpha virt. eigenvalues --    4.45789   4.47198   4.47630   4.48084   4.49490
 Alpha virt. eigenvalues --    4.50451   4.50820   4.53182   4.54907   4.55684
 Alpha virt. eigenvalues --    4.56388   4.57962   4.58629   4.60422   4.61030
 Alpha virt. eigenvalues --    4.62345   4.63163   4.63849   4.66477   4.66846
 Alpha virt. eigenvalues --    4.68396   4.69149   4.69938   4.70740   4.72592
 Alpha virt. eigenvalues --    4.73522   4.74569   4.77153   4.78154   4.78895
 Alpha virt. eigenvalues --    4.80106   4.81684   4.83223   4.84525   4.87738
 Alpha virt. eigenvalues --    4.89658   4.91460   4.93060   4.95605   4.98456
 Alpha virt. eigenvalues --    5.01892   5.02803   5.03821   5.07612   5.09402
 Alpha virt. eigenvalues --    5.11784   5.13658   5.14535   5.18290   5.18954
 Alpha virt. eigenvalues --    5.19764   5.23610   5.25155   5.28045   5.29247
 Alpha virt. eigenvalues --    5.30759   5.33482   5.36555   5.38187   5.41940
 Alpha virt. eigenvalues --    5.44484   5.46733   5.47736   5.54728   5.56767
 Alpha virt. eigenvalues --    5.62734   5.66055   5.67307   5.69667   5.74868
 Alpha virt. eigenvalues --    5.77544   5.84753   5.88569   5.89774   6.06716
 Alpha virt. eigenvalues --    6.14232   6.24968   6.59382   6.60983   9.55671
 Alpha virt. eigenvalues --   10.14260  10.52543  10.63220  10.82611  10.91115
 Alpha virt. eigenvalues --   11.13603  11.26712  11.33453  11.36761  11.40319
 Alpha virt. eigenvalues --   11.49532  11.64494  11.93694  12.23606  12.26387
 Alpha virt. eigenvalues --   15.96620  16.87217  24.10365
          Condensed to atoms (all electrons):
               1          2          3          4          5          6
     1  N    6.572398   0.685723  -0.098085   0.000661   0.000090  -0.000002
     2  C    0.685723   4.770617   0.305900  -0.014033   0.000647  -0.000065
     3  C   -0.098085   0.305900   5.335903   0.467845  -0.045336   0.001069
     4  C    0.000661  -0.014033   0.467845   4.736749   0.448211  -0.009164
     5  C    0.000090   0.000647  -0.045336   0.448211   4.870618   0.589583
     6  C   -0.000002  -0.000065   0.001069  -0.009164   0.589583   4.726160
     7  N    0.000000   0.000003   0.001357  -0.035167   0.004795   0.448654
     8  C    0.000000   0.000036   0.004483  -0.040923  -0.023100  -0.086715
     9  N   -0.000045  -0.001883  -0.047023   0.387863  -0.004770  -0.014566
    10  C   -0.000036  -0.004122  -0.031779  -0.055590   0.005111   0.000998
    11  C    0.000106  -0.020173  -0.012954  -0.005174   0.001057   0.000006
    12  C    0.002004  -0.027015  -0.002560  -0.000023   0.000006   0.000000
    13  S   -0.000083   0.004633  -0.000588   0.000145   0.000002  -0.000000
    14  C   -0.000022   0.001172  -0.000056  -0.000001  -0.000000  -0.000000
    15  N   -0.000845  -0.022007   0.000416  -0.000006   0.000000  -0.000000
    16  C   -0.043542   0.346034  -0.048687   0.002174  -0.000006  -0.000000
    17  H    0.331510  -0.051750   0.008979  -0.000179   0.000011   0.000000
    18  H   -0.023732  -0.043289   0.373228  -0.074581  -0.009400   0.001316
    19  H   -0.000022  -0.000171   0.001604  -0.036167   0.361357  -0.032610
    20  H   -0.000000   0.000001  -0.000091   0.002380  -0.046405   0.369217
    21  H   -0.000000  -0.000001  -0.000207   0.002806   0.000976   0.003984
    22  H    0.000000  -0.000163  -0.001050   0.002746  -0.000132   0.000017
    23  H    0.000328  -0.002639  -0.001375   0.004264  -0.000327   0.000006
    24  H    0.000000  -0.000026   0.000001   0.000000   0.000000  -0.000000
               7          8          9         10         11         12
     1  N    0.000000   0.000000  -0.000045  -0.000036   0.000106   0.002004
     2  C    0.000003   0.000036  -0.001883  -0.004122  -0.020173  -0.027015
     3  C    0.001357   0.004483  -0.047023  -0.031779  -0.012954  -0.002560
     4  C   -0.035167  -0.040923   0.387863  -0.055590  -0.005174  -0.000023
     5  C    0.004795  -0.023100  -0.004770   0.005111   0.001057   0.000006
     6  C    0.448654  -0.086715  -0.014566   0.000998   0.000006   0.000000
     7  N    6.320393   0.642511  -0.028721   0.002771  -0.000355   0.000001
     8  C    0.642511   4.625038   0.466144  -0.063564   0.003690   0.000011
     9  N   -0.028721   0.466144   6.083148   0.405406  -0.012860   0.001654
    10  C    0.002771  -0.063564   0.405406   4.837188   0.599564  -0.028080
    11  C   -0.000355   0.003690  -0.012860   0.599564   5.166693   0.366702
    12  C    0.000001   0.000011   0.001654  -0.028080   0.366702   4.638662
    13  S   -0.000000   0.000001  -0.000098  -0.005311  -0.084388   0.365154
    14  C    0.000000   0.000000   0.000001   0.000017   0.002899  -0.039820
    15  N    0.000000   0.000000   0.000000   0.000225   0.008832  -0.041066
    16  C    0.000000  -0.000004  -0.000046  -0.002825  -0.026476   0.533043
    17  H   -0.000000  -0.000000   0.000001   0.000001  -0.000014   0.000141
    18  H   -0.000031  -0.000213   0.004636   0.000187  -0.001723   0.000860
    19  H    0.004657  -0.000038   0.002555  -0.000037  -0.000004   0.000002
    20  H   -0.033423   0.002524   0.000546   0.000016  -0.000001  -0.000000
    21  H   -0.024249   0.358498  -0.053406  -0.004891  -0.000331   0.000025
    22  H    0.000117  -0.003589  -0.048093   0.376216  -0.058184  -0.003069
    23  H   -0.000020   0.000527  -0.016179  -0.026354   0.347392  -0.030532
    24  H   -0.000000  -0.000000  -0.000000   0.000005  -0.000198   0.003105
              13         14         15         16         17         18
     1  N   -0.000083  -0.000022  -0.000845  -0.043542   0.331510  -0.023732
     2  C    0.004633   0.001172  -0.022007   0.346034  -0.051750  -0.043289
     3  C   -0.000588  -0.000056   0.000416  -0.048687   0.008979   0.373228
     4  C    0.000145  -0.000001  -0.000006   0.002174  -0.000179  -0.074581
     5  C    0.000002  -0.000000   0.000000  -0.000006   0.000011  -0.009400
     6  C   -0.000000  -0.000000  -0.000000  -0.000000   0.000000   0.001316
     7  N   -0.000000   0.000000   0.000000   0.000000  -0.000000  -0.000031
     8  C    0.000001   0.000000   0.000000  -0.000004  -0.000000  -0.000213
     9  N   -0.000098   0.000001   0.000000  -0.000046   0.000001   0.004636
    10  C   -0.005311   0.000017   0.000225  -0.002825   0.000001   0.000187
    11  C   -0.084388   0.002899   0.008832  -0.026476  -0.000014  -0.001723
    12  C    0.365154  -0.039820  -0.041066   0.533043   0.000141   0.000860
    13  S   15.564115   0.342391  -0.096471  -0.016819  -0.000004   0.000033
    14  C    0.342391   4.834508   0.627819  -0.097674  -0.000002   0.000004
    15  N   -0.096471   0.627819   6.472952   0.385366   0.000016  -0.000037
    16  C   -0.016819  -0.097674   0.385366   4.958102  -0.001076   0.002036
    17  H   -0.000004  -0.000002   0.000016  -0.001076   0.425246   0.000664
    18  H    0.000033   0.000004  -0.000037   0.002036   0.000664   0.631987
    19  H    0.000000   0.000000  -0.000000  -0.000001   0.000003   0.002851
    20  H   -0.000000  -0.000000   0.000000  -0.000000   0.000000  -0.000016
    21  H   -0.000003  -0.000000  -0.000000  -0.000001   0.000000   0.000019
    22  H    0.003096  -0.000092   0.000002  -0.000121   0.000000   0.000022
    23  H    0.008242  -0.000136   0.000147  -0.018076  -0.000010   0.007200
    24  H   -0.070380   0.372387  -0.019165   0.003518   0.000000  -0.000000
              19         20         21         22         23         24
     1  N   -0.000022  -0.000000  -0.000000   0.000000   0.000328   0.000000
     2  C   -0.000171   0.000001  -0.000001  -0.000163  -0.002639  -0.000026
     3  C    0.001604  -0.000091  -0.000207  -0.001050  -0.001375   0.000001
     4  C   -0.036167   0.002380   0.002806   0.002746   0.004264   0.000000
     5  C    0.361357  -0.046405   0.000976  -0.000132  -0.000327   0.000000
     6  C   -0.032610   0.369217   0.003984   0.000017   0.000006  -0.000000
     7  N    0.004657  -0.033423  -0.024249   0.000117  -0.000020  -0.000000
     8  C   -0.000038   0.002524   0.358498  -0.003589   0.000527  -0.000000
     9  N    0.002555   0.000546  -0.053406  -0.048093  -0.016179  -0.000000
    10  C   -0.000037   0.000016  -0.004891   0.376216  -0.026354   0.000005
    11  C   -0.000004  -0.000001  -0.000331  -0.058184   0.347392  -0.000198
    12  C    0.000002  -0.000000   0.000025  -0.003069  -0.030532   0.003105
    13  S    0.000000  -0.000000  -0.000003   0.003096   0.008242  -0.070380
    14  C    0.000000  -0.000000  -0.000000  -0.000092  -0.000136   0.372387
    15  N   -0.000000   0.000000  -0.000000   0.000002   0.000147  -0.019165
    16  C   -0.000001  -0.000000  -0.000001  -0.000121  -0.018076   0.003518
    17  H    0.000003   0.000000   0.000000   0.000000  -0.000010   0.000000
    18  H    0.002851  -0.000016   0.000019   0.000022   0.007200  -0.000000
    19  H    0.578050  -0.005129   0.000037   0.000004  -0.000015  -0.000000
    20  H   -0.005129   0.596371  -0.000304  -0.000000   0.000000   0.000000
    21  H    0.000037  -0.000304   0.586725   0.006486  -0.000004  -0.000000
    22  H    0.000004  -0.000000   0.006486   0.592677   0.005306   0.000001
    23  H   -0.000015   0.000000  -0.000004   0.005306   0.592304   0.000010
    24  H   -0.000000   0.000000  -0.000000   0.000001   0.000010   0.564166
 Mulliken charges:
               1
     1  N   -0.426406
     2  C    0.072574
     3  C   -0.210994
     4  C    0.215163
     5  C   -0.152989
     6  C    0.002112
     7  N   -0.303291
     8  C    0.114685
     9  N   -0.124265
    10  C   -0.005117
    11  C   -0.274105
    12  C    0.260796
    13  S   -0.013667
    14  C   -0.043396
    15  N   -0.316178
    16  C    0.025081
    17  H    0.286463
    18  H    0.127981
    19  H    0.123074
    20  H    0.114312
    21  H    0.123844
    22  H    0.127803
    23  H    0.129943
    24  H    0.146576
 Sum of Mulliken charges =  -0.00000
 Mulliken charges with hydrogens summed into heavy atoms:
               1
     1  N   -0.139943
     2  C    0.072574
     3  C   -0.083012
     4  C    0.215163
     5  C   -0.029915
     6  C    0.116424
     7  N   -0.303291
     8  C    0.238529
     9  N   -0.124265
    10  C    0.122686
    11  C   -0.144161
    12  C    0.260796
    13  S   -0.013667
    14  C    0.103180
    15  N   -0.316178
    16  C    0.025081
 Electronic spatial extent (au):  <R**2>=           4064.3400
 Charge=             -0.0000 electrons
 Dipole moment (field-independent basis, Debye):
    X=             -0.1840    Y=             -1.9499    Z=              1.2115  Tot=              2.3030
 Quadrupole moment (field-independent basis, Debye-Ang):
   XX=           -101.5909   YY=            -91.1154   ZZ=            -98.2381
   XY=             10.1546   XZ=             -0.9713   YZ=              5.1399
 Traceless Quadrupole moment (field-independent basis, Debye-Ang):
   XX=             -4.6094   YY=              5.8660   ZZ=             -1.2566
   XY=             10.1546   XZ=             -0.9713   YZ=              5.1399
 Octapole moment (field-independent basis, Debye-Ang**2):
  XXX=            -35.9481  YYY=             18.5657  ZZZ=              2.8306  XYY=            -11.7333
  XXY=             -1.7311  XXZ=             12.0594  XZZ=              0.2531  YZZ=             -0.1112
  YYZ=              9.0815  XYZ=             -1.7959
 Hexadecapole moment (field-independent basis, Debye-Ang**3):
 XXXX=          -3988.9064 YYYY=          -1079.5243 ZZZZ=           -149.7723 XXXY=            362.6325
 XXXZ=             12.2236 YYYX=            -53.8413 YYYZ=             55.6983 ZZZX=             -4.8358
 ZZZY=              7.1865 XXYY=           -921.8818 XXZZ=           -727.6592 YYZZ=           -241.9767
 XXYZ=             22.9308 YYXZ=            -10.7939 ZZXY=             -2.0824
 N-N= 1.105524619413D+03 E-N=-4.650441291621D+03  KE= 1.034868359006D+03
 PrsmSu:  requested number of processors reduced to:  13 ShMem   1 Linda.
 Calling FoFJK, ICntrl=      2127 FMM=F ISym2X=0 I1Cent= 0 IOpClX= 0 NMat=1 NMatS=1 NMatT=0.
 ***** Axes restored to original set *****
 -------------------------------------------------------------------
 Center     Atomic                   Forces (Hartrees/Bohr)
 Number     Number              X              Y              Z
 -------------------------------------------------------------------
      1        7           0.018379554    0.042927702   -0.011815090
      2        6          -0.006491107   -0.032531738   -0.001670398
      3        6          -0.025968673   -0.012273336   -0.035164725
      4        6           0.013822533   -0.008371557   -0.005587711
      5        6          -0.010787029    0.014596182   -0.011550771
      6        6           0.004078180   -0.012230051    0.003053753
      7        7          -0.005535788    0.015378703   -0.005838265
      8        6           0.012319146    0.013757170   -0.005599519
      9        7           0.035528138   -0.020725383    0.022792945
     10        6           0.047564042    0.017083724    0.003567325
     11        6          -0.011086505   -0.043483586   -0.006419756
     12        6          -0.012201016   -0.011411023   -0.012526330
     13       16           0.000728266    0.017210522    0.000962769
     14        6          -0.034165495   -0.020810482    0.025091573
     15        7           0.020340564    0.010267778   -0.004513884
     16        6          -0.013545113    0.026528716   -0.021547504
     17        1          -0.010380260    0.029449464   -0.010367280
     18        1          -0.003498581   -0.011255930    0.043035329
     19        1          -0.004273614    0.007888369   -0.001199446
     20        1          -0.002919192   -0.000259730    0.001036985
     21        1          -0.001986073   -0.007625591    0.005904813
     22        1          -0.007935161    0.000613412    0.011996988
     23        1           0.020390996   -0.007090863    0.000506806
     24        1          -0.022377810   -0.007632470    0.015851394
 -------------------------------------------------------------------
 Cartesian Forces:  Max     0.047564042 RMS     0.018075110

 GradGradGradGradGradGradGradGradGradGradGradGradGradGradGradGradGradGrad
 Berny optimization.
 FormGI is forming the generalized inverse of G from B-inverse, IUseBI=4.
 Internal  Forces:  Max     0.077603793 RMS     0.022488278
 Search for a local minimum.
 Step number   1 out of a maximum of  134
 All quantities printed in internal units (Hartrees-Bohrs-Radians)
 Mixed Optimization -- RFO/linear search
 Second derivative matrix not updated -- first step.
 ITU=  0
     Eigenvalues ---    0.00417   0.00850   0.01176   0.01480   0.01523
     Eigenvalues ---    0.01748   0.01824   0.01850   0.02017   0.02056
     Eigenvalues ---    0.02094   0.02181   0.02344   0.02362   0.02477
     Eigenvalues ---    0.02521   0.02632   0.02853   0.03130   0.03511
     Eigenvalues ---    0.05921   0.13553   0.14955   0.15235   0.15993
     Eigenvalues ---    0.15996   0.15998   0.15999   0.16000   0.16000
     Eigenvalues ---    0.18607   0.20433   0.20957   0.22293   0.23212
     Eigenvalues ---    0.23336   0.23390   0.23826   0.24236   0.24336
     Eigenvalues ---    0.24535   0.24654   0.31955   0.33163   0.33242
     Eigenvalues ---    0.33469   0.34165   0.34589   0.34831   0.35035
     Eigenvalues ---    0.35086   0.35659   0.38565   0.39809   0.44675
     Eigenvalues ---    0.46467   0.47075   0.47554   0.49119   0.49288
     Eigenvalues ---    0.50127   0.52673   0.53836   0.66945   0.67061
     Eigenvalues ---    0.69677
 RFO step:  Lambda=-1.54080137D-01 EMin= 4.17155113D-03
 Linear search not attempted -- first point.
 Maximum step size (   0.300) exceeded in Quadratic search.
    -- Step size scaled by   0.542
 Iteration  1 RMS(Cart)=  0.10313177 RMS(Int)=  0.00507932
 Iteration  2 RMS(Cart)=  0.00695118 RMS(Int)=  0.00072689
 Iteration  3 RMS(Cart)=  0.00002386 RMS(Int)=  0.00072678
 Iteration  4 RMS(Cart)=  0.00000003 RMS(Int)=  0.00072678
 Variable       Old X    -DE/DX   Delta X   Delta X   Delta X     New X
                                 (Linear)    (Quad)   (Total)
    R1        2.44015  -0.06557   0.00000  -0.04175  -0.04175   2.39840
    R2        1.90309  -0.00610   0.00000  -0.00534  -0.00534   1.89775
    R3        3.12319   0.00720   0.00000   0.00618   0.00605   3.12924
    R4        3.19330  -0.04564   0.00000  -0.07500  -0.07489   3.11841
    R5        2.59123   0.03606   0.00000   0.02712   0.02689   2.61812
    R6        2.10926  -0.01380   0.00000  -0.01578  -0.01578   2.09348
    R7        2.80709  -0.02590   0.00000  -0.02869  -0.02870   2.77839
    R8        2.68238   0.02289   0.00000   0.02056   0.02027   2.70265
    R9        2.54964   0.00548   0.00000   0.00397   0.00397   2.55361
   R10        2.05618  -0.00431   0.00000  -0.00463  -0.00463   2.05155
   R11        2.59943   0.01162   0.00000   0.00958   0.00960   2.60902
   R12        2.05535  -0.00083   0.00000  -0.00090  -0.00090   2.05446
   R13        2.44245  -0.00904   0.00000  -0.00561  -0.00558   2.43687
   R14        2.59943  -0.00124   0.00000  -0.00077  -0.00077   2.59866
   R15        2.08766  -0.00931   0.00000  -0.01038  -0.01038   2.07727
   R16        2.60157   0.02303   0.00000   0.02089   0.02087   2.62243
   R17        2.44185   0.05050   0.00000   0.03375   0.03401   2.47585
   R18        2.07052  -0.00464   0.00000  -0.00507  -0.00507   2.06545
   R19        2.60504   0.07187   0.00000   0.06261   0.06270   2.66773
   R20        2.04619  -0.00198   0.00000  -0.00210  -0.00210   2.04408
   R21        3.15262   0.02389   0.00000   0.02588   0.02609   3.17871
   R22        2.61021  -0.01011   0.00000  -0.00547  -0.00479   2.60542
   R23        3.20841   0.03643   0.00000   0.03806   0.03775   3.24615
   R24        2.55733  -0.06334   0.00000  -0.05128  -0.05167   2.50566
   R25        2.06348  -0.00598   0.00000  -0.00648  -0.00648   2.05700
   R26        2.80178  -0.03389   0.00000  -0.03892  -0.03885   2.76292
    A1        2.69262  -0.05963   0.00000  -0.10285  -0.10285   2.58977
    A2        1.70076   0.05974   0.00000   0.08647   0.08685   1.78761
    A3        2.41750  -0.07760   0.00000  -0.10383  -0.10472   2.31278
    A4        2.12399   0.01930   0.00000   0.02531   0.02579   2.14977
    A5        2.68886  -0.02812   0.00000  -0.04423  -0.04408   2.64478
    A6        1.62988   0.01361   0.00000   0.02761   0.02822   1.65810
    A7        1.76338   0.01173   0.00000   0.02717   0.02839   1.79178
    A8        2.11059  -0.01902   0.00000  -0.02353  -0.02352   2.08708
    A9        2.20877   0.02880   0.00000   0.03717   0.03675   2.24553
   A10        1.94997  -0.00847   0.00000  -0.00940  -0.00931   1.94066
   A11        2.09814   0.00707   0.00000   0.00958   0.00956   2.10770
   A12        2.11274  -0.01139   0.00000  -0.01836  -0.01836   2.09438
   A13        2.07192   0.00427   0.00000   0.00865   0.00867   2.08059
   A14        2.18715  -0.00202   0.00000  -0.00334  -0.00339   2.18377
   A15        2.11445  -0.00199   0.00000  -0.00348  -0.00347   2.11098
   A16        1.98145   0.00405   0.00000   0.00696   0.00696   1.98841
   A17        1.98647   0.00325   0.00000   0.00488   0.00489   1.99136
   A18        2.23286  -0.01003   0.00000  -0.01376  -0.01379   2.21907
   A19        2.09362   0.00177   0.00000   0.00130   0.00132   2.09494
   A20        1.95655   0.00825   0.00000   0.01246   0.01247   1.96903
   A21        2.10281   0.01037   0.00000   0.01255   0.01252   2.11533
   A22        2.07037  -0.01261   0.00000  -0.01254  -0.01270   2.05767
   A23        2.10184   0.00268   0.00000   0.00162   0.00180   2.10364
   A24        2.04951  -0.01672   0.00000  -0.01513  -0.01381   2.03569
   A25        2.05291   0.00687   0.00000   0.00499   0.00420   2.05711
   A26        2.18077   0.00985   0.00000   0.01013   0.00937   2.19014
   A27        2.13231   0.00239   0.00000   0.00661   0.00581   2.13811
   A28        2.14656  -0.02567   0.00000  -0.04620  -0.04535   2.10121
   A29        1.83920   0.02004   0.00000   0.03481   0.03471   1.87390
   A30        2.01902   0.06017   0.00000   0.07873   0.07912   2.09814
   A31        2.09603  -0.00283   0.00000   0.00234   0.00138   2.09741
   A32        2.12062  -0.05357   0.00000  -0.06951  -0.06951   2.05111
   A33        1.50091   0.01116   0.00000   0.02301   0.02273   1.52365
   A34        2.04216  -0.00549   0.00000  -0.00996  -0.01063   2.03153
   A35        1.89945   0.03142   0.00000   0.05456   0.05482   1.95427
   A36        2.34128  -0.02581   0.00000  -0.04417  -0.04391   2.29736
   A37        1.93792   0.00393   0.00000  -0.00074  -0.00107   1.93685
   A38        2.02327   0.01459   0.00000   0.02316   0.02292   2.04618
   A39        2.44291  -0.05951   0.00000  -0.08258  -0.08330   2.35961
   A40        1.80903   0.04574   0.00000   0.06212   0.06287   1.87190
    D1       -2.89026  -0.01370   0.00000  -0.03536  -0.03389  -2.92415
    D2       -0.07364   0.00711   0.00000   0.01609   0.01462  -0.05901
    D3        3.12532   0.00155   0.00000   0.02509   0.02731  -3.13056
    D4        0.96023  -0.02350   0.00000  -0.05361  -0.05105   0.90918
    D5        0.23495   0.01127   0.00000   0.02004   0.01884   0.25379
    D6       -1.93014  -0.01377   0.00000  -0.05866  -0.05952  -1.98966
    D7       -2.52644  -0.02597   0.00000  -0.06836  -0.06634  -2.59278
    D8        0.45130  -0.01143   0.00000  -0.03225  -0.03195   0.41936
    D9        0.23390  -0.00285   0.00000  -0.00887  -0.00919   0.22471
   D10       -3.07154   0.01169   0.00000   0.02723   0.02520  -3.04635
   D11        3.12400  -0.00413   0.00000  -0.01338  -0.01263   3.11136
   D12       -0.21090   0.00373   0.00000   0.01450   0.01555  -0.19535
   D13       -1.01984   0.02004   0.00000   0.06412   0.06463  -0.95522
   D14        1.92845   0.02790   0.00000   0.09201   0.09281   2.02126
   D15        3.11320   0.00841   0.00000   0.02278   0.02220   3.13541
   D16       -0.05859   0.00646   0.00000   0.01776   0.01744  -0.04116
   D17        0.13850  -0.00252   0.00000  -0.00649  -0.00659   0.13192
   D18       -3.03330  -0.00446   0.00000  -0.01151  -0.01135  -3.04465
   D19       -3.08663  -0.00607   0.00000  -0.02443  -0.02499  -3.11162
   D20       -0.08147  -0.00222   0.00000  -0.01073  -0.01065  -0.09212
   D21       -0.12337  -0.00028   0.00000  -0.00062  -0.00057  -0.12395
   D22        2.88179   0.00357   0.00000   0.01308   0.01376   2.89555
   D23       -0.07096   0.00240   0.00000   0.00807   0.00810  -0.06286
   D24        3.08939  -0.00100   0.00000  -0.00195  -0.00182   3.08757
   D25        3.10014   0.00457   0.00000   0.01343   0.01329   3.11343
   D26       -0.02270   0.00117   0.00000   0.00341   0.00337  -0.01932
   D27       -0.02455  -0.00183   0.00000  -0.00418  -0.00404  -0.02859
   D28        3.09953   0.00129   0.00000   0.00508   0.00518   3.10471
   D29        0.04332  -0.00138   0.00000  -0.00420  -0.00425   0.03907
   D30       -3.07799  -0.00099   0.00000  -0.00440  -0.00469  -3.08268
   D31        0.03849   0.00199   0.00000   0.00614   0.00614   0.04464
   D32       -2.96420  -0.00075   0.00000  -0.00672  -0.00746  -2.97166
   D33       -3.12206   0.00158   0.00000   0.00625   0.00647  -3.11560
   D34        0.15843  -0.00116   0.00000  -0.00661  -0.00714   0.15129
   D35       -0.52519  -0.00228   0.00000  -0.01240  -0.01301  -0.53820
   D36        2.61569  -0.01093   0.00000  -0.03369  -0.03456   2.58113
   D37        2.48005   0.00219   0.00000   0.00218   0.00210   2.48215
   D38       -0.66225  -0.00646   0.00000  -0.01911  -0.01945  -0.68170
   D39        2.26862  -0.00529   0.00000  -0.01072  -0.01177   2.25684
   D40       -0.19982  -0.00652   0.00000  -0.01440  -0.01523  -0.21505
   D41       -0.87221   0.00407   0.00000   0.01230   0.01163  -0.86058
   D42        2.94254   0.00284   0.00000   0.00862   0.00817   2.95071
   D43        1.57228   0.01570   0.00000   0.02456   0.02252   1.59480
   D44       -1.89064   0.01832   0.00000   0.04971   0.04975  -1.84089
   D45       -2.14256   0.00238   0.00000   0.00200   0.00014  -2.14242
   D46        0.67770   0.00500   0.00000   0.02715   0.02737   0.70507
   D47        2.96396  -0.00025   0.00000   0.01172   0.01261   2.97658
   D48        0.14862  -0.01347   0.00000  -0.02871  -0.02716   0.12146
   D49        0.12088  -0.01602   0.00000  -0.02768  -0.02631   0.09457
   D50       -2.91253  -0.01668   0.00000  -0.03908  -0.03908  -2.95161
   D51        2.92211   0.00864   0.00000   0.02757   0.02770   2.94981
   D52       -0.11130   0.00799   0.00000   0.01617   0.01493  -0.09637
   D53       -0.14237   0.00761   0.00000   0.02492   0.02491  -0.11746
   D54        3.02172   0.00315   0.00000   0.00921   0.00872   3.03043
   D55        0.11161  -0.00778   0.00000  -0.02563  -0.02533   0.08627
   D56       -3.05965  -0.00083   0.00000  -0.00308  -0.00348  -3.06313
   D57       -2.99420  -0.01111   0.00000  -0.02453  -0.02252  -3.01672
   D58       -0.00416   0.00171   0.00000   0.00823   0.00854   0.00439
         Item               Value     Threshold  Converged?
 Maximum Force            0.077604     0.000450     NO 
 RMS     Force            0.022488     0.000300     NO 
 Maximum Displacement     0.621497     0.001800     NO 
 RMS     Displacement     0.104115     0.001200     NO 
 Predicted change in Energy=-7.094903D-02
 GradGradGradGradGradGradGradGradGradGradGradGradGradGradGradGradGradGrad

                          Input orientation:                          
 ---------------------------------------------------------------------
 Center     Atomic      Atomic             Coordinates (Angstroms)
 Number     Number       Type             X           Y           Z
 ---------------------------------------------------------------------
      1          7           0        0.815412    1.347869   -0.440186
      2          6           0        1.676124    2.187861   -0.845652
      3          6           0        3.104563    1.400864   -0.558823
      4          6           0        4.488540    1.341564   -0.582389
      5          6           0        5.173128    0.152226   -0.054673
      6          6           0        6.521577    0.066124   -0.072387
      7          7           0        7.370129    1.003683   -0.626548
      8          6           0        6.765422    1.998745   -1.180694
      9          7           0        5.409694    2.223881   -1.229233
     10          6           0        4.890508    3.230415   -2.031189
     11          6           0        3.758120    2.972881   -2.637742
     12          6           0        2.650606    3.846342   -2.579564
     13         16           0        2.447804    5.035416   -3.751927
     14          6           0        0.889624    5.313315   -3.084355
     15          7           0        0.493741    4.470357   -2.140530
     16          6           0        1.560869    3.532357   -1.795486
     17          1           0       -0.146158    1.061282   -0.398218
     18          1           0        2.812714    0.474006   -1.090828
     19          1           0        4.596409   -0.655678    0.384977
     20          1           0        7.032971   -0.789295    0.361985
     21          1           0        7.345228    2.774346   -1.700895
     22          1           0        5.441389    4.172640   -2.089207
     23          1           0        3.371625    1.963104   -2.669442
     24          1           0        0.399613    6.172953   -3.537983
 ---------------------------------------------------------------------
                    Distance matrix (angstroms):
                    1          2          3          4          5
     1  N    0.000000
     2  C    1.269178   0.000000
     3  C    2.292835   1.655921   0.000000
     4  C    3.675885   2.948764   1.385447   0.000000
     5  C    4.535182   4.122924   2.468244   1.470263   0.000000
     6  C    5.859903   5.345851   3.700559   2.453587   1.351311
     7  N    6.566392   5.819964   4.284553   2.901667   2.424631
     8  C    6.031137   5.103820   3.761127   2.444187   2.685695
     9  N    4.743144   3.753395   2.537801   1.430180   2.393180
    10  C    4.762528   3.581157   2.950376   2.414199   3.669025
    11  C    4.016149   2.857019   2.687058   2.723818   4.078063
    12  C    3.766595   2.589716   3.204658   3.693321   5.136603
    13  S    5.218269   4.141316   4.882337   5.277795   6.703927
    14  C    4.766749   3.924135   5.156698   5.914967   7.359635
    15  N    3.569954   2.878286   4.328970   5.308066   6.700279
    16  C    2.676664   1.650193   2.907849   3.852588   5.244439
    17  H    1.004246   2.188627   3.272353   4.646816   5.407329
    18  H    2.275123   2.071050   1.107822   1.954369   2.597829
    19  H    4.357870   4.257726   2.710300   2.221803   1.085636
    20  H    6.623367   6.246411   4.590977   3.450584   2.125812
    21  H    6.801670   5.763172   4.601524   3.385940   3.782008
    22  H    5.665533   4.434298   3.935171   3.345656   4.513870
    23  H    3.447074   2.500290   2.200488   2.447367   3.655368
    24  H    5.748971   4.975850   6.242194   6.985498   8.436176
                    6          7          8          9         10
     6  C    0.000000
     7  N    1.380635   0.000000
     8  C    2.241167   1.289533   0.000000
     9  N    2.688958   2.386508   1.375152   0.000000
    10  C    4.063254   3.616611   2.399095   1.387731   0.000000
    11  C    4.760985   4.579219   3.480775   2.296213   1.310165
    12  C    5.963254   5.845415   4.722517   3.473951   2.386890
    13  S    7.404627   7.088875   5.871494   4.800156   3.490812
    14  C    8.265825   8.161537   7.009658   5.780753   4.631922
    15  N    7.746567   7.848228   6.809122   5.481214   4.569570
    16  C    6.292255   6.442679   5.460523   4.104413   3.351600
    17  H    6.749459   7.519975   7.018621   5.736698   5.721865
    18  H    3.867719   4.611523   4.237548   3.134569   3.577611
    19  H    2.106289   3.386766   3.768542   3.399848   4.585420
    20  H    1.087172   2.075004   3.197594   3.774418   5.145435
    21  H    3.265717   2.071253   1.099246   2.066826   2.518480
    22  H    4.700835   3.987693   2.702643   2.130310   1.092988
    23  H    4.501714   4.591508   3.706144   2.509170   2.078570
    24  H    9.315695   9.153464   7.968962   6.784276   5.576477
                   11         12         13         14         15
    11  C    0.000000
    12  C    1.411703   0.000000
    13  S    2.685589   1.682100   0.000000
    14  C    3.728989   2.346887   1.717790   0.000000
    15  N    3.625718   2.287840   2.595044   1.325936   0.000000
    16  C    2.418744   1.378728   2.621736   2.298600   1.462075
    17  H    4.890099   4.509625   5.811174   5.134974   3.881613
    18  H    3.087251   3.689887   5.293493   5.575960   4.738179
    19  H    4.796457   5.730867   7.356564   7.836159   7.034651
    20  H    5.820393   7.024739   8.477929   9.319861   8.757172
    21  H    3.712740   4.894968   5.770955   7.073552   7.071959
    22  H    2.138622   2.852261   3.531369   4.796876   4.956863
    23  H    1.081682   2.018547   3.385901   4.190035   3.853347
    24  H    4.725512   3.376190   2.352626   1.088516   2.204669
                   16         17         18         19         20
    16  C    0.000000
    17  H    3.312478   0.000000
    18  H    3.378930   3.095081   0.000000
    19  H    5.613249   5.104242   2.575995   0.000000
    20  H    7.298990   7.452679   4.638659   2.440331   0.000000
    21  H    5.834581   7.794384   5.119319   4.865381   4.129469
    22  H    3.943941   6.615185   4.646137   5.490741   5.758669
    23  H    2.550528   4.283286   2.240941   4.205662   5.492787
    24  H    3.370098   6.023718   6.655045   8.923728  10.377094
                   21         22         23         24
    21  H    0.000000
    22  H    2.393870   0.000000
    23  H    4.169619   3.082637   0.000000
    24  H    7.947766   5.614242   5.225902   0.000000
 Stoichiometry    C11H8N4S
 Framework group  C1[X(C11H8N4S)]
 Deg. of freedom    66
 Full point group                 C1      NOp   1
 Largest Abelian subgroup         C1      NOp   1
 Largest concise Abelian subgroup C1      NOp   1
                         Standard orientation:                         
 ---------------------------------------------------------------------
 Center     Atomic      Atomic             Coordinates (Angstroms)
 Number     Number       Type             X           Y           Z
 ---------------------------------------------------------------------
      1          7           0       -0.794512    3.159316    0.109469
      2          6           0       -0.794014    1.920136   -0.164842
      3          6           0        0.809386    1.527236   -0.035173
      4          6           0        1.849094    0.614174   -0.104376
      5          6           0        3.226290    1.061841    0.149785
      6          6           0        4.257485    0.190208    0.095617
      7          7           0        4.138766   -1.168185   -0.120784
      8          6           0        2.921998   -1.577614   -0.242191
      9          7           0        1.781458   -0.809664   -0.220675
     10          6           0        0.530299   -1.407156   -0.162346
     11          6           0       -0.373200   -0.807675    0.573074
     12          6           0       -1.665076   -0.505246    0.090891
     13         16           0       -2.924408   -1.600701    0.299511
     14          6           0       -3.982144   -0.366022   -0.255075
     15          7           0       -3.443719    0.831007   -0.443030
     16          6           0       -1.997164    0.792847   -0.234015
     17          1           0       -1.319358    3.984282    0.338548
     18          1           0        0.933370    1.960147    0.976996
     19          1           0        3.427979    2.109211    0.352129
     20          1           0        5.281965    0.526831    0.233703
     21          1           0        2.711705   -2.649907   -0.361792
     22          1           0        0.371900   -2.318729   -0.744213
     23          1           0       -0.088304   -0.015290    1.252040
     24          1           0       -5.000407   -0.729003   -0.382557
 ---------------------------------------------------------------------
 Rotational constants (GHZ):           1.0543183           0.3152310           0.2468373
 Standard basis: 6-31G(2df,p) (6D, 7F)
 There are   540 symmetry adapted cartesian basis functions of A   symmetry.
 There are   492 symmetry adapted basis functions of A   symmetry.
   492 basis functions,   784 primitive gaussians,   540 cartesian basis functions
    59 alpha electrons       59 beta electrons
       nuclear repulsion energy      1101.6895106394 Hartrees.
 NAtoms=   24 NActive=   24 NUniq=   24 SFac= 1.00D+00 NAtFMM=   60 NAOKFM=F Big=F
 Integral buffers will be    131072 words long.
 Raffenetti 2 integral format.
 Two-electron integral symmetry is turned on.
 One-electron integrals computed using PRISM.
 PrsmSu:  requested number of processors reduced to:  12 ShMem   1 Linda.
 NBasis=   492 RedAO= T EigKep=  1.65D-04  NBF=   492
 NBsUse=   492 1.00D-06 EigRej= -1.00D+00 NBFU=   492
 Initial guess from the checkpoint file:  "NdC1CdC2CdCNdCN2CdCc2scnc21.chk"
 B after Tr=    -0.000000   -0.000000   -0.000000
         Rot=    0.999965   -0.001450    0.001139   -0.008160 Ang=  -0.96 deg.
 ExpMin= 1.17D-01 ExpMax= 2.19D+04 ExpMxC= 3.30D+03 IAcc=2 IRadAn=         4 AccDes= 0.00D+00
 Harris functional with IExCor=  402 and IRadAn=       4 diagonalized for initial guess.
 HarFok:  IExCor=  402 AccDes= 0.00D+00 IRadAn=         4 IDoV= 1 UseB2=F ITyADJ=14
 ICtDFT=  3500011 ScaDFX=  1.000000  1.000000  1.000000  1.000000
 FoFCou: FMM=F IPFlag=           0 FMFlag=      100000 FMFlg1=           0
         NFxFlg=           0 DoJE=T BraDBF=F KetDBF=T FulRan=T
         wScrn=  0.000000 ICntrl=       500 IOpCl=  0 I1Cent=   200000004 NGrid=           0
         NMat0=    1 NMatS0=      1 NMatT0=    0 NMatD0=    1 NMtDS0=    0 NMtDT0=    0
 Petite list used in FoFCou.
 Requested convergence on RMS density matrix=1.00D-08 within 128 cycles.
 Requested convergence on MAX density matrix=1.00D-06.
 Requested convergence on             energy=1.00D-06.
 No special actions if energy rises.
 Integral accuracy reduced to 1.0D-05 until final iterations.
 Initial convergence to 1.0D-05 achieved.  Increase integral accuracy.
 SCF Done:  E(RB3LYP) =  -1040.94876540     A.U. after   14 cycles
            NFock= 14  Conv=0.43D-08     -V/T= 2.0060
 PrsmSu:  requested number of processors reduced to:  13 ShMem   1 Linda.
 Calling FoFJK, ICntrl=      2127 FMM=F ISym2X=0 I1Cent= 0 IOpClX= 0 NMat=1 NMatS=1 NMatT=0.
 ***** Axes restored to original set *****
 -------------------------------------------------------------------
 Center     Atomic                   Forces (Hartrees/Bohr)
 Number     Number              X              Y              Z
 -------------------------------------------------------------------
      1        7           0.020524298    0.008717558    0.001248735
      2        6          -0.000989399   -0.005400461   -0.014549962
      3        6          -0.022613860   -0.003112635   -0.032571504
      4        6           0.004721274   -0.006992503   -0.006943619
      5        6          -0.005503910    0.010152122   -0.009662995
      6        6           0.003319953   -0.008786511    0.001882528
      7        7          -0.004138276    0.009545341   -0.002926992
      8        6           0.007732934    0.008971121   -0.002684370
      9        7           0.018936357   -0.013604372    0.016959002
     10        6           0.026452425    0.010376077   -0.000286102
     11        6          -0.009040929   -0.017640184   -0.001422595
     12        6          -0.004673722   -0.012202344   -0.016663079
     13       16          -0.000139317    0.015075596    0.000332717
     14        6          -0.015547645   -0.016206648    0.014950805
     15        7           0.018928481   -0.002914404    0.003891863
     16        6          -0.012174303    0.015254083   -0.007505101
     17        1          -0.006292499    0.028733375   -0.010902634
     18        1          -0.004651386   -0.009710135    0.040056417
     19        1          -0.003374168    0.005485703   -0.000406734
     20        1          -0.002118523    0.000062472    0.000517588
     21        1          -0.001708000   -0.004976377    0.004142124
     22        1          -0.006963602    0.000575085    0.010477447
     23        1           0.013785397   -0.004044933    0.000320633
     24        1          -0.014471578   -0.007357027    0.011745828
 -------------------------------------------------------------------
 Cartesian Forces:  Max     0.040056417 RMS     0.012272225

 GradGradGradGradGradGradGradGradGradGradGradGradGradGradGradGradGradGrad
 Berny optimization.
 Using GEDIIS/GDIIS optimizer.
 FormGI is forming the generalized inverse of G from B-inverse, IUseBI=4.
 Internal  Forces:  Max     0.057893019 RMS     0.015827722
 Search for a local minimum.
 Step number   2 out of a maximum of  134
 All quantities printed in internal units (Hartrees-Bohrs-Radians)
 Mixed Optimization -- RFO/linear search
 Update second derivatives using D2CorX and points    1    2
 DE= -7.20D-02 DEPred=-7.09D-02 R= 1.02D+00
 TightC=F SS=  1.41D+00  RLast= 3.64D-01 DXNew= 5.0454D-01 1.0919D+00
 Trust test= 1.02D+00 RLast= 3.64D-01 DXMaxT set to 5.05D-01
 ITU=  1  0
 Use linear search instead of GDIIS.
 Linear search step of   0.601 exceeds DXMaxT=   0.505 but not scaled.
 Quartic linear search produced a step of  2.00000.
 Iteration  1 RMS(Cart)=  0.19585074 RMS(Int)=  0.01863867
 Iteration  2 RMS(Cart)=  0.02952520 RMS(Int)=  0.00403409
 Iteration  3 RMS(Cart)=  0.00089746 RMS(Int)=  0.00400600
 Iteration  4 RMS(Cart)=  0.00000382 RMS(Int)=  0.00400600
 Iteration  5 RMS(Cart)=  0.00000003 RMS(Int)=  0.00400600
 Variable       Old X    -DE/DX   Delta X   Delta X   Delta X     New X
                                 (Linear)    (Quad)   (Total)
    R1        2.39840  -0.03752  -0.08349   0.00000  -0.08349   2.31490
    R2        1.89775  -0.00263  -0.01067   0.00000  -0.01067   1.88708
    R3        3.12924  -0.01011   0.01209   0.00000   0.01169   3.14092
    R4        3.11841  -0.04247  -0.14977   0.00000  -0.14873   2.96969
    R5        2.61812   0.01653   0.05377   0.00000   0.05241   2.67053
    R6        2.09348  -0.00989  -0.03157   0.00000  -0.03157   2.06192
    R7        2.77839  -0.01752  -0.05740   0.00000  -0.05738   2.72102
    R8        2.70265   0.01363   0.04053   0.00000   0.03860   2.74125
    R9        2.55361   0.00275   0.00794   0.00000   0.00793   2.56153
   R10        2.05155  -0.00245  -0.00925   0.00000  -0.00925   2.04230
   R11        2.60902   0.00632   0.01919   0.00000   0.01922   2.62824
   R12        2.05446  -0.00084  -0.00179   0.00000  -0.00179   2.05267
   R13        2.43687  -0.00513  -0.01116   0.00000  -0.01107   2.42579
   R14        2.59866  -0.00064  -0.00154   0.00000  -0.00151   2.59715
   R15        2.07727  -0.00637  -0.02077   0.00000  -0.02077   2.05651
   R16        2.62243   0.01699   0.04173   0.00000   0.04118   2.66361
   R17        2.47585   0.02605   0.06802   0.00000   0.06949   2.54534
   R18        2.06545  -0.00357  -0.01014   0.00000  -0.01014   2.05531
   R19        2.66773   0.03487   0.12539   0.00000   0.12569   2.79342
   R20        2.04408  -0.00116  -0.00421   0.00000  -0.00421   2.03987
   R21        3.17871   0.01688   0.05219   0.00000   0.05326   3.23197
   R22        2.60542  -0.00769  -0.00957   0.00000  -0.00528   2.60014
   R23        3.24615   0.02174   0.07549   0.00000   0.07315   3.31930
   R24        2.50566  -0.03943  -0.10335   0.00000  -0.10560   2.40006
   R25        2.05700  -0.00419  -0.01296   0.00000  -0.01296   2.04403
   R26        2.76292  -0.03625  -0.07771   0.00000  -0.07690   2.68602
    A1        2.58977  -0.05789  -0.20569   0.00000  -0.20569   2.38407
    A2        1.78761   0.03521   0.17369   0.00000   0.17387   1.96148
    A3        2.31278  -0.05198  -0.20943   0.00000  -0.21343   2.09935
    A4        2.14977   0.01860   0.05157   0.00000   0.05358   2.20335
    A5        2.64478  -0.02462  -0.08816   0.00000  -0.08621   2.55857
    A6        1.65810   0.01152   0.05645   0.00000   0.05877   1.71687
    A7        1.79178   0.01286   0.05679   0.00000   0.06230   1.85408
    A8        2.08708  -0.01241  -0.04703   0.00000  -0.04681   2.04027
    A9        2.24553   0.01749   0.07350   0.00000   0.07103   2.31656
   A10        1.94066  -0.00412  -0.01861   0.00000  -0.01831   1.92234
   A11        2.10770   0.00535   0.01911   0.00000   0.01906   2.12676
   A12        2.09438  -0.00843  -0.03672   0.00000  -0.03673   2.05765
   A13        2.08059   0.00305   0.01733   0.00000   0.01738   2.09797
[...]
 0,0.00066817,0.00030625,0.00063480,-0.00041699,0.00014010,-0.00080889,
 0.00042711,-0.00092266,-0.00012313,-0.00042234,-0.00070843,-0.00087086
 ,0.00010330,-0.00207604,0.00129370,0.00555861,-0.03340062,0.00208309,0
 .01096873,-0.17874278,-0.04177330,0.10733236,-0.01106853,-0.01878454,0
 .03273837,-0.02011273,0.05528638,-0.05775787,-0.21225639,0.05299480,-0
 .00079532,0.54740619,-0.01312800,0.00241866,0.03418189,0.01638758,-0.1
 1289022,0.03082769,0.00285100,-0.00797252,0.00835939,0.00021980,0.0004
 7756,0.00007785,-0.00007777,-0.00049539,-0.00030998,0.00031853,0.00039
 045,-0.00033640,-0.00007218,-0.00062254,0.00029331,-0.00044048,0.00027
 710,0.00005236,0.00023530,-0.00074293,0.00118264,-0.00061716,-0.000618
 41,-0.00161813,0.01355862,0.00237937,-0.00704456,-0.05905927,-0.099188
 32,0.07399652,0.01620193,-0.01353263,0.01877597,0.02473483,-0.03972151
 ,0.04496294,0.05341730,-0.10049178,0.00606055,-0.05928344,0.37126046,0
 .03058140,0.03484755,-0.02378308,-0.00935278,0.04142861,-0.10093291,-0
 .00011829,-0.00059484,0.00197069,-0.00521087,-0.00068559,0.00051733,0.
 00180453,0.00001927,-0.00022905,-0.00125439,-0.00126802,0.00054096,-0.
 00005133,0.00207939,-0.00096114,0.00206161,-0.00096516,0.00033460,0.00
 304942,0.00405300,-0.00233290,-0.00743627,-0.00183934,-0.00648564,0.01
 625967,-0.00593970,0.00738320,0.11593739,0.06485663,-0.19905739,-0.011
 89785,0.03783607,-0.03302365,-0.01899515,0.02942931,-0.02363469,0.0009
 3516,0.00707184,-0.08124499,-0.11425730,-0.21202648,0.46289261,-0.2217
 5653,0.15034584,-0.04715202,-0.03562494,0.02767820,-0.00633032,-0.0032
 3566,-0.00027147,0.00587576,0.00092804,0.00163149,0.00089531,-0.000444
 96,-0.00025621,-0.00045663,0.00013651,0.00017454,-0.00024803,0.0000423
 8,-0.00027425,0.00015168,-0.00031012,0.00001254,-0.00024941,-0.0000503
 2,-0.00051988,0.00011639,0.00008487,0.00061689,0.00009308,-0.00034769,
 -0.00011179,-0.00017092,-0.00062043,0.00058163,0.00017293,0.00028450,0
 .00088362,-0.00073752,0.00062349,-0.00020070,-0.00050146,0.00064967,0.
 00138021,-0.00205526,-0.00247195,-0.00135031,-0.00236102,0.26183135,0.
 19062843,-0.19204635,0.05317932,-0.00820784,0.00109510,0.00492581,0.00
 090432,0.00468868,0.00533339,0.00367027,0.00095263,0.00024290,-0.00113
 562,0.00020713,-0.00102277,0.00112446,0.00054526,-0.00048097,-0.000456
 41,-0.00107518,0.00053431,-0.00039874,0.00057867,-0.00031568,-0.000604
 79,-0.00128885,0.00100041,0.00015198,0.00081952,-0.00011527,-0.0006455
 6,-0.00033967,-0.00017775,0.00121686,0.00068114,-0.00086656,0.00143608
 ,0.00057931,-0.00000033,0.00002090,-0.00139939,0.00105686,-0.00373947,
 -0.00164707,0.00198603,-0.00419430,-0.00469776,-0.00195333,-0.18009536
 ,0.19143208,-0.08670459,0.07539919,-0.06091907,0.02517433,-0.01321008,
 0.00152826,0.00468654,0.00518116,0.00448094,0.00158711,0.00009667,0.00
 182234,-0.00010072,0.00003431,-0.00080511,0.00030527,-0.00003266,-0.00
 019205,-0.00027529,-0.00010843,0.00010247,0.00021462,-0.00004231,-0.00
 032232,-0.00042534,-0.00060507,0.00003234,-0.00015761,0.00025557,0.000
 11104,0.00034201,-0.00027308,-0.00016954,-0.00039678,-0.00010513,0.001
 05525,-0.00121343,0.00053721,0.00154770,-0.00050396,0.00093159,-0.0016
 8655,0.00304525,0.00009730,-0.00223606,0.00076320,-0.00492490,-0.00575
 393,0.05340611,-0.06256349,0.06189806,-0.00242202,0.00163970,-0.002631
 19,0.00469210,0.02023161,-0.01070201,-0.09463333,-0.09052980,0.0592233
 8,-0.01593879,-0.02297652,0.01472996,-0.00085991,-0.00248815,0.0004286
 3,-0.00031227,-0.00008677,-0.00004971,0.00008178,0.00102832,-0.0004651
 2,0.00098284,-0.00198398,0.00106052,-0.00611488,0.00144763,0.00069109,
 -0.00045918,0.00084341,-0.00011748,-0.00019932,-0.00002901,-0.00007148
 ,0.00010641,-0.00004402,-0.00002143,-0.00000306,-0.00004420,-0.0000863
 2,-0.00025845,0.00013995,-0.00017833,-0.00046509,0.00083043,-0.0010428
 3,-0.00222823,0.00123930,0.00221360,0.00028582,0.00013126,0.00050540,0
 .11856485,-0.00106608,0.00087532,-0.00057408,-0.00647536,-0.01910043,0
 .01530161,-0.08887376,-0.21128991,0.11014567,-0.00233110,0.00075051,0.
 00049585,0.00396642,-0.00143105,-0.00281998,-0.00085638,-0.00044439,-0
 .00028971,0.00029588,0.00101144,-0.00054189,0.00095042,-0.00007599,0.0
 0098835,0.00217492,0.00283749,0.00202672,0.00014782,-0.00060532,0.0006
 0541,-0.00014568,-0.00015435,0.00003220,0.00004494,0.00006557,-0.00016
 678,0.00005577,-0.00019220,0.00017301,0.00027366,-0.00014689,0.0000278
 2,0.00030158,-0.00052133,0.00091361,0.00242337,0.00011023,-0.00097781,
 -0.00029274,0.00081598,-0.00056546,0.08919356,0.22665007,0.00379723,-0
 .00233513,-0.00120840,-0.00166346,0.01130881,-0.00125976,0.06491660,0.
 11170066,-0.10178200,-0.00199232,0.00232130,-0.00050797,-0.00144832,-0
 .00224134,-0.00391050,-0.00058293,-0.00063309,-0.00032730,0.00008732,0
 .00014079,-0.00035362,0.00003080,0.00058332,0.00147475,-0.00016098,0.0
 0294486,0.00503026,0.00066063,-0.00001102,0.00002982,0.00010453,0.0001
 2484,0.00035879,-0.00004592,-0.00014369,-0.00008987,-0.00003621,-0.000
 12221,-0.00007124,-0.00018661,-0.00004960,-0.00004696,0.00003490,0.000
 35246,0.00005000,0.00003197,0.00183419,0.00126099,-0.00042702,-0.00072
 318,-0.00078835,-0.06298076,-0.12530723,0.10111288,0.00010253,-0.00009
 423,0.00005323,0.00001800,0.00001532,-0.00001467,0.00061771,0.00093835
 ,-0.00067422,0.00896680,0.01045367,-0.00533215,-0.14587743,-0.11724072
 ,0.06415339,-0.01208346,-0.02601984,0.01344514,-0.00511988,0.00120984,
 0.00044103,-0.00164489,0.00197644,-0.00085753,0.00009755,0.00319740,-0
 .00109815,0.00030915,0.00060639,-0.00062343,0.00015355,0.00022171,-0.0
 0003863,-0.00008671,-0.00018199,0.00006501,0.00001990,-0.00001181,0.00
 002817,-0.00001836,-0.00000884,0.00002089,-0.00006096,-0.00001290,0.00
 003945,0.00012960,0.00000900,-0.00007167,-0.00000205,-0.00002622,-0.00
 002481,-0.00040281,0.00029145,0.00004299,0.15394955,0.00005964,-0.0000
 2563,-0.00007081,0.00014701,0.00030311,-0.00048111,-0.00145809,0.00001
 257,-0.00004103,-0.01655182,-0.01353809,0.00830657,-0.11672855,-0.2040
 6474,0.08939908,0.00349698,0.00459981,-0.00191729,0.00127758,0.0042698
 0,0.00311510,0.00224770,-0.00059098,0.00020218,0.00263515,-0.00224515,
 0.00336840,-0.00074272,-0.00036935,0.00048093,-0.00021792,-0.00030553,
 -0.00008202,0.00012939,0.00023023,-0.00010330,-0.00001833,0.00001372,-
 0.00008494,0.00006247,-0.00001741,-0.00001776,0.00002766,-0.00002480,-
 0.00012141,-0.00006638,0.00000159,0.00026988,0.00001245,0.00005284,0.0
 0004424,0.00116392,0.00045384,-0.00024544,0.12503592,0.21197214,-0.000
 02999,-0.00003202,0.00000685,-0.00030720,-0.00036190,-0.00028118,0.000
 57046,-0.00091752,-0.00069583,0.00704025,0.00693024,-0.00214758,0.0641
 9777,0.08939662,-0.08238056,-0.00083618,-0.00002916,0.00126761,0.00028
 269,0.00311838,0.00925464,-0.00062595,0.00013636,0.00005149,-0.0012103
 9,0.00390470,0.00354477,0.00044647,-0.00035051,-0.00046436,0.00011952,
 0.00019924,0.00005468,-0.00004505,-0.00012751,0.00000588,0.00001059,-0
 .00001480,-0.00001217,0.00000311,-0.00004060,0.00004441,-0.00007170,0.
 00007621,-0.00001272,0.00017069,-0.00001661,0.00001756,0.00003794,-0.0
 0000032,0.00004720,-0.00039208,0.00011870,0.00061635,-0.06919896,-0.09
 913652,0.07644360,-0.00013767,0.00003433,0.00000290,-0.00010130,-0.000
 18696,-0.00006954,-0.00007546,0.00128537,-0.00054619,-0.00505137,-0.00
 130076,0.00166334,-0.01051519,0.02672116,-0.01186723,-0.12052925,0.110
 01952,-0.04812230,0.01075125,-0.02081492,0.00948759,-0.00134735,-0.004
 37163,0.00244923,0.00017835,-0.00029935,0.00006298,0.00017541,-0.00001
 257,-0.00010228,0.00001772,0.00005804,0.00000575,-0.00001293,-0.000042
 84,0.00001478,0.00000192,0.00000743,-0.00000576,-0.00002334,0.00000217
 ,0.00000905,-0.00001264,0.00004747,-0.00003007,-0.00005576,0.00000842,
 0.00001974,-0.00001138,0.00003549,0.00004113,-0.00001036,-0.00001225,0
 .00002201,0.00078404,-0.00039938,-0.00018874,0.12557873,0.00017694,-0.
 00004781,-0.00008061,-0.00029686,-0.00019889,-0.00055557,0.00037334,-0
 .00001055,0.00002916,-0.00088322,0.00316705,0.00365198,-0.00013848,0.0
 0144679,0.00239439,0.10866367,-0.23101511,0.08385950,0.00420741,-0.022
 14963,0.01111609,-0.00345597,-0.00080087,0.00295769,0.00085005,-0.0000
 4117,-0.00038012,-0.00001211,0.00022004,-0.00047190,-0.00006360,-0.000
 03846,0.00001424,-0.00002107,0.00003992,-0.00002900,0.00001117,-0.0000
 1576,-0.00000796,0.00001685,-0.00000409,0.00000062,0.00003301,-0.00001
 988,0.00000215,-0.00004265,0.00002080,0.00004944,0.00003984,0.00007283
 ,0.00007641,0.00005991,0.00009463,0.00023074,0.00003552,-0.00040331,-0
 .00215153,-0.11012363,0.25036550,0.00006377,-0.00010884,0.00000173,-0.
 00012624,-0.00059115,-0.00119082,-0.00035346,-0.00007242,0.00017885,0.
 00137054,0.00395376,0.00858805,0.00143901,0.00054628,0.00597290,-0.047
 65341,0.08389623,-0.08012802,-0.00252649,0.01263390,-0.00443728,0.0018
 8557,0.00288974,0.00342965,-0.00018390,-0.00034834,-0.00046954,-0.0001
 5310,-0.00058100,-0.00069376,-0.00009325,0.00015085,-0.00001020,-0.000
 02890,-0.00003460,-0.00001991,-0.00001405,0.00000330,-0.00000309,-0.00
 002067,0.00000767,-0.00000499,-0.00000285,0.00003155,0.00000378,-0.000
 03284,0.00006501,0.00001963,0.00011217,0.00012925,0.00013225,0.0000656
 9,0.00028466,0.00046470,-0.00041244,-0.00212673,-0.00382700,0.04685798
 ,-0.10107454,0.07186404,-0.00029582,0.00021542,-0.00003247,0.00044794,
 -0.00038248,0.00014163,-0.00047460,-0.00161034,0.00083912,-0.00277558,
 0.00503412,-0.00206746,0.00016747,0.00052547,-0.00030956,0.00041405,0.
 00318204,-0.00087520,0.01335681,0.01428452,-0.00757469,-0.13742833,-0.
 10978714,0.05724629,-0.02659311,-0.02620735,0.01426137,0.00192636,-0.0
 0126514,0.00124345,-0.00056989,0.00006364,-0.00057123,0.00003268,0.000
 16642,-0.00020671,-0.00000892,-0.00000473,-0.00007984,0.00003216,0.000
 00585,-0.00001777,0.00011002,-0.00002005,-0.00011025,-0.00010830,-0.00
 003843,0.00024513,-0.00002594,-0.00001677,0.00001915,-0.00049071,0.000
 06372,0.00002026,0.00014920,-0.00018409,-0.00002861,0.00041939,0.00049
 059,-0.00025888,0.15210140,-0.00007747,0.00000569,0.00003139,0.0000551
 6,-0.00007745,-0.00001386,-0.00008124,0.00049761,-0.00010965,0.0020748
 7,0.00133204,0.00183168,-0.00006258,-0.00026338,-0.00034892,0.00282686
 ,0.00095204,0.00502208,-0.00832808,-0.02662883,0.01267589,-0.11399534,
 -0.20100213,0.08097101,0.00328437,0.00608475,-0.00010475,-0.00007028,0
 .00019826,-0.00121877,-0.00000086,0.00034073,0.00001877,-0.00010372,-0
 .00016125,0.00002666,0.00000931,0.00002050,0.00001763,-0.00004869,-0.0
 0000345,0.00002385,-0.00000664,0.00008482,0.00000974,-0.00000732,0.000
 01839,-0.00010617,0.00000592,-0.00001176,-0.00000801,0.00013987,0.0000
 1648,-0.00002727,-0.00036899,-0.00029570,-0.00076406,-0.00064972,-0.00
 057957,0.00040960,0.11543489,0.21943508,0.00011389,-0.00002139,-0.0000
 2777,-0.00009776,0.00003813,-0.00009351,0.00008059,-0.00019865,0.00037
 520,-0.00067756,0.00162189,0.00458943,-0.00004168,-0.00016383,-0.00083
 135,-0.00054131,0.00492056,0.00947201,0.00281317,0.01120396,-0.0069890
 7,0.06061145,0.08070204,-0.08529934,-0.00036414,0.00213001,0.00465579,
 -0.00041721,-0.00135203,-0.00105314,-0.00008750,-0.00012383,0.00003421
 ,-0.00004402,0.00007935,-0.00007794,-0.00000899,-0.00000852,0.00001144
 ,0.00000376,0.00000573,-0.00001422,0.00001491,-0.00002422,-0.00000030,
 0.00003164,0.00001140,0.00001735,-0.00000772,0.00000907,-0.00000541,-0
 .00009332,0.00000051,0.00001942,0.00002632,-0.00076846,-0.00155046,0.0
 0029092,0.00036036,0.00006903,-0.06184879,-0.09829468,0.07668116,0.000
 54200,-0.00016302,-0.00039374,-0.00095754,-0.00024596,0.00029073,0.000
 33862,0.00018200,-0.00027846,0.00052676,-0.00049003,0.00184893,-0.0004
 1478,0.00043249,-0.00025252,0.00048946,-0.00016112,0.00012006,-0.00168
 893,-0.00010873,-0.00113854,0.00251001,0.00172708,0.00019675,-0.008303
 58,0.01706586,0.00953866,-0.06377000,0.06144459,0.06122429,0.00629094,
 -0.00615542,-0.00978025,-0.00205466,-0.00402080,-0.00092412,0.00051214
 ,-0.00056507,0.00063195,-0.00008957,0.00018282,-0.00009038,0.00021487,
 -0.00020960,0.00034880,-0.00174196,0.00046771,-0.00176002,-0.00008199,
 0.00009147,-0.00012505,0.00002452,-0.00010217,-0.00023314,-0.00000729,
 0.00004539,0.00003954,-0.00001709,0.00006086,0.00006276,-0.00036043,0.
 00006695,0.00031335,0.06551310,-0.00053147,0.00038301,0.00002285,0.000
 57537,-0.00111540,0.00000072,-0.00218267,0.00097273,-0.00085887,0.0055
 2015,0.00167017,-0.00076352,-0.00102102,0.00066120,0.00039651,0.002112
 47,0.00183916,-0.00132941,0.00126396,-0.00336207,0.00279029,-0.0066999
 8,-0.00087478,-0.00254154,0.01889523,-0.02370763,-0.00839892,0.0522326
 1,-0.14931100,-0.12687659,0.00272624,0.00375517,0.00268300,-0.00199223
 ,-0.00143637,0.00212831,0.00062095,-0.00024164,0.00041113,-0.00009582,
 -0.00004854,0.00022275,0.00032572,0.00007340,-0.00011611,-0.00069067,0
 .00001765,-0.00039544,-0.00006755,-0.00007304,-0.00001756,0.00002047,0
 .00030960,0.00025899,-0.00005203,-0.00003632,0.00004864,-0.00000946,-0
 .00012125,-0.00006994,0.00004995,0.00009577,-0.00008477,-0.07462686,0.
 16542902,-0.00008444,0.00012841,0.00009357,0.00048615,-0.00010086,0.00
 016957,0.00051102,-0.00081168,-0.00043136,-0.00181307,0.00004517,0.000
 41603,0.00029572,-0.00055962,-0.00017005,-0.00084387,-0.00028519,0.000
 31013,-0.00017728,0.00094268,-0.00131047,0.00121334,0.00027745,0.00090
 142,-0.00596835,0.01215334,0.01157872,0.05410526,-0.12737440,-0.198744
 85,0.00942211,-0.01813152,-0.01863055,0.00283554,0.00093019,-0.0004558
 6,-0.00034891,0.00024634,-0.00032126,0.00007806,-0.00020660,0.00010415
 ,-0.00047081,0.00028817,-0.00005614,0.00033867,-0.00003247,0.00084031,
 -0.00003738,-0.00002568,0.00001042,0.00002467,0.00006801,-0.00001901,0
 .00004367,0.00002069,0.00001330,0.00000645,0.00003114,0.00005545,0.000
 01142,-0.00002627,0.00002361,-0.05561650,0.13394870,0.20800213,0.00036
 322,-0.00054296,0.00011902,-0.00066786,0.00105405,-0.00001118,0.000067
 21,-0.00014838,0.00009296,0.00001080,-0.00029033,0.00039269,0.00008364
 ,-0.00010153,-0.00000840,-0.00013481,-0.00013620,0.00003366,-0.0003191
 0,0.00031895,-0.00003416,0.00030106,0.00028360,-0.00048771,-0.00246161
 ,-0.00168083,0.00142091,0.00683540,-0.01081396,-0.01687996,-0.06804937
 ,0.05759689,0.06174121,-0.01213846,0.01701428,0.01864301,0.00101886,-0
 .00058754,0.00130550,-0.00180320,-0.00067637,0.00115756,-0.00182281,-0
 .00000866,-0.00193653,0.00059840,0.00275365,-0.00157521,0.00011345,0.0
 0006988,-0.00006840,0.00004724,-0.00000049,0.00003410,0.00000563,0.000
 01923,0.00001924,-0.00000212,0.00001140,0.00000562,-0.00003665,-0.0000
 9329,-0.00007351,0.00245536,0.00356690,-0.00395471,0.07547153,0.000111
 75,-0.00012878,-0.00006253,0.00005951,0.00052178,0.00023606,0.00003539
 ,0.00000335,0.00007760,0.00037904,-0.00024555,0.00035522,-0.00017375,-
 0.00009453,-0.00001101,-0.00003495,-0.00010392,0.00003762,-0.00044450,
 0.00016394,-0.00005229,0.00032826,0.00093108,-0.00059841,-0.00551747,-
 0.00067820,0.00112162,0.00195614,0.00187170,-0.00650549,0.06692869,-0.
 15416443,-0.12846736,-0.00241746,-0.00171547,-0.00776788,0.00020216,-0
 .00039548,0.00066260,0.00044280,0.00039547,-0.00048542,0.00051945,-0.0
 0025416,-0.00016821,0.00002516,-0.00031719,-0.00109417,-0.00000944,-0.
 00000081,-0.00006073,0.00003147,0.00004854,0.00004826,0.00003249,-0.00
 001472,0.00001023,0.00000169,0.00001868,0.00000685,-0.00002252,-0.0000
 4824,-0.00004490,0.00506448,0.00512256,-0.00150884,-0.06758069,0.14892
 801,-0.00042483,0.00028233,0.00010440,0.00059522,-0.00056159,-0.000238
 21,-0.00024698,0.00001757,-0.00004816,0.00055915,0.00043964,-0.0006010
 6,-0.00010553,0.00010218,-0.00000300,0.00016748,0.00023613,-0.00014742
 ,0.00021575,-0.00048789,0.00013662,-0.00094463,0.00016190,0.00001980,0
 .00297567,-0.00028917,0.00276349,0.00997149,-0.01918798,-0.01295773,0.
 04930361,-0.12453467,-0.19810620,0.00339410,0.00156401,0.00543411,0.00
 000966,0.00071572,-0.00100354,0.00000603,-0.00041914,0.00019102,-0.000
 38760,-0.00004384,0.00030368,-0.00100477,-0.00060602,0.00146071,-0.000
 04336,-0.00002344,0.00002651,-0.00003875,0.00000542,0.00000893,-0.0000
 1595,-0.00001335,0.00000234,0.00000454,-0.00002402,0.00000717,-0.00004
 782,-0.00000856,-0.00001004,-0.00400854,-0.00139817,-0.00241563,-0.059
 87549,0.14414043,0.20514866,0.00003559,0.00008885,-0.00002199,0.000233
 55,0.00010701,0.00010785,0.00000596,-0.00009608,0.00003702,-0.00016312
 ,-0.00001143,0.00003168,0.00003923,-0.00000372,0.00000190,-0.00003938,
 -0.00005466,0.00002848,-0.00004336,0.00010834,-0.00002946,0.00013442,-
 0.00003364,-0.00006099,-0.00020830,0.00002454,-0.00004569,-0.00016467,
 -0.00012137,0.00029132,0.00060534,0.00081079,-0.00090854,-0.00196307,-
 0.00140122,0.00356272,-0.01206475,0.00767684,-0.00375730,-0.24728670,0
 .13524398,-0.05808189,0.00478729,-0.00317511,-0.00167913,0.00345858,0.
 00166408,0.00123452,0.00000388,0.00003967,-0.00009417,0.00001285,-0.00
 002749,-0.00002564,0.00000061,0.00000679,-0.00000340,-0.00000359,0.000
 00702,-0.00000264,0.00001080,-0.00000398,0.00000351,0.00007004,0.00005
 973,-0.00005675,0.00006419,0.00008229,-0.00005848,0.25247461,0.0000048
 8,-0.00008762,0.00014755,0.00084578,0.00065577,-0.00000043,-0.00012006
 ,-0.00018490,0.00002634,-0.00031005,0.00001301,0.00006309,0.00011193,0
 .00002982,0.00002369,-0.00006783,-0.00007616,0.00003533,-0.00002320,0.
 00014291,-0.00004815,0.00014442,-0.00009882,-0.00006283,0.00020291,0.0
 0012708,-0.00005785,-0.00037301,-0.00087858,-0.00002163,0.00147023,0.0
 0144751,0.00049428,-0.00225077,0.00105473,0.00116584,-0.00422606,0.002
 11518,-0.00133364,0.13064867,-0.11762672,0.04720160,0.01367628,-0.0148
 0142,0.00438725,0.00112062,0.00391893,0.00590505,0.00008651,0.00005871
 ,-0.00013674,0.00004166,-0.00007785,-0.00001002,-0.00000594,0.00002208
 ,0.00000376,0.00000240,0.00000013,-0.00000109,0.00002240,-0.00001037,0
 .00000227,0.00001707,-0.00000141,-0.00001717,-0.00002759,0.00015636,-0
 .00006751,-0.14099124,0.12410163,0.00010422,0.00003366,0.00006977,-0.0
 0120185,0.00045077,0.00076061,-0.00006222,0.00008877,-0.00029948,0.000
 16004,0.00015729,-0.00006538,-0.00008835,0.00005164,0.00002681,0.00009
 132,0.00006744,-0.00003552,-0.00000797,-0.00010501,0.00003822,-0.00006
 091,-0.00003801,-0.00001195,0.00034985,0.00001138,0.00014242,-0.000110
 17,-0.00078674,-0.00019302,0.00054722,0.00038429,0.00224379,0.00332945
 ,0.00143998,-0.00305284,0.01130571,-0.00783339,0.00343329,-0.05144593,
 0.04490155,-0.05837853,-0.02418336,0.01264796,-0.00967051,0.00197759,0
 .00623384,0.00018343,-0.00008329,-0.00012857,0.00008360,-0.00007215,0.
 00005539,-0.00006190,0.00000331,0.00000309,0.00000117,-0.00000628,0.00
 000132,-0.00000261,0.00000147,-0.00000734,0.00000391,-0.00001455,-0.00
 006105,0.00003637,-0.00006023,0.00013073,-0.00007646,0.05952708,-0.057
 69899,0.06482479\\0.00001028,-0.00000415,0.00000332,-0.00001042,-0.000
 00001,-0.00000033,-0.00000088,0.00000079,-0.00000812,-0.00001473,0.000
 00241,0.00000532,0.00000625,-0.00000308,0.00000088,-0.00000100,0.00000
 695,-0.00000449,0.00000590,-0.00000928,0.00000510,-0.00002009,0.000012
 24,-0.00000587,0.00002392,-0.00002378,0.00001667,-0.00002501,0.0000271
 5,-0.00002175,0.00002212,-0.00001923,-0.00000094,-0.00002529,0.0000275
 0,-0.00001003,0.00000096,-0.00001401,0.00001465,0.00000858,0.00000343,
 -0.00000497,-0.00001602,0.00000126,-0.00000294,0.00002788,-0.00001124,
 0.00000680,0.00000017,0.00000472,-0.00000330,0.00000046,0.00000077,0.0
 0000082,-0.00000058,-0.00000013,0.00000063,-0.00000065,-0.00000158,-0.
 00000019,0.00000296,-0.00000102,0.00000177,0.00000952,-0.00000734,0.00
 000520,-0.00000344,0.00000641,0.00000218,-0.00000086,0.00000120,-0.000
 00040\\\@


 WE STILL HAVE JUDGEMENT HERE,
 THAT WE TEACH BUT BLOODY INSTRUCTIONS,
 WHICH, BEING TAUGHT,
 RETURN TO PLAGUE THE INVENTOR.
           MACBETH ACT I, SCENE VII
 Job cpu time:       0 days  8 hours  3 minutes 26.9 seconds.
 Elapsed time:       0 days  2 hours  0 minutes 53.2 seconds.
 File lengths (MBytes):  RWF=    451 Int=      0 D2E=      0 Chk=     20 Scr=      1
 Normal termination of Gaussian 16 at Fri May 19 20:14:01 2023.
### All Done ###
