### Starting Gaussian ###
 Entering Gaussian System, Link 0=g16
 Initial command:
 /cluster/software/gaussian/gaussian-16-A.03/avx2/g16/l1.exe "/local/scratch/linjian/Gau-3880.inp" -scrdir="/local/scratch/linjian/"
 Entering Link 1 = /cluster/software/gaussian/gaussian-16-A.03/avx2/g16/l1.exe PID=      3881.
  
 Copyright (c) 1988,1990,1992,1993,1995,1998,2003,2009,2016,
            Gaussian, Inc.  All Rights Reserved.
  
 This is part of the Gaussian(R) 16 program.  It is based on
 the Gaussian(R) 09 system (copyright 2009, Gaussian, Inc.),
 the Gaussian(R) 03 system (copyright 2003, Gaussian, Inc.),
 the Gaussian(R) 98 system (copyright 1998, Gaussian, Inc.),
 the Gaussian(R) 94 system (copyright 1995, Gaussian, Inc.),
 the Gaussian 92(TM) system (copyright 1992, Gaussian, Inc.),
 the Gaussian 90(TM) system (copyright 1990, Gaussian, Inc.),
 the Gaussian 88(TM) system (copyright 1988, Gaussian, Inc.),
 the Gaussian 86(TM) system (copyright 1986, Carnegie Mellon
 University), and the Gaussian 82(TM) system (copyright 1983,
 Carnegie Mellon University). Gaussian is a federally registered
 trademark of Gaussian, Inc.
  
 This software contains proprietary and confidential information,
 including trade secrets, belonging to Gaussian, Inc.
  
 This software is provided under written license and may be
 used, copied, transmitted, or stored only in accord with that
 written license.
  
 The following legend is applicable only to US Government
 contracts under FAR:
  
                    RESTRICTED RIGHTS LEGEND
  
 Use, reproduction and disclosure by the US Government is
 subject to restrictions as set forth in subparagraphs (a)
 and (c) of the Commercial Computer Software - Restricted
 Rights clause in FAR 52.227-19.
  
 Gaussian, Inc.
 340 Quinnipiac St., Bldg. 40, Wallingford CT 06492
  
  
 ---------------------------------------------------------------
 Warning -- This program may not be used in any manner that
 competes with the business of Gaussian, Inc. or will provide
 assistance to any competitor of Gaussian, Inc.  The licensee
 of this program is prohibited from giving any competitor of
 Gaussian, Inc. access to this program.  By using this program,
 the user acknowledges that Gaussian, Inc. is engaged in the
 business of creating and licensing software in the field of
 computational chemistry and represents and warrants to the
 licensee that it is not a competitor of Gaussian, Inc. and that
 it will not use this program in any manner prohibited above.
 ---------------------------------------------------------------
  

 Cite this work as:
 Gaussian 16, Revision A.03,
 M. J. Frisch, G. W. Trucks, H. B. Schlegel, G. E. Scuseria, 
 M. A. Robb, J. R. Cheeseman, G. Scalmani, V. Barone, 
 G. A. Petersson, H. Nakatsuji, X. Li, M. Caricato, A. V. Marenich, 
 J. Bloino, B. G. Janesko, R. Gomperts, B. Mennucci, H. P. Hratchian, 
 J. V. Ortiz, A. F. Izmaylov, J. L. Sonnenberg, D. Williams-Young, 
 F. Ding, F. Lipparini, F. Egidi, J. Goings, B. Peng, A. Petrone, 
 T. Henderson, D. Ranasinghe, V. G. Zakrzewski, J. Gao, N. Rega, 
 G. Zheng, W. Liang, M. Hada, M. Ehara, K. Toyota, R. Fukuda, 
 J. Hasegawa, M. Ishida, T. Nakajima, Y. Honda, O. Kitao, H. Nakai, 
 T. Vreven, K. Throssell, J. A. Montgomery, Jr., J. E. Peralta, 
 F. Ogliaro, M. J. Bearpark, J. J. Heyd, E. N. Brothers, K. N. Kudin, 
 V. N. Staroverov, T. A. Keith, R. Kobayashi, J. Normand, 
 K. Raghavachari, A. P. Rendell, J. C. Burant, S. S. Iyengar, 
 J. Tomasi, M. Cossi, J. M. Millam, M. Klene, C. Adamo, R. Cammi, 
 J. W. Ochterski, R. L. Martin, K. Morokuma, O. Farkas, 
 J. B. Foresman, and D. J. Fox, Gaussian, Inc., Wallingford CT, 2016.
 
 ******************************************
 Gaussian 16:  ES64L-G16RevA.03 25-Dec-2016
                16-May-2023 
 ******************************************
 %chk=NdC1CdCCqdSrSNSSNCdCS1.chk
 %NProcShared=20
 Will use up to   20 processors via shared memory.
 -----------------------------
 # opt freq b3lyp/6-31g(2df,p)
 -----------------------------
 1/18=20,19=15,26=3,38=1/1,3;
 2/9=110,12=2,17=6,18=5,40=1/2;
 3/5=1,6=6,7=104,11=2,25=1,30=1,71=1,74=-5/1,2,3;
 4//1;
 5/5=2,38=5/2;
 6/7=2,8=2,9=2,10=2,28=1/1;
 7//1,2,3,16;
 1/18=20,19=15,26=3/3(2);
 2/9=110/2;
 99//99;
 2/9=110/2;
 3/5=1,6=6,7=104,11=2,25=1,30=1,71=1,74=-5/1,2,3;
 4/5=5,16=3,69=1/1;
 5/5=2,38=5/2;
 7//1,2,3,16;
 1/18=20,19=15,26=3/3(-5);
 2/9=110/2;
 6/7=2,8=2,9=2,10=2,19=2,28=1/1;
 99/9=1/99;
 -------------------
 Title Card Required
 -------------------
 Symbolic Z-matrix:
 Charge =  0 Multiplicity = 1
 N                     1.01315  -0.04532   0.09519 
 C                     2.29877  -0.00807   0.02875 
 C                     3.13455   1.19775  -0.11403 
 C                     2.90377   2.25727   0.67467 
 C                     3.76004   3.45935   0.52943 
 S                     3.66417   4.54492  -0.74366 
 S                     4.84746   3.71763   1.89356 
 N                     5.8468    2.3977    1.75408 
 S                     6.06455   1.71931   3.25002 
 S                     7.30016   0.16991   2.69922 
 N                     6.28095  -1.13558   2.50918 
 C                     5.40583  -1.13492   1.45006 
 C                     4.09045  -1.39342   1.474 
 S                     3.18194  -1.51062   0.00596 
 H                     0.61191   0.89092   0.01953 
 H                     3.96002   1.16082  -0.81699 
 H                     2.14284   2.2687    1.44664 
 H                     6.75532   2.67801   1.3769 
 H                     5.90177  -1.53211   3.36652 
 H                     5.89951  -0.91155   0.50569 
 H                     3.56164  -1.54607   2.40994 
 

 GradGradGradGradGradGradGradGradGradGradGradGradGradGradGradGradGradGrad
 Berny optimization.
 Initialization pass.
                           ----------------------------
                           !    Initial Parameters    !
                           ! (Angstroms and Degrees)  !
 --------------------------                            --------------------------
 ! Name  Definition              Value          Derivative Info.                !
 --------------------------------------------------------------------------------
 ! R1    R(1,2)                  1.2879         estimate D2E/DX2                !
 ! R2    R(1,15)                 1.0214         estimate D2E/DX2                !
 ! R3    R(2,3)                  1.4741         estimate D2E/DX2                !
 ! R4    R(2,14)                 1.743          estimate D2E/DX2                !
 ! R5    R(3,4)                  1.3409         estimate D2E/DX2                !
 ! R6    R(3,16)                 1.0849         estimate D2E/DX2                !
 ! R7    R(4,5)                  1.483          estimate D2E/DX2                !
 ! R8    R(4,17)                 1.084          estimate D2E/DX2                !
 ! R9    R(5,6)                  1.6758         estimate D2E/DX2                !
 ! R10   R(5,7)                  1.7635         estimate D2E/DX2                !
 ! R11   R(7,8)                  1.6614         estimate D2E/DX2                !
 ! R12   R(8,9)                  1.6569         estimate D2E/DX2                !
 ! R13   R(8,18)                 1.0229         estimate D2E/DX2                !
 ! R14   R(9,10)                 2.0569         estimate D2E/DX2                !
 ! R15   R(10,11)                1.6671         estimate D2E/DX2                !
 ! R16   R(11,12)                1.3739         estimate D2E/DX2                !
 ! R17   R(11,19)                1.0179         estimate D2E/DX2                !
 ! R18   R(12,13)                1.3408         estimate D2E/DX2                !
 ! R19   R(12,20)                1.0888         estimate D2E/DX2                !
 ! R20   R(13,14)                1.7304         estimate D2E/DX2                !
 ! R21   R(13,21)                1.0858         estimate D2E/DX2                !
 ! A1    A(2,1,15)             111.2115         estimate D2E/DX2                !
 ! A2    A(1,2,3)              126.4875         estimate D2E/DX2                !
 ! A3    A(1,2,14)             118.786          estimate D2E/DX2                !
 ! A4    A(3,2,14)             114.6205         estimate D2E/DX2                !
 ! A5    A(2,3,4)              119.4604         estimate D2E/DX2                !
 ! A6    A(2,3,16)             117.7967         estimate D2E/DX2                !
 ! A7    A(4,3,16)             122.6158         estimate D2E/DX2                !
 ! A8    A(3,4,5)              118.9154         estimate D2E/DX2                !
 ! A9    A(3,4,17)             123.2323         estimate D2E/DX2                !
 ! A10   A(5,4,17)             117.8074         estimate D2E/DX2                !
 ! A11   A(4,5,6)              124.5025         estimate D2E/DX2                !
 ! A12   A(4,5,7)              113.5147         estimate D2E/DX2                !
 ! A13   A(6,5,7)              121.8725         estimate D2E/DX2                !
 ! A14   A(5,7,8)              100.9294         estimate D2E/DX2                !
 ! A15   A(7,8,9)              109.1789         estimate D2E/DX2                !
 ! A16   A(7,8,18)             110.3342         estimate D2E/DX2                !
 ! A17   A(9,8,18)             109.1712         estimate D2E/DX2                !
 ! A18   A(8,9,10)              98.3714         estimate D2E/DX2                !
 ! A19   A(9,10,11)            104.664          estimate D2E/DX2                !
 ! A20   A(10,11,12)           118.4846         estimate D2E/DX2                !
 ! A21   A(10,11,19)           115.9001         estimate D2E/DX2                !
 ! A22   A(12,11,19)           114.3443         estimate D2E/DX2                !
 ! A23   A(11,12,13)           127.6657         estimate D2E/DX2                !
 ! A24   A(11,12,20)           112.3291         estimate D2E/DX2                !
 ! A25   A(13,12,20)           119.9924         estimate D2E/DX2                !
 ! A26   A(12,13,14)           120.8642         estimate D2E/DX2                !
 ! A27   A(12,13,21)           121.3531         estimate D2E/DX2                !
 ! A28   A(14,13,21)           117.7798         estimate D2E/DX2                !
 ! A29   A(2,14,13)            101.3351         estimate D2E/DX2                !
 ! D1    D(15,1,2,3)             0.9887         estimate D2E/DX2                !
 ! D2    D(15,1,2,14)         -175.0535         estimate D2E/DX2                !
 ! D3    D(1,2,3,4)             47.6296         estimate D2E/DX2                !
 ! D4    D(1,2,3,16)          -136.3612         estimate D2E/DX2                !
 ! D5    D(14,2,3,4)          -136.1858         estimate D2E/DX2                !
 ! D6    D(14,2,3,16)           39.8234         estimate D2E/DX2                !
 ! D7    D(1,2,14,13)         -116.8154         estimate D2E/DX2                !
 ! D8    D(3,2,14,13)           66.6843         estimate D2E/DX2                !
 ! D9    D(2,3,4,5)            179.4341         estimate D2E/DX2                !
 ! D10   D(2,3,4,17)             1.9275         estimate D2E/DX2                !
 ! D11   D(16,3,4,5)             3.6256         estimate D2E/DX2                !
 ! D12   D(16,3,4,17)         -173.881          estimate D2E/DX2                !
 ! D13   D(3,4,5,6)             73.9847         estimate D2E/DX2                !
 ! D14   D(3,4,5,7)           -109.7839         estimate D2E/DX2                !
 ! D15   D(17,4,5,6)          -108.3732         estimate D2E/DX2                !
 ! D16   D(17,4,5,7)            67.8583         estimate D2E/DX2                !
 ! D17   D(4,5,7,8)             66.1465         estimate D2E/DX2                !
 ! D18   D(6,5,7,8)           -117.5105         estimate D2E/DX2                !
 ! D19   D(5,7,8,9)           -135.1222         estimate D2E/DX2                !
 ! D20   D(5,7,8,18)           104.8978         estimate D2E/DX2                !
 ! D21   D(7,8,9,10)           179.7643         estimate D2E/DX2                !
 ! D22   D(18,8,9,10)          -59.542          estimate D2E/DX2                !
 ! D23   D(8,9,10,11)          -96.0272         estimate D2E/DX2                !
 ! D24   D(9,10,11,12)          69.535          estimate D2E/DX2                !
 ! D25   D(9,10,11,19)         -72.1706         estimate D2E/DX2                !
 ! D26   D(10,11,12,13)       -131.0937         estimate D2E/DX2                !
 ! D27   D(10,11,12,20)         50.2228         estimate D2E/DX2                !
 ! D28   D(19,11,12,13)         11.1821         estimate D2E/DX2                !
 ! D29   D(19,11,12,20)       -167.5014         estimate D2E/DX2                !
 ! D30   D(11,12,13,14)       -173.3614         estimate D2E/DX2                !
 ! D31   D(11,12,13,21)          6.0052         estimate D2E/DX2                !
 ! D32   D(20,12,13,14)          5.2325         estimate D2E/DX2                !
 ! D33   D(20,12,13,21)       -175.4009         estimate D2E/DX2                !
 ! D34   D(12,13,14,2)        -105.8804         estimate D2E/DX2                !
 ! D35   D(21,13,14,2)          74.7309         estimate D2E/DX2                !
 --------------------------------------------------------------------------------
 Trust Radius=3.00D-01 FncErr=1.00D-07 GrdErr=1.00D-06 EigMax=2.50D+02 EigMin=1.00D-04
 Number of steps in this run=     95 maximum allowed number of steps=    126.
 GradGradGradGradGradGradGradGradGradGradGradGradGradGradGradGradGradGrad

                          Input orientation:                          
 ---------------------------------------------------------------------
 Center     Atomic      Atomic             Coordinates (Angstroms)
 Number     Number       Type             X           Y           Z
 ---------------------------------------------------------------------
      1          7           0        1.013150   -0.045320    0.095190
      2          6           0        2.298770   -0.008070    0.028750
      3          6           0        3.134550    1.197750   -0.114030
      4          6           0        2.903770    2.257270    0.674670
      5          6           0        3.760040    3.459350    0.529430
      6         16           0        3.664170    4.544920   -0.743660
      7         16           0        4.847460    3.717630    1.893560
      8          7           0        5.846800    2.397700    1.754080
      9         16           0        6.064550    1.719310    3.250020
     10         16           0        7.300160    0.169910    2.699220
     11          7           0        6.280950   -1.135580    2.509180
     12          6           0        5.405830   -1.134920    1.450060
     13          6           0        4.090450   -1.393420    1.474000
     14         16           0        3.181940   -1.510620    0.005960
     15          1           0        0.611910    0.890920    0.019530
     16          1           0        3.960020    1.160820   -0.816990
     17          1           0        2.142840    2.268700    1.446640
     18          1           0        6.755320    2.678010    1.376900
     19          1           0        5.901770   -1.532110    3.366520
     20          1           0        5.899510   -0.911550    0.505690
     21          1           0        3.561640   -1.546070    2.409940
 ---------------------------------------------------------------------
                    Distance matrix (angstroms):
                    1          2          3          4          5
     1  N    0.000000
     2  C    1.287874   0.000000
     3  C    2.467658   1.474081   0.000000
     4  C    3.035154   2.432078   1.340854   0.000000
     5  C    4.474001   3.795918   2.433128   1.483000   0.000000
     6  S    5.366738   4.815667   3.446807   2.797000   1.675832
     7  S    5.665321   4.884074   3.648873   2.719609   1.763531
     8  N    5.664312   4.620932   3.505141   3.137877   2.642241
     9  S    6.211563   5.248002   4.491521   4.112464   3.967381
    10  S    6.808362   5.672476   5.130608   5.271064   5.297250
    11  N    5.896247   4.825098   4.714392   5.126617   5.602480
    12  C    4.724250   3.597740   3.611986   4.285847   4.966236
    13  C    3.631565   2.686645   3.185867   3.921055   4.954872
    14  S    2.618915   1.743033   2.711441   3.836867   5.030787
    15  H    1.021403   1.911482   2.544739   2.747498   4.094820
    16  H    3.312233   2.200303   1.084858   2.131412   2.671344
    17  H    2.908145   2.686709   2.136847   1.084012   2.207772
    18  H    6.483195   5.375256   4.186170   3.937586   3.209424
    19  H    6.067186   5.142472   5.217650   5.531136   6.127867
    20  H    4.979496   3.742870   3.532450   4.363993   4.866484
    21  H    3.755678   3.103281   3.752516   4.231944   5.350692
                    6          7          8          9         10
     6  S    0.000000
     7  S    3.006578   0.000000
     8  N    3.951346   1.661430   0.000000
     9  S    5.449346   2.704547   1.656944   0.000000
    10  S    6.649403   4.387612   2.822870   2.056879   0.000000
    11  N    7.049581   5.097796   3.639056   2.957375   1.667096
    12  C    6.332959   4.904662   3.572994   3.438080   2.617531
    13  C    6.353236   5.183814   4.187577   4.091504   3.774573
    14  S    6.120788   5.802723   5.043051   5.409789   5.199766
    15  H    4.821874   5.426063   5.716916   6.391680   7.241083
    16  H    3.397799   3.830393   3.420557   4.613191   4.949967
    17  H    3.506143   3.100662   3.718935   4.351301   5.707173
    18  H    4.187760   2.233311   1.022862   2.214689   2.887204
    19  H    7.670119   5.553463   4.248104   3.257576   2.301664
    20  H    6.027494   4.945938   3.537286   3.805261   2.818324
    21  H    6.859728   5.443025   4.604935   4.199167   4.123688
                   11         12         13         14         15
    11  N    0.000000
    12  C    1.373889   0.000000
    13  C    2.436467   1.340753   0.000000
    14  S    4.001328   2.678108   1.730395   0.000000
    15  H    6.514835   5.397417   4.408393   3.517475   0.000000
    16  H    4.660856   3.535577   3.433626   2.901594   3.461568
    17  H    5.462789   4.715055   4.147898   4.175949   2.505727
    18  H    4.006314   4.045357   4.866981   5.673900   6.540461
    19  H    1.017863   2.019043   2.623308   4.323344   6.712379
    20  H    2.051745   1.088783   2.107729   2.827331   5.607492
    21  H    2.751908   2.119304   1.085783   2.434040   4.511528
                   16         17         18         19         20
    16  H    0.000000
    17  H    3.107018   0.000000
    18  H    3.863770   4.631131   0.000000
    19  H    5.340788   5.679934   4.734157   0.000000
    20  H    3.131425   5.011182   3.791617   2.927362   0.000000
    21  H    4.230725   4.182512   5.395333   2.528131   3.081302
                   21
    21  H    0.000000
 Stoichiometry    C6H7N3S5
 Framework group  C1[X(C6H7N3S5)]
 Deg. of freedom    57
 Full point group                 C1      NOp   1
 Largest Abelian subgroup         C1      NOp   1
 Largest concise Abelian subgroup C1      NOp   1
                         Standard orientation:                         
 ---------------------------------------------------------------------
 Center     Atomic      Atomic             Coordinates (Angstroms)
 Number     Number       Type             X           Y           Z
 ---------------------------------------------------------------------
      1          7           0        1.300554    3.527281    1.037092
      2          6           0        0.712145    2.708483    0.235865
      3          6           0        1.257982    1.438502   -0.276119
      4          6           0        1.826641    0.573783    0.576393
      5          6           0        2.360458   -0.705837    0.050178
      6         16           0        3.772292   -0.850521   -0.841002
      7         16           0        1.418639   -2.114773    0.537946
      8          7           0       -0.011413   -1.828656   -0.257943
      9         16           0       -1.275664   -2.118683    0.773085
     10         16           0       -2.818369   -1.668187   -0.510608
     11          7           0       -3.202966   -0.082613   -0.168189
     12          6           0       -2.305517    0.898609   -0.513673
     13          6           0       -1.849573    1.898953    0.253821
     14         16           0       -0.846894    3.142330   -0.411699
     15          1           0        2.236050    3.197662    1.280940
     16          1           0        1.120046    1.216473   -1.329017
     17          1           0        1.883255    0.743827    1.645488
     18          1           0       -0.094169   -2.442530   -1.071919
     19          1           0       -3.680457    0.078029    0.716255
     20          1           0       -1.977589    0.813548   -1.548408
     21          1           0       -2.103244    1.963279    1.307594
 ---------------------------------------------------------------------
 Rotational constants (GHZ):           0.4087026           0.3643722           0.2089735
 Standard basis: 6-31G(2df,p) (6D, 7F)
 There are   489 symmetry adapted cartesian basis functions of A   symmetry.
 There are   447 symmetry adapted basis functions of A   symmetry.
   447 basis functions,   785 primitive gaussians,   489 cartesian basis functions
    72 alpha electrons       72 beta electrons
       nuclear repulsion energy      1468.8494615186 Hartrees.
 NAtoms=   21 NActive=   21 NUniq=   21 SFac= 1.00D+00 NAtFMM=   60 NAOKFM=F Big=F
 Integral buffers will be    131072 words long.
 Raffenetti 2 integral format.
 Two-electron integral symmetry is turned on.
 One-electron integrals computed using PRISM.
 PrsmSu:  requested number of processors reduced to:  12 ShMem   1 Linda.
 NBasis=   447 RedAO= T EigKep=  3.57D-04  NBF=   447
 NBsUse=   447 1.00D-06 EigRej= -1.00D+00 NBFU=   447
 ExpMin= 1.17D-01 ExpMax= 2.19D+04 ExpMxC= 3.30D+03 IAcc=3 IRadAn=         5 AccDes= 0.00D+00
 Harris functional with IExCor=  402 and IRadAn=       5 diagonalized for initial guess.
 HarFok:  IExCor=  402 AccDes= 0.00D+00 IRadAn=         5 IDoV= 1 UseB2=F ITyADJ=14
 ICtDFT=  3500011 ScaDFX=  1.000000  1.000000  1.000000  1.000000
 FoFCou: FMM=F IPFlag=           0 FMFlag=      100000 FMFlg1=           0
         NFxFlg=           0 DoJE=T BraDBF=F KetDBF=T FulRan=T
         wScrn=  0.000000 ICntrl=       500 IOpCl=  0 I1Cent=   200000004 NGrid=           0
         NMat0=    1 NMatS0=      1 NMatT0=    0 NMatD0=    1 NMtDS0=    0 NMtDT0=    0
 Petite list used in FoFCou.
 Requested convergence on RMS density matrix=1.00D-08 within 128 cycles.
 Requested convergence on MAX density matrix=1.00D-06.
 Requested convergence on             energy=1.00D-06.
 No special actions if energy rises.
 Integral accuracy reduced to 1.0D-05 until final iterations.
 Initial convergence to 1.0D-05 achieved.  Increase integral accuracy.
 SCF Done:  E(RB3LYP) =  -2387.95758907     A.U. after   16 cycles
            NFock= 16  Conv=0.67D-08     -V/T= 2.0035

 **********************************************************************

            Population analysis using the SCF density.

 **********************************************************************

 Orbital symmetries:
       Occupied  (A) (A) (A) (A) (A) (A) (A) (A) (A) (A) (A) (A)
                 (A) (A) (A) (A) (A) (A) (A) (A) (A) (A) (A) (A)
                 (A) (A) (A) (A) (A) (A) (A) (A) (A) (A) (A) (A)
                 (A) (A) (A) (A) (A) (A) (A) (A) (A) (A) (A) (A)
                 (A) (A) (A) (A) (A) (A) (A) (A) (A) (A) (A) (A)
                 (A) (A) (A) (A) (A) (A) (A) (A) (A) (A) (A) (A)
       Virtual   (A) (A) (A) (A) (A) (A) (A) (A) (A) (A) (A) (A)
                 (A) (A) (A) (A) (A) (A) (A) (A) (A) (A) (A) (A)
                 (A) (A) (A) (A) (A) (A) (A) (A) (A) (A) (A) (A)
                 (A) (A) (A) (A) (A) (A) (A) (A) (A) (A) (A) (A)
                 (A) (A) (A) (A) (A) (A) (A) (A) (A) (A) (A) (A)
                 (A) (A) (A) (A) (A) (A) (A) (A) (A) (A) (A) (A)
                 (A) (A) (A) (A) (A) (A) (A) (A) (A) (A) (A) (A)
                 (A) (A) (A) (A) (A) (A) (A) (A) (A) (A) (A) (A)
                 (A) (A) (A) (A) (A) (A) (A) (A) (A) (A) (A) (A)
                 (A) (A) (A) (A) (A) (A) (A) (A) (A) (A) (A) (A)
                 (A) (A) (A) (A) (A) (A) (A) (A) (A) (A) (A) (A)
                 (A) (A) (A) (A) (A) (A) (A) (A) (A) (A) (A) (A)
                 (A) (A) (A) (A) (A) (A) (A) (A) (A) (A) (A) (A)
                 (A) (A) (A) (A) (A) (A) (A) (A) (A) (A) (A) (A)
                 (A) (A) (A) (A) (A) (A) (A) (A) (A) (A) (A) (A)
                 (A) (A) (A) (A) (A) (A) (A) (A) (A) (A) (A) (A)
                 (A) (A) (A) (A) (A) (A) (A) (A) (A) (A) (A) (A)
                 (A) (A) (A) (A) (A) (A) (A) (A) (A) (A) (A) (A)
                 (A) (A) (A) (A) (A) (A) (A) (A) (A) (A) (A) (A)
                 (A) (A) (A) (A) (A) (A) (A) (A) (A) (A) (A) (A)
                 (A) (A) (A) (A) (A) (A) (A) (A) (A) (A) (A) (A)
                 (A) (A) (A) (A) (A) (A) (A) (A) (A) (A) (A) (A)
                 (A) (A) (A) (A) (A) (A) (A) (A) (A) (A) (A) (A)
                 (A) (A) (A) (A) (A) (A) (A) (A) (A) (A) (A) (A)
                 (A) (A) (A) (A) (A) (A) (A) (A) (A) (A) (A) (A)
                 (A) (A) (A) (A) (A) (A) (A) (A) (A) (A) (A) (A)
                 (A) (A) (A) (A) (A) (A) (A) (A) (A) (A) (A) (A)
                 (A) (A) (A) (A) (A) (A) (A) (A) (A) (A) (A) (A)
                 (A) (A) (A) (A) (A) (A) (A) (A) (A) (A) (A) (A)
                 (A) (A) (A) (A) (A) (A) (A) (A) (A) (A) (A) (A)
                 (A) (A) (A) (A) (A) (A) (A) (A) (A) (A) (A) (A)
                 (A) (A) (A)
 The electronic state is 1-A.
 Alpha  occ. eigenvalues --  -88.94320 -88.93280 -88.93230 -88.88547 -88.88271
 Alpha  occ. eigenvalues --  -14.39532 -14.39143 -14.33344 -10.29569 -10.26411
 Alpha  occ. eigenvalues --  -10.24478 -10.22948 -10.22201 -10.21547  -8.00200
 Alpha  occ. eigenvalues --   -7.99358  -7.99318  -7.94887  -7.94640  -5.96798
 Alpha  occ. eigenvalues --   -5.96340  -5.95920  -5.95886  -5.95665  -5.95507
 Alpha  occ. eigenvalues --   -5.95424  -5.94829  -5.94794  -5.91253  -5.91175
 Alpha  occ. eigenvalues --   -5.91115  -5.90767  -5.90365  -5.90188  -0.99179
 Alpha  occ. eigenvalues --   -0.97461  -0.92564  -0.85803  -0.82407  -0.79980
 Alpha  occ. eigenvalues --   -0.76700  -0.73722  -0.70405  -0.65461  -0.65141
 Alpha  occ. eigenvalues --   -0.61785  -0.57102  -0.55279  -0.53176  -0.51671
 Alpha  occ. eigenvalues --   -0.51593  -0.48588  -0.46153  -0.45428  -0.44717
 Alpha  occ. eigenvalues --   -0.43672  -0.41808  -0.40813  -0.40361  -0.38814
 Alpha  occ. eigenvalues --   -0.34731  -0.33099  -0.32423  -0.31783  -0.29467
 Alpha  occ. eigenvalues --   -0.28653  -0.27989  -0.27176  -0.25895  -0.23926
 Alpha  occ. eigenvalues --   -0.23556  -0.22826
 Alpha virt. eigenvalues --   -0.11912  -0.05780  -0.04254  -0.02301   0.00085
 Alpha virt. eigenvalues --    0.00700   0.02098   0.03056   0.04961   0.07326
 Alpha virt. eigenvalues --    0.07869   0.08504   0.09092   0.10259   0.11245
 Alpha virt. eigenvalues --    0.12576   0.13283   0.14520   0.16998   0.18342
 Alpha virt. eigenvalues --    0.19548   0.21012   0.22292   0.22888   0.24434
 Alpha virt. eigenvalues --    0.24968   0.25779   0.26778   0.27249   0.28012
 Alpha virt. eigenvalues --    0.28787   0.29225   0.29906   0.30505   0.31207
 Alpha virt. eigenvalues --    0.32092   0.33067   0.33193   0.34024   0.34349
 Alpha virt. eigenvalues --    0.34900   0.35914   0.37079   0.37311   0.37807
 Alpha virt. eigenvalues --    0.38315   0.39144   0.40153   0.40258   0.41566
 Alpha virt. eigenvalues --    0.42859   0.43330   0.44978   0.45761   0.46078
 Alpha virt. eigenvalues --    0.47573   0.48739   0.49977   0.50265   0.51204
 Alpha virt. eigenvalues --    0.53065   0.54066   0.54416   0.55303   0.56786
 Alpha virt. eigenvalues --    0.57450   0.58697   0.60384   0.61613   0.62069
 Alpha virt. eigenvalues --    0.62686   0.64666   0.65287   0.66852   0.67395
 Alpha virt. eigenvalues --    0.69065   0.69947   0.70816   0.71465   0.71797
 Alpha virt. eigenvalues --    0.72341   0.73067   0.73905   0.74328   0.75160
 Alpha virt. eigenvalues --    0.76364   0.77204   0.77865   0.78265   0.79283
 Alpha virt. eigenvalues --    0.79699   0.80164   0.81509   0.82619   0.83635
 Alpha virt. eigenvalues --    0.84340   0.85234   0.85896   0.86794   0.88964
 Alpha virt. eigenvalues --    0.89681   0.91040   0.91609   0.93177   0.94137
 Alpha virt. eigenvalues --    0.95459   0.96405   0.97714   0.98568   1.00470
 Alpha virt. eigenvalues --    1.02563   1.03801   1.04332   1.06913   1.07996
 Alpha virt. eigenvalues --    1.09285   1.11593   1.13161   1.14123   1.16229
 Alpha virt. eigenvalues --    1.18926   1.19311   1.22016   1.22612   1.25339
 Alpha virt. eigenvalues --    1.27253   1.27966   1.28484   1.29441   1.31042
 Alpha virt. eigenvalues --    1.32984   1.34443   1.34952   1.36878   1.37636
 Alpha virt. eigenvalues --    1.40442   1.42440   1.43387   1.44734   1.46316
 Alpha virt. eigenvalues --    1.47483   1.48668   1.49725   1.51551   1.52975
 Alpha virt. eigenvalues --    1.53255   1.53681   1.54992   1.57309   1.58095
 Alpha virt. eigenvalues --    1.60780   1.61447   1.62722   1.63483   1.64285
 Alpha virt. eigenvalues --    1.64651   1.65669   1.66286   1.66559   1.68454
 Alpha virt. eigenvalues --    1.69776   1.70467   1.71969   1.72898   1.75191
 Alpha virt. eigenvalues --    1.75497   1.77823   1.78570   1.80786   1.80940
 Alpha virt. eigenvalues --    1.82356   1.82900   1.83703   1.85332   1.87953
 Alpha virt. eigenvalues --    1.88602   1.89463   1.90505   1.91903   1.93141
 Alpha virt. eigenvalues --    1.93921   1.95803   1.96848   1.97990   1.98953
 Alpha virt. eigenvalues --    1.99980   2.01491   2.02975   2.03382   2.03718
 Alpha virt. eigenvalues --    2.05583   2.06709   2.09423   2.11095   2.11981
 Alpha virt. eigenvalues --    2.13881   2.15364   2.17586   2.19335   2.21024
 Alpha virt. eigenvalues --    2.22120   2.24672   2.26526   2.27172   2.28458
 Alpha virt. eigenvalues --    2.29511   2.31806   2.32478   2.32959   2.34014
 Alpha virt. eigenvalues --    2.35536   2.36502   2.37254   2.37894   2.38410
 Alpha virt. eigenvalues --    2.40548   2.42764   2.44216   2.44846   2.45931
 Alpha virt. eigenvalues --    2.48177   2.51099   2.51661   2.54708   2.55354
 Alpha virt. eigenvalues --    2.57048   2.59444   2.60309   2.61988   2.65036
 Alpha virt. eigenvalues --    2.65868   2.67046   2.69774   2.74145   2.76581
 Alpha virt. eigenvalues --    2.78277   2.82043   2.85526   2.86031   2.87397
 Alpha virt. eigenvalues --    2.91165   2.91425   2.92077   2.93530   2.94948
 Alpha virt. eigenvalues --    2.97374   2.97951   3.00806   3.01832   3.04232
 Alpha virt. eigenvalues --    3.04793   3.08222   3.10124   3.12009   3.13085
 Alpha virt. eigenvalues --    3.14955   3.17225   3.19636   3.21712   3.23189
 Alpha virt. eigenvalues --    3.26354   3.27995   3.29632   3.30386   3.31914
 Alpha virt. eigenvalues --    3.32966   3.36122   3.37642   3.42277   3.42821
 Alpha virt. eigenvalues --    3.46247   3.47912   3.50453   3.53139   3.58955
 Alpha virt. eigenvalues --    3.60014   3.61432   3.64246   3.65426   3.68404
 Alpha virt. eigenvalues --    3.72213   3.74763   3.76219   3.80430   3.82623
 Alpha virt. eigenvalues --    3.84290   3.89059   3.89989   3.92497   3.95585
 Alpha virt. eigenvalues --    3.97054   3.98835   4.00041   4.00997   4.02036
 Alpha virt. eigenvalues --    4.04778   4.06438   4.08064   4.11105   4.12902
 Alpha virt. eigenvalues --    4.14612   4.17591   4.18198   4.20508   4.20649
 Alpha virt. eigenvalues --    4.21116   4.23486   4.26111   4.27596   4.28792
 Alpha virt. eigenvalues --    4.30303   4.31716   4.32804   4.34731   4.38206
 Alpha virt. eigenvalues --    4.39155   4.39893   4.41614   4.43889   4.44582
 Alpha virt. eigenvalues --    4.45681   4.47730   4.48529   4.49518   4.50341
 Alpha virt. eigenvalues --    4.51507   4.52050   4.55095   4.55404   4.57660
 Alpha virt. eigenvalues --    4.59442   4.59597   4.63160   4.64142   4.66589
 Alpha virt. eigenvalues --    4.69069   4.70903   4.75966   4.78545   4.83110
 Alpha virt. eigenvalues --    4.83701   4.85595   4.87516   4.90159   4.91387
 Alpha virt. eigenvalues --    4.93035   4.99745   5.00436   5.04140   5.06110
 Alpha virt. eigenvalues --    5.11375   5.15205   5.19782   5.30853   5.37156
 Alpha virt. eigenvalues --    5.40738   5.45797   5.49060   5.57950   5.64005
 Alpha virt. eigenvalues --    5.68274   5.73835   5.97152  10.05310  10.42624
 Alpha virt. eigenvalues --   10.62103  10.93476  11.18417  11.31581  11.35674
 Alpha virt. eigenvalues --   11.46374  11.56409  11.86416  12.09926  14.33976
          Condensed to atoms (all electrons):
               1          2          3          4          5          6
     1  N    6.550889   0.660003  -0.050855  -0.010292   0.000706   0.000008
     2  C    0.660003   4.534554   0.429931  -0.012958   0.002954   0.000201
     3  C   -0.050855   0.429931   4.845206   0.636136  -0.018643  -0.005475
     4  C   -0.010292  -0.012958   0.636136   4.874197   0.396947  -0.040408
     5  C    0.000706   0.002954  -0.018643   0.396947   4.749120   0.478113
     6  S    0.000008   0.000201  -0.005475  -0.040408   0.478113  15.848386
     7  S    0.000002  -0.000260  -0.002576  -0.046177   0.291240  -0.061066
     8  N   -0.000001   0.000040   0.003974  -0.004616  -0.026166   0.000880
     9  S   -0.000001  -0.000117   0.000936   0.002470   0.002766  -0.000275
    10  S    0.000001   0.000059  -0.000191  -0.000120  -0.000058   0.000023
    11  N    0.000000   0.000020  -0.000051  -0.000003   0.000007  -0.000000
    12  C    0.000119   0.000614   0.000611  -0.000339  -0.000048  -0.000001
    13  C   -0.001666  -0.033510   0.005717  -0.000115  -0.000146   0.000001
    14  S   -0.025980   0.265331  -0.064415   0.003144  -0.000290   0.000010
    15  H    0.327240  -0.084255  -0.011832   0.005107  -0.000001   0.000126
    16  H    0.004080  -0.033280   0.360443  -0.039645  -0.005538   0.004209
    17  H    0.003726  -0.008623  -0.032089   0.356700  -0.033124   0.003376
    18  H    0.000000  -0.000001  -0.000071   0.000142  -0.000070   0.000822
    19  H    0.000000   0.000000  -0.000003  -0.000000   0.000000  -0.000000
    20  H   -0.000003   0.000163  -0.000151   0.000073   0.000006  -0.000001
    21  H    0.000456  -0.000906   0.000054   0.000233   0.000003  -0.000000
               7          8          9         10         11         12
     1  N    0.000002  -0.000001  -0.000001   0.000001   0.000000   0.000119
     2  C   -0.000260   0.000040  -0.000117   0.000059   0.000020   0.000614
     3  C   -0.002576   0.003974   0.000936  -0.000191  -0.000051   0.000611
     4  C   -0.046177  -0.004616   0.002470  -0.000120  -0.000003  -0.000339
     5  C    0.291240  -0.026166   0.002766  -0.000058   0.000007  -0.000048
     6  S   -0.061066   0.000880  -0.000275   0.000023  -0.000000  -0.000001
     7  S   15.707889   0.255492  -0.071560   0.005435  -0.000160  -0.000140
     8  N    0.255492   6.489015   0.204289  -0.021910   0.001439   0.002892
     9  S   -0.071560   0.204289  15.835557   0.153058  -0.049187   0.004840
    10  S    0.005435  -0.021910   0.153058  15.701342   0.321235  -0.080181
    11  N   -0.000160   0.001439  -0.049187   0.321235   6.296668   0.421558
    12  C   -0.000140   0.002892   0.004840  -0.080181   0.421558   4.703541
    13  C    0.000218  -0.001134   0.006185  -0.000148  -0.020056   0.644568
    14  S    0.000040   0.000018  -0.000280  -0.000236   0.003425  -0.046738
    15  H    0.000022   0.000000  -0.000002   0.000000  -0.000000   0.000004
    16  H    0.000960   0.000570  -0.000064   0.000021  -0.000005   0.000566
    17  H    0.002265  -0.000252  -0.000017   0.000002   0.000000  -0.000012
    18  H   -0.050685   0.338066  -0.066474   0.007815  -0.000149  -0.000237
    19  H    0.000010  -0.000131  -0.000819  -0.045031   0.337757  -0.044538
    20  H   -0.000001   0.000405  -0.001960   0.003951  -0.043290   0.359668
    21  H    0.000006  -0.000017   0.000280  -0.000169  -0.008323  -0.042198
              13         14         15         16         17         18
     1  N   -0.001666  -0.025980   0.327240   0.004080   0.003726   0.000000
     2  C   -0.033510   0.265331  -0.084255  -0.033280  -0.008623  -0.000001
     3  C    0.005717  -0.064415  -0.011832   0.360443  -0.032089  -0.000071
     4  C   -0.000115   0.003144   0.005107  -0.039645   0.356700   0.000142
     5  C   -0.000146  -0.000290  -0.000001  -0.005538  -0.033124  -0.000070
     6  S    0.000001   0.000010   0.000126   0.004209   0.003376   0.000822
     7  S    0.000218   0.000040   0.000022   0.000960   0.002265  -0.050685
     8  N   -0.001134   0.000018   0.000000   0.000570  -0.000252   0.338066
     9  S    0.006185  -0.000280  -0.000002  -0.000064  -0.000017  -0.066474
    10  S   -0.000148  -0.000236   0.000000   0.000021   0.000002   0.007815
    11  N   -0.020056   0.003425  -0.000000  -0.000005   0.000000  -0.000149
    12  C    0.644568  -0.046738   0.000004   0.000566  -0.000012  -0.000237
    13  C    4.941474   0.319193  -0.000109  -0.001329  -0.000140   0.000014
    14  S    0.319193  15.733342   0.007973   0.000967   0.000380   0.000001
    15  H   -0.000109   0.007973   0.523428   0.000337   0.002474   0.000000
    16  H   -0.001329   0.000967   0.000337   0.562291   0.005384   0.000018
    17  H   -0.000140   0.000380   0.002474   0.005384   0.553477  -0.000001
    18  H    0.000014   0.000001   0.000000   0.000018  -0.000001   0.491449
    19  H   -0.002201   0.000020   0.000000   0.000001   0.000000   0.000021
    20  H   -0.043077   0.000733   0.000000   0.000592   0.000003   0.000071
    21  H    0.359249  -0.050749  -0.000044   0.000014   0.000027   0.000001
              19         20         21
     1  N    0.000000  -0.000003   0.000456
     2  C    0.000000   0.000163  -0.000906
     3  C   -0.000003  -0.000151   0.000054
     4  C   -0.000000   0.000073   0.000233
     5  C    0.000000   0.000006   0.000003
     6  S   -0.000000  -0.000001  -0.000000
     7  S    0.000010  -0.000001   0.000006
     8  N   -0.000131   0.000405  -0.000017
     9  S   -0.000819  -0.001960   0.000280
    10  S   -0.045031   0.003951  -0.000169
    11  N    0.337757  -0.043290  -0.008323
    12  C   -0.044538   0.359668  -0.042198
    13  C   -0.002201  -0.043077   0.359249
    14  S    0.000020   0.000733  -0.050749
    15  H    0.000000   0.000000  -0.000044
    16  H    0.000001   0.000592   0.000014
    17  H    0.000000   0.000003   0.000027
    18  H    0.000021   0.000071   0.000001
    19  H    0.477701   0.006513   0.005673
    20  H    0.006513   0.578026   0.006298
    21  H    0.005673   0.006298   0.616895
 Mulliken charges:
               1
     1  N   -0.458433
     2  C    0.280040
     3  C   -0.096656
     4  C   -0.120473
     5  C    0.162221
     6  S   -0.228928
     7  S   -0.030956
     8  N   -0.242854
     9  S   -0.019625
    10  S   -0.044900
    11  N   -0.260885
    12  C    0.075451
    13  C   -0.172986
    14  S   -0.145890
    15  H    0.229531
    16  H    0.139407
    17  H    0.146444
    18  H    0.279268
    19  H    0.265026
    20  H    0.131981
    21  H    0.113217
 Sum of Mulliken charges =  -0.00000
 Mulliken charges with hydrogens summed into heavy atoms:
               1
     1  N   -0.228902
     2  C    0.280040
     3  C    0.042751
     4  C    0.025971
     5  C    0.162221
     6  S   -0.228928
     7  S   -0.030956
     8  N    0.036414
     9  S   -0.019625
    10  S   -0.044900
    11  N    0.004140
    12  C    0.207432
    13  C   -0.059768
    14  S   -0.145890
 Electronic spatial extent (au):  <R**2>=           4890.2989
 Charge=             -0.0000 electrons
 Dipole moment (field-independent basis, Debye):
    X=             -1.9193    Y=             -2.1797    Z=              0.3465  Tot=              2.9248
 Quadrupole moment (field-independent basis, Debye-Ang):
   XX=           -115.7474   YY=           -133.7754   ZZ=           -112.2086
   XY=              2.6478   XZ=              0.3277   YZ=              0.6612
 Traceless Quadrupole moment (field-independent basis, Debye-Ang):
   XX=              4.8297   YY=            -13.1983   ZZ=              8.3686
   XY=              2.6478   XZ=              0.3277   YZ=              0.6612
 Octapole moment (field-independent basis, Debye-Ang**2):
  XXX=            -49.1690  YYY=            -81.4684  ZZZ=             -0.9334  XYY=             -2.0848
  XXY=             19.5153  XXZ=             29.9144  XZZ=             -3.5801  YZZ=             -6.4670
  YYZ=            -20.1521  XYZ=             -5.1839
 Hexadecapole moment (field-independent basis, Debye-Ang**3):
 XXXX=          -3314.6920 YYYY=          -3280.7195 ZZZZ=           -391.0666 XXXY=             20.8117
 XXXZ=            -13.6027 YYYX=             28.6214 YYYZ=            -43.7032 ZZZX=             -0.5978
 ZZZY=              9.2332 XXYY=          -1073.0331 XXZZ=           -580.5174 YYZZ=           -566.9865
 XXYZ=              9.9222 YYXZ=              2.7391 ZZXY=              6.9313
 N-N= 1.468849461519D+03 E-N=-8.591790466041D+03  KE= 2.379567519760D+03
 PrsmSu:  requested number of processors reduced to:  13 ShMem   1 Linda.
 Calling FoFJK, ICntrl=      2127 FMM=F ISym2X=0 I1Cent= 0 IOpClX= 0 NMat=1 NMatS=1 NMatT=0.
 ***** Axes restored to original set *****
 -------------------------------------------------------------------
 Center     Atomic                   Forces (Hartrees/Bohr)
 Number     Number              X              Y              Z
 -------------------------------------------------------------------
      1        7           0.016521939   -0.003864717    0.000443496
      2        6          -0.028157271    0.015205201   -0.002533802
      3        6          -0.014139458    0.001169282    0.011694393
      4        6           0.018061921    0.008674163   -0.021339474
      5        6          -0.016829405    0.012589781   -0.022301640
      6       16           0.000687242   -0.019981140    0.026182638
      7       16          -0.009159276    0.044489746    0.000556507
      8        7           0.009085850    0.001584435   -0.038413648
      9       16           0.017433654   -0.023915632    0.043577147
     10       16           0.008466982    0.003062089    0.014951401
     11        7          -0.005685368   -0.020944164    0.009537059
     12        6          -0.004912376    0.000306522   -0.019770612
     13        6           0.014245453    0.005109596    0.015549429
     14       16          -0.001528438   -0.032386620   -0.016361757
     15        1           0.001264881    0.003634369   -0.002256625
     16        1          -0.000968490    0.002296323    0.000515010
     17        1           0.000625821   -0.001215633    0.001990073
     18        1          -0.006183010    0.001292467   -0.002023544
     19        1           0.003741652    0.003990283   -0.000577707
     20        1          -0.002389822    0.000921380   -0.000182955
     21        1          -0.000182480   -0.002017730    0.000764612
 -------------------------------------------------------------------
 Cartesian Forces:  Max     0.044489746 RMS     0.014974062

 GradGradGradGradGradGradGradGradGradGradGradGradGradGradGradGradGradGrad
 Berny optimization.
 FormGI is forming the generalized inverse of G from B-inverse, IUseBI=4.
 Internal  Forces:  Max     0.061706300 RMS     0.012193902
 Search for a local minimum.
 Step number   1 out of a maximum of   95
 All quantities printed in internal units (Hartrees-Bohrs-Radians)
 Mixed Optimization -- RFO/linear search
 Second derivative matrix not updated -- first step.
 ITU=  0
     Eigenvalues ---    0.00949   0.01055   0.01236   0.01336   0.01630
     Eigenvalues ---    0.01695   0.01783   0.01985   0.02040   0.02400
     Eigenvalues ---    0.02510   0.02638   0.02971   0.03175   0.04350
     Eigenvalues ---    0.07276   0.07445   0.09267   0.10465   0.12712
     Eigenvalues ---    0.14161   0.14945   0.15980   0.15993   0.15998
     Eigenvalues ---    0.16000   0.16000   0.21136   0.22036   0.22672
     Eigenvalues ---    0.23132   0.23845   0.24676   0.24951   0.24973
     Eigenvalues ---    0.24976   0.28710   0.29130   0.31076   0.32328
     Eigenvalues ---    0.33995   0.34954   0.35085   0.35304   0.35414
     Eigenvalues ---    0.35514   0.38964   0.39924   0.40734   0.41321
     Eigenvalues ---    0.43885   0.44115   0.44681   0.49895   0.56524
     Eigenvalues ---    0.56616   0.70676
 RFO step:  Lambda=-3.91180225D-02 EMin= 9.49247075D-03
 Linear search not attempted -- first point.
 Maximum step size (   0.300) exceeded in Quadratic search.
    -- Step size scaled by   0.940
 Iteration  1 RMS(Cart)=  0.09133665 RMS(Int)=  0.00392351
 Iteration  2 RMS(Cart)=  0.00444145 RMS(Int)=  0.00096792
 Iteration  3 RMS(Cart)=  0.00001658 RMS(Int)=  0.00096788
 Iteration  4 RMS(Cart)=  0.00000002 RMS(Int)=  0.00096788
 Variable       Old X    -DE/DX   Delta X   Delta X   Delta X     New X
                                 (Linear)    (Quad)   (Total)
    R1        2.43373  -0.01784   0.00000  -0.02250  -0.02250   2.41123
    R2        1.93017   0.00300   0.00000   0.00588   0.00588   1.93605
    R3        2.78561   0.01029   0.00000   0.02306   0.02329   2.80890
    R4        3.29386   0.03168   0.00000   0.07977   0.08013   3.37398
    R5        2.53385   0.00300   0.00000   0.00211   0.00246   2.53631
    R6        2.05008  -0.00115   0.00000  -0.00275  -0.00275   2.04734
    R7        2.80246  -0.00147   0.00000  -0.00525  -0.00502   2.79744
    R8        2.04849   0.00097   0.00000   0.00230   0.00230   2.05079
    R9        3.16686  -0.03287   0.00000  -0.07211  -0.07211   3.09476
   R10        3.33259   0.01561   0.00000   0.04480   0.04489   3.37748
   R11        3.13965   0.03779   0.00000   0.08324   0.08290   3.22255
   R12        3.13117   0.06171   0.00000   0.12853   0.12846   3.25963
   R13        1.93293  -0.00439   0.00000  -0.00864  -0.00864   1.92429
   R14        3.88694   0.00752   0.00000   0.02715   0.02679   3.91373
   R15        3.15035   0.01860   0.00000   0.04106   0.04083   3.19119
   R16        2.59627   0.01838   0.00000   0.03117   0.03114   2.62742
   R17        1.92348  -0.00343   0.00000  -0.00665  -0.00665   1.91683
   R18        2.53366  -0.00035   0.00000  -0.00167  -0.00165   2.53200
   R19        2.05750  -0.00074   0.00000  -0.00178  -0.00178   2.05572
   R20        3.26997   0.01965   0.00000   0.05034   0.05027   3.32024
   R21        2.05183   0.00103   0.00000   0.00247   0.00247   2.05431
    A1        1.94101  -0.00532   0.00000  -0.02514  -0.02514   1.91587
    A2        2.20762  -0.00626   0.00000  -0.01895  -0.01917   2.18845
    A3        2.07321  -0.00299   0.00000  -0.00731  -0.00753   2.06568
    A4        2.00050   0.00920   0.00000   0.02609   0.02655   2.02705
    A5        2.08498   0.01444   0.00000   0.05073   0.05044   2.13542
    A6        2.05594  -0.00517   0.00000  -0.01448  -0.01443   2.04151
    A7        2.14005  -0.00916   0.00000  -0.03495  -0.03493   2.10512
    A8        2.07546   0.01447   0.00000   0.05525   0.05557   2.13104
    A9        2.15081  -0.00762   0.00000  -0.02974  -0.02994   2.12087
   A10        2.05613  -0.00683   0.00000  -0.02517  -0.02534   2.03079
   A11        2.17298  -0.00487   0.00000  -0.02303  -0.02278   2.15020
   A12        1.98121   0.01170   0.00000   0.05055   0.05000   2.03120
   A13        2.12708  -0.00680   0.00000  -0.02812  -0.02783   2.09925
   A14        1.76155  -0.00610   0.00000  -0.00062  -0.00369   1.75786
   A15        1.90553   0.02365   0.00000   0.09080   0.09193   1.99746
   A16        1.92570  -0.00414   0.00000  -0.01748  -0.01952   1.90618
   A17        1.90540   0.00251   0.00000   0.02591   0.02415   1.92955
   A18        1.71690   0.02647   0.00000   0.09518   0.09152   1.80843
   A19        1.82673   0.01206   0.00000   0.07698   0.07382   1.90055
   A20        2.06795   0.00006   0.00000   0.02478   0.02266   2.09061
   A21        2.02284  -0.00338   0.00000  -0.02411  -0.02323   1.99960
   A22        1.99568   0.00277   0.00000   0.00731   0.00750   2.00319
   A23        2.22819  -0.00927   0.00000  -0.04697  -0.04743   2.18076
   A24        1.96051   0.00681   0.00000   0.03375   0.03399   1.99450
   A25        2.09426   0.00248   0.00000   0.01326   0.01348   2.10774
   A26        2.10948   0.00473   0.00000   0.03071   0.03109   2.14057
   A27        2.11801  -0.00231   0.00000  -0.01514  -0.01540   2.10261
   A28        2.05565  -0.00243   0.00000  -0.01573  -0.01596   2.03968
   A29        1.76863  -0.00074   0.00000  -0.02372  -0.02529   1.74334
    D1        0.01726   0.00130   0.00000   0.02062   0.02085   0.03811
    D2       -3.05526   0.00196   0.00000   0.02272   0.02249  -3.03277
    D3        0.83129  -0.00121   0.00000   0.01579   0.01597   0.84726
    D4       -2.37995   0.00018   0.00000   0.03469   0.03479  -2.34516
    D5       -2.37689  -0.00224   0.00000   0.01270   0.01324  -2.36365
    D6        0.69505  -0.00084   0.00000   0.03159   0.03206   0.72711
    D7       -2.03881  -0.00408   0.00000  -0.00632  -0.00626  -2.04507
    D8        1.16386  -0.00295   0.00000  -0.00287  -0.00314   1.16072
    D9        3.13172   0.00038   0.00000   0.03404   0.03373  -3.11774
   D10        0.03364   0.00014   0.00000   0.02508   0.02512   0.05876
   D11        0.06328  -0.00131   0.00000   0.01311   0.01321   0.07649
   D12       -3.03480  -0.00155   0.00000   0.00415   0.00460  -3.03020
   D13        1.29128  -0.00286   0.00000  -0.01677  -0.01649   1.27479
   D14       -1.91609  -0.00262   0.00000  -0.02787  -0.02712  -1.94321
   D15       -1.89147  -0.00269   0.00000  -0.00856  -0.00854  -1.90001
   D16        1.18435  -0.00245   0.00000  -0.01966  -0.01917   1.16518
   D17        1.15447  -0.01136   0.00000  -0.11908  -0.11923   1.03524
   D18       -2.05094  -0.01106   0.00000  -0.12974  -0.12944  -2.18038
   D19       -2.35833   0.01016   0.00000   0.04086   0.04149  -2.31684
   D20        1.83081  -0.00525   0.00000  -0.03735  -0.03799   1.79282
   D21        3.13748  -0.01189   0.00000  -0.04715  -0.05065   3.08683
   D22       -1.03920  -0.00097   0.00000   0.00277   0.00392  -1.03529
   D23       -1.67599   0.01381   0.00000   0.13589   0.13660  -1.53939
   D24        1.21361  -0.00221   0.00000  -0.02188  -0.02428   1.18934
   D25       -1.25961  -0.00241   0.00000  -0.03599  -0.03680  -1.29641
   D26       -2.28802   0.00054   0.00000  -0.02378  -0.02313  -2.31114
   D27        0.87655  -0.00047   0.00000  -0.02583  -0.02580   0.85076
   D28        0.19516  -0.00150   0.00000  -0.02158  -0.02183   0.17334
   D29       -2.92345  -0.00251   0.00000  -0.02363  -0.02450  -2.94795
   D30       -3.02573  -0.00091   0.00000   0.00166   0.00029  -3.02544
   D31        0.10481  -0.00185   0.00000  -0.01601  -0.01676   0.08805
   D32        0.09132   0.00020   0.00000   0.00399   0.00328   0.09461
   D33       -3.06132  -0.00074   0.00000  -0.01368  -0.01376  -3.07508
   D34       -1.84796  -0.00016   0.00000   0.00473   0.00445  -1.84351
   D35        1.30430   0.00075   0.00000   0.02179   0.02092   1.32522
         Item               Value     Threshold  Converged?
 Maximum Force            0.061706     0.000450     NO 
 RMS     Force            0.012194     0.000300     NO 
 Maximum Displacement     0.308512     0.001800     NO 
 RMS     Displacement     0.090789     0.001200     NO 
 Predicted change in Energy=-2.264267D-02
 GradGradGradGradGradGradGradGradGradGradGradGradGradGradGradGradGradGrad

                          Input orientation:                          
 ---------------------------------------------------------------------
 Center     Atomic      Atomic             Coordinates (Angstroms)
 Number     Number       Type             X           Y           Z
 ---------------------------------------------------------------------
      1          7           0        1.012516   -0.058173    0.103371
      2          6           0        2.285123   -0.023860    0.017403
      3          6           0        3.105710    1.207851   -0.120165
      4          6           0        2.933829    2.277532    0.672063
      5          6           0        3.734119    3.512443    0.510981
      6         16           0        3.518760    4.565742   -0.724396
      7         16           0        4.897362    3.880887    1.816930
      8          7           0        5.880284    2.488210    1.768355
      9         16           0        6.187976    1.777544    3.309664
     10         16           0        7.294763    0.087131    2.854907
     11          7           0        6.237268   -1.196810    2.563498
     12          6           0        5.423871   -1.179312    1.436022
     13          6           0        4.110379   -1.443894    1.433012
     14         16           0        3.172680   -1.571706   -0.047335
     15          1           0        0.634288    0.890891    0.026892
     16          1           0        3.893043    1.193166   -0.864246
     17          1           0        2.218935    2.269794    1.488514
     18          1           0        6.754661    2.711398    1.296587
     19          1           0        5.802899   -1.582489    3.395046
     20          1           0        5.946541   -0.945611    0.511035
     21          1           0        3.580592   -1.616104    2.366521
 ---------------------------------------------------------------------
                    Distance matrix (angstroms):
                    1          2          3          4          5
     1  N    0.000000
     2  C    1.275969   0.000000
     3  C    2.456471   1.486405   0.000000
     4  C    3.077397   2.479073   1.342157   0.000000
     5  C    4.508056   3.853394   2.470705   1.480343   0.000000
     6  S    5.324195   4.810049   3.436734   2.743747   1.637674
     7  S    5.791762   5.030819   3.755992   2.781534   1.787285
     8  N    5.740331   4.722447   3.592225   3.150847   2.689993
     9  S    6.358896   5.414453   4.646357   4.218578   4.106569
    10  S    6.859934   5.758494   5.258824   5.346065   5.468541
    11  N    5.886150   4.845397   4.774002   5.153765   5.714512
    12  C    4.742675   3.633083   3.673436   4.328246   5.071836
    13  C    3.644849   2.711459   3.233183   3.976471   5.055392
    14  S    2.641932   1.785434   2.781317   3.923163   5.145434
    15  H    1.024513   1.887357   2.496000   2.761686   4.088500
    16  H    3.286270   2.200878   1.083405   2.110969   2.701028
    17  H    2.965384   2.725693   2.121778   1.085231   2.189869
    18  H    6.485871   5.393952   4.193170   3.895770   3.222192
    19  H    6.008863   5.119819   5.236175   5.526840   6.209348
    20  H    5.029745   3.807792   3.620239   4.414863   4.976852
    21  H    3.760853   3.119590   3.792604   4.295334   5.456060
                    6          7          8          9         10
     6  S    0.000000
     7  S    2.971180   0.000000
     8  N    4.013321   1.705299   0.000000
     9  S    5.583225   2.884093   1.724921   0.000000
    10  S    6.864953   4.606247   2.991075   2.071057   0.000000
    11  N    7.169906   5.304312   3.786696   3.066916   1.688704
    12  C    6.426702   5.101756   3.710724   3.582930   2.667836
    13  C    6.412500   5.396298   4.325096   4.268008   3.808691
    14  S    6.184371   6.015046   5.206799   5.619512   5.307195
    15  H    4.731717   5.506189   5.753659   6.512004   7.280497
    16  H    3.396163   3.926985   3.543565   4.798931   5.160147
    17  H    3.443529   3.142841   3.678517   4.394562   5.691668
    18  H    4.241936   2.255665   1.018289   2.290348   3.099491
    19  H    7.745182   5.758379   4.384370   3.383104   2.303268
    20  H    6.147799   5.108936   3.657372   3.912312   2.894477
    21  H    6.911788   5.679159   4.742550   4.382330   4.115167
                   11         12         13         14         15
    11  N    0.000000
    12  C    1.390368   0.000000
    13  C    2.421303   1.339879   0.000000
    14  S    4.043352   2.724368   1.756998   0.000000
    15  H    6.495095   5.404766   4.417194   3.537418   0.000000
    16  H    4.791326   3.641883   3.504100   2.971663   3.391900
    17  H    5.414789   4.708578   4.167988   4.245655   2.559066
    18  H    4.140875   4.114372   4.927199   5.742968   6.510402
    19  H    1.014345   2.035679   2.594881   4.332222   6.646548
    20  H    2.088116   1.087841   2.114194   2.897943   5.641557
    21  H    2.696764   2.110520   1.087092   2.448481   4.521017
                   16         17         18         19         20
    16  H    0.000000
    17  H    3.081761   0.000000
    18  H    3.893981   4.561212   0.000000
    19  H    5.430780   5.596404   4.873073   0.000000
    20  H    3.268427   5.018898   3.826730   2.956985   0.000000
    21  H    4.292724   4.210132   5.472362   2.449008   3.080600
                   21
    21  H    0.000000
 Stoichiometry    C6H7N3S5
 Framework group  C1[X(C6H7N3S5)]
 Deg. of freedom    57
 Full point group                 C1      NOp   1
 Largest Abelian subgroup         C1      NOp   1
 Largest concise Abelian subgroup C1      NOp   1
                         Standard orientation:                         
 ---------------------------------------------------------------------
 Center     Atomic      Atomic             Coordinates (Angstroms)
 Number     Number       Type             X           Y           Z
 ---------------------------------------------------------------------
      1          7           0        1.209460    3.555583    1.085891
      2          6           0        0.651646    2.754461    0.264219
      3          6           0        1.249553    1.494505   -0.249998
      4          6           0        1.812898    0.584188    0.559539
      5          6           0        2.433129   -0.654955    0.038718
      6         16           0        3.866266   -0.675842   -0.753531
      7         16           0        1.592401   -2.185129    0.420991
      8          7           0        0.071401   -1.898726   -0.294954
      9         16           0       -1.275308   -2.285730    0.711006
     10         16           0       -2.911327   -1.716713   -0.424309
     11          7           0       -3.251387   -0.091369   -0.117167
     12          6           0       -2.362622    0.891617   -0.537834
     13          6           0       -1.922743    1.904356    0.221206
     14         16           0       -0.934360    3.208516   -0.418565
     15          1           0        2.150330    3.219626    1.312877
     16          1           0        1.170461    1.311954   -1.314980
     17          1           0        1.808831    0.704384    1.638085
     18          1           0        0.015678   -2.404301   -1.177111
     19          1           0       -3.686948    0.085853    0.781596
     20          1           0       -2.046366    0.794789   -1.574176
     21          1           0       -2.192241    1.962622    1.272749
 ---------------------------------------------------------------------
 Rotational constants (GHZ):           0.3950400           0.3492025           0.1986049
 Standard basis: 6-31G(2df,p) (6D, 7F)
 There are   489 symmetry adapted cartesian basis functions of A   symmetry.
 There are   447 symmetry adapted basis functions of A   symmetry.
   447 basis functions,   785 primitive gaussians,   489 cartesian basis functions
    72 alpha electrons       72 beta electrons
       nuclear repulsion energy      1442.1891997394 Hartrees.
 NAtoms=   21 NActive=   21 NUniq=   21 SFac= 1.00D+00 NAtFMM=   60 NAOKFM=F Big=F
 Integral buffers will be    131072 words long.
 Raffenetti 2 integral format.
 Two-electron integral symmetry is turned on.
 One-electron integrals computed using PRISM.
 PrsmSu:  requested number of processors reduced to:  12 ShMem   1 Linda.
 NBasis=   447 RedAO= T EigKep=  3.58D-04  NBF=   447
 NBsUse=   447 1.00D-06 EigRej= -1.00D+00 NBFU=   447
 Initial guess from the checkpoint file:  "NdC1CdCCqdSrSNSSNCdCS1.chk"
 B after Tr=    -0.000000    0.000000   -0.000000
         Rot=    0.999898   -0.007101   -0.000216   -0.012375 Ang=  -1.64 deg.
 ExpMin= 1.17D-01 ExpMax= 2.19D+04 ExpMxC= 3.30D+03 IAcc=2 IRadAn=         4 AccDes= 0.00D+00
 Harris functional with IExCor=  402 and IRadAn=       4 diagonalized for initial guess.
 HarFok:  IExCor=  402 AccDes= 0.00D+00 IRadAn=         4 IDoV= 1 UseB2=F ITyADJ=14
 ICtDFT=  3500011 ScaDFX=  1.000000  1.000000  1.000000  1.000000
 FoFCou: FMM=F IPFlag=           0 FMFlag=      100000 FMFlg1=           0
         NFxFlg=           0 DoJE=T BraDBF=F KetDBF=T FulRan=T
         wScrn=  0.000000 ICntrl=       500 IOpCl=  0 I1Cent=   200000004 NGrid=           0
         NMat0=    1 NMatS0=      1 NMatT0=    0 NMatD0=    1 NMtDS0=    0 NMtDT0=    0
 Petite list used in FoFCou.
 Requested convergence on RMS density matrix=1.00D-08 within 128 cycles.
 Requested convergence on MAX density matrix=1.00D-06.
 Requested convergence on             energy=1.00D-06.
 No special actions if energy rises.
 Integral accuracy reduced to 1.0D-05 until final iterations.
 Initial convergence to 1.0D-05 achieved.  Increase integral accuracy.
 SCF Done:  E(RB3LYP) =  -2387.98004217     A.U. after   14 cycles
            NFock= 14  Conv=0.54D-08     -V/T= 2.0037
 PrsmSu:  requested number of processors reduced to:  13 ShMem   1 Linda.
 Calling FoFJK, ICntrl=      2127 FMM=F ISym2X=0 I1Cent= 0 IOpClX= 0 NMat=1 NMatS=1 NMatT=0.
 ***** Axes restored to original set *****
 -------------------------------------------------------------------
 Center     Atomic                   Forces (Hartrees/Bohr)
 Number     Number              X              Y              Z
 -------------------------------------------------------------------
      1        7           0.004572040   -0.001202844   -0.001349309
      2        6          -0.008753606    0.010615094   -0.000941193
      3        6          -0.005572613   -0.000935577    0.008126617
      4        6           0.009915210   -0.000780660   -0.010384400
      5        6          -0.007536600   -0.000294699   -0.004098150
      6       16           0.000119066   -0.002759734    0.007172177
      7       16           0.000337503    0.010212587   -0.003470584
      8        7           0.000342088   -0.001154958   -0.011709946
      9       16           0.007155175   -0.007804242    0.013741092
     10       16          -0.001390389    0.005066667    0.002216419
     11        7          -0.001978056   -0.006613318    0.001639299
     12        6          -0.002353770    0.000659419   -0.007532153
     13        6           0.006469282    0.001734861    0.006607135
     14       16           0.000227575   -0.010479489   -0.004663857
     15        1          -0.000456252    0.000678136    0.000062824
     16        1           0.000596959    0.000694793   -0.001277942
     17        1           0.000064255   -0.000630451    0.002230336
     18        1          -0.001169478    0.001192297    0.002062197
     19        1          -0.000056874    0.002349435    0.000390480
     20        1          -0.000035679    0.000718650    0.001455284
     21        1          -0.000495838   -0.001265968   -0.000276323
 -------------------------------------------------------------------
 Cartesian Forces:  Max     0.013741092 RMS     0.005038409

 GradGradGradGradGradGradGradGradGradGradGradGradGradGradGradGradGradGrad
 Berny optimization.
 Using GEDIIS/GDIIS optimizer.
 FormGI is forming the generalized inverse of G from B-inverse, IUseBI=4.
 Internal  Forces:  Max     0.015412244 RMS     0.003220780
 Search for a local minimum.
 Step number   2 out of a maximum of   95
 All quantities printed in internal units (Hartrees-Bohrs-Radians)
 Mixed Optimization -- RFO/linear search
 Update second derivatives using D2CorX and points    1    2
 DE= -2.25D-02 DEPred=-2.26D-02 R= 9.92D-01
 TightC=F SS=  1.41D+00  RLast= 3.95D-01 DXNew= 5.0454D-01 1.1847D+00
 Trust test= 9.92D-01 RLast= 3.95D-01 DXMaxT set to 5.05D-01
 ITU=  1  0
 Use linear search instead of GDIIS.
     Eigenvalues ---    0.00945   0.01058   0.01216   0.01337   0.01608
     Eigenvalues ---    0.01687   0.01770   0.01982   0.02029   0.02384
     Eigenvalues ---    0.02498   0.02633   0.02926   0.03185   0.03765
     Eigenvalues ---    0.06860   0.07170   0.08955   0.10611   0.12410
     Eigenvalues ---    0.14476   0.15005   0.15986   0.15995   0.15997
     Eigenvalues ---    0.15999   0.16087   0.21092   0.21689   0.22666
     Eigenvalues ---    0.23189   0.24066   0.24656   0.24904   0.24971
     Eigenvalues ---    0.26163   0.28523   0.29412   0.30195   0.32123
     Eigenvalues ---    0.33977   0.34945   0.35207   0.35304   0.35419
     Eigenvalues ---    0.35493   0.38202   0.39501   0.40252   0.41012
     Eigenvalues ---    0.43878   0.44112   0.44681   0.49803   0.56617
     Eigenvalues ---    0.56883   0.70494
 RFO step:  Lambda=-7.19297729D-03 EMin= 9.45338331D-03
 Quartic linear search produced a step of  0.38623.
 Iteration  1 RMS(Cart)=  0.12548135 RMS(Int)=  0.01776685
 Iteration  2 RMS(Cart)=  0.03513959 RMS(Int)=  0.00167778
 Iteration  3 RMS(Cart)=  0.00093035 RMS(Int)=  0.00145103
 Iteration  4 RMS(Cart)=  0.00000128 RMS(Int)=  0.00145103
 Iteration  5 RMS(Cart)=  0.00000000 RMS(Int)=  0.00145103
 Variable       Old X    -DE/DX   Delta X   Delta X   Delta X     New X
                                 (Linear)    (Quad)   (Total)
    R1        2.41123  -0.00418  -0.00869  -0.00029  -0.00898   2.40225
    R2        1.93605   0.00079   0.00227   0.00039   0.00266   1.93871
    R3        2.80890  -0.00083   0.00899  -0.01202  -0.00300   2.80590
    R4        3.37398   0.00999   0.03095   0.01184   0.04327   3.41725
    R5        2.53631  -0.00403   0.00095  -0.01145  -0.01018   2.52612
    R6        2.04734   0.00130  -0.00106   0.00585   0.00479   2.05213
    R7        2.79744  -0.00235  -0.00194  -0.00828  -0.01014   2.78731
    R8        2.05079   0.00164   0.00089   0.00537   0.00626   2.05705
    R9        3.09476  -0.00720  -0.02785   0.00011  -0.02774   3.06702
   R10        3.37748   0.00291   0.01734  -0.00126   0.01593   3.39341
   R11        3.22255   0.00663   0.03202  -0.00448   0.02705   3.24960
   R12        3.25963   0.01541   0.04961   0.00655   0.05607   3.31570
   R13        1.92429  -0.00170  -0.00334  -0.00221  -0.00555   1.91873
   R14        3.91373  -0.00305   0.01035  -0.02012  -0.01026   3.90347
   R15        3.19119   0.00487   0.01577   0.00266   0.01844   3.20963
   R16        2.62742   0.00385   0.01203  -0.00129   0.01088   2.63829
   R17        1.91683  -0.00055  -0.00257   0.00064  -0.00193   1.91490
   R18        2.53200  -0.00173  -0.00064  -0.00429  -0.00461   2.52740
   R19        2.05572  -0.00110  -0.00069  -0.00358  -0.00427   2.05145
   R20        3.32024   0.00618   0.01942   0.00698   0.02650   3.34674
   R21        2.05431   0.00020   0.00095  -0.00008   0.00088   2.05518
    A1        1.91587   0.00036  -0.00971   0.01179   0.00208   1.91795
    A2        2.18845   0.00117  -0.00740   0.01265   0.00532   2.19377
    A3        2.06568  -0.00058  -0.00291  -0.00008  -0.00290   2.06278
    A4        2.02705  -0.00060   0.01025  -0.01049  -0.00091   2.02614
    A5        2.13542   0.00337   0.01948  -0.00412   0.01630   2.15172
    A6        2.04151  -0.00114  -0.00557   0.00403  -0.00245   2.03907
    A7        2.10512  -0.00218  -0.01349   0.00165  -0.01275   2.09237
    A8        2.13104   0.00609   0.02146   0.02463   0.04467   2.17570
    A9        2.12087  -0.00307  -0.01156  -0.01164  -0.02274   2.09814
   A10        2.03079  -0.00300  -0.00979  -0.01211  -0.02144   2.00934
   A11        2.15020   0.00048  -0.00880   0.00228  -0.00924   2.14096
   A12        2.03120   0.00302   0.01931   0.00413   0.01915   2.05035
   A13        2.09925  -0.00358  -0.01075  -0.01636  -0.02982   2.06942
   A14        1.75786   0.00091  -0.00143   0.01826   0.01138   1.76923
   A15        1.99746   0.00321   0.03550  -0.00644   0.03092   2.02837
   A16        1.90618  -0.00071  -0.00754  -0.01639  -0.02379   1.88239
   A17        1.92955  -0.00011   0.00933  -0.02027  -0.01233   1.91722
   A18        1.80843  -0.00125   0.03535  -0.04237  -0.01083   1.79760
   A19        1.90055   0.00374   0.02851   0.01940   0.04298   1.94353
   A20        2.09061   0.00070   0.00875   0.00714   0.01529   2.10589
   A21        1.99960  -0.00138  -0.00897  -0.00314  -0.01198   1.98762
   A22        2.00319   0.00065   0.00290  -0.00253  -0.00016   2.00303
   A23        2.18076  -0.00342  -0.01832  -0.01484  -0.03470   2.14606
   A24        1.99450   0.00092   0.01313  -0.00258   0.01132   2.00582
   A25        2.10774   0.00249   0.00521   0.01727   0.02324   2.13098
   A26        2.14057   0.00139   0.01201   0.00649   0.01999   2.16056
   A27        2.10261   0.00007  -0.00595   0.00272  -0.00406   2.09856
   A28        2.03968  -0.00148  -0.00616  -0.00949  -0.01647   2.02322
   A29        1.74334  -0.00140  -0.00977  -0.02119  -0.03201   1.71134
    D1        0.03811  -0.00019   0.00805   0.00598   0.01409   0.05219
    D2       -3.03277  -0.00000   0.00868  -0.03034  -0.02171  -3.05448
    D3        0.84726   0.00021   0.00617   0.08633   0.09285   0.94011
    D4       -2.34516   0.00127   0.01344   0.12156   0.13513  -2.21003
    D5       -2.36365   0.00002   0.00511   0.12228   0.12790  -2.23575
    D6        0.72711   0.00109   0.01238   0.15751   0.17018   0.89730
    D7       -2.04507  -0.00039  -0.00242   0.05637   0.05442  -1.99065
    D8        1.16072  -0.00029  -0.00121   0.02249   0.02179   1.18252
    D9       -3.11774   0.00186   0.01303   0.09944   0.11166  -3.00607
   D10        0.05876   0.00130   0.00970   0.06825   0.07790   0.13665
   D11        0.07649   0.00073   0.00510   0.06289   0.06782   0.14431
   D12       -3.03020   0.00016   0.00178   0.03170   0.03405  -2.99615
   D13        1.27479  -0.00051  -0.00637   0.05954   0.05333   1.32812
   D14       -1.94321  -0.00193  -0.01047  -0.09092  -0.09984  -2.04305
   D15       -1.90001   0.00002  -0.00330   0.08917   0.08545  -1.81456
   D16        1.16518  -0.00140  -0.00740  -0.06129  -0.06771   1.09746
   D17        1.03524  -0.00563  -0.04605  -0.17527  -0.22407   0.81117
   D18       -2.18038  -0.00683  -0.04999  -0.32021  -0.36992  -2.55031
   D19       -2.31684   0.00334   0.01602   0.05939   0.07456  -2.24228
   D20        1.79282   0.00169  -0.01467   0.10389   0.08744   1.88027
   D21        3.08683  -0.00337  -0.01956   0.01184  -0.01216   3.07467
   D22       -1.03529  -0.00198   0.00151  -0.03105  -0.03071  -1.06600
   D23       -1.53939   0.00419   0.05276   0.05064   0.10118  -1.43821
   D24        1.18934   0.00132  -0.00938   0.02987   0.01769   1.20703
   D25       -1.29641   0.00117  -0.01421   0.02880   0.01358  -1.28283
   D26       -2.31114  -0.00055  -0.00893  -0.06868  -0.07636  -2.38751
   D27        0.85076  -0.00056  -0.00996  -0.06019  -0.06962   0.78114
   D28        0.17334  -0.00112  -0.00843  -0.06781  -0.07633   0.09701
   D29       -2.94795  -0.00113  -0.00946  -0.05932  -0.06958  -3.01753
   D30       -3.02544   0.00030   0.00011  -0.00397  -0.00495  -3.03039
   D31        0.08805  -0.00028  -0.00647  -0.01599  -0.02299   0.06507
   D32        0.09461   0.00028   0.00127  -0.01322  -0.01237   0.08224
   D33       -3.07508  -0.00030  -0.00532  -0.02524  -0.03040  -3.10549
   D34       -1.84351   0.00096   0.00172   0.02053   0.02245  -1.82106
   D35        1.32522   0.00149   0.00808   0.03196   0.03962   1.36484
         Item               Value     Threshold  Converged?
 Maximum Force            0.015412     0.000450     NO 
 RMS     Force            0.003221     0.000300     NO 
 Maximum Displacement     0.621944     0.001800     NO 
 RMS     Displacement     0.150805     0.001200     NO 
 Predicted change in Energy=-5.168854D-03
 GradGradGradGradGradGradGradGradGradGradGradGradGradGradGradGradGradGrad

                          Input orientation:                          
 ---------------------------------------------------------------------
 Center     Atomic      Atomic             Coordinates (Angstroms)
 Number     Number       Type             X           Y           Z
 ---------------------------------------------------------------------
      1          7           0        1.026872   -0.070934    0.104118
      2          6           0        2.289980   -0.038623   -0.035545
      3          6           0        3.114294    1.187636   -0.182114
      4          6           0        3.076200    2.205074    0.684094
      5          6           0        3.753456    3.500440    0.486829
      6         16           0        3.189641    4.638931   -0.523153
      7         16           0        5.035868    3.951996    1.659907
      8          7           0        5.945113    2.494948    1.745717
      9         16           0        6.252665    1.866819    3.354896
     10         16           0        7.230443    0.086410    2.979506
     11          7           0        6.131728   -1.161304    2.631934
     12          6           0        5.397610   -1.153158    1.444430
     13          6           0        4.095731   -1.454953    1.391715
     14         16           0        3.180901   -1.610158   -0.116765
     15          1           0        0.645442    0.879985    0.051430
     16          1           0        3.778632    1.231994   -1.039991
     17          1           0        2.517833    2.112287    1.613902
     18          1           0        6.824341    2.647710    1.261404
     19          1           0        5.625135   -1.499280    3.441847
     20          1           0        5.969305   -0.907723    0.554816
     21          1           0        3.544408   -1.663470    2.305685
 ---------------------------------------------------------------------
                    Distance matrix (angstroms):
                    1          2          3          4          5
     1  N    0.000000
     2  C    1.271217   0.000000
     3  C    2.454233   1.484819   0.000000
     4  C    3.117102   2.483988   1.336768   0.000000
     5  C    4.509483   3.865178   2.490998   1.474979   0.000000
     6  S    5.220523   4.788179   3.468922   2.719187   1.622995
     7  S    5.888675   5.132202   3.837600   2.800758   1.795716
     8  N    5.785127   4.790811   3.665942   3.072740   2.720142
     9  S    6.452237   5.552357   4.777144   4.163836   4.140118
    10  S    6.839365   5.789157   5.305773   5.197633   5.473434
    11  N    5.799855   4.809873   4.747767   4.945991   5.655927
    12  C    4.697977   3.617993   3.652190   4.152683   5.027545
    13  C    3.604346   2.702553   3.228535   3.864708   5.048950
    14  S    2.656660   1.808331   2.799350   3.899787   5.177872
    15  H    1.025920   1.885713   2.498884   2.839843   4.088534
    16  H    3.252505   2.199878   1.085940   2.100658   2.734531
    17  H    3.044481   2.720111   2.106281   1.088542   2.173483
    18  H    6.506995   5.427604   4.240284   3.818086   3.279855
    19  H    5.858722   5.034781   5.163035   5.274894   6.101845
    20  H    5.032990   3.826394   3.617276   4.251620   4.934218
    21  H    3.704195   3.113691   3.808274   4.220712   5.478860
                    6          7          8          9         10
     6  S    0.000000
     7  S    2.940440   0.000000
     8  N    4.163779   1.719616   0.000000
     9  S    5.666215   2.949838   1.754592   0.000000
    10  S    7.022973   4.636837   2.995892   2.065630   0.000000
    11  N    7.228636   5.318983   3.766747   3.115579   1.698461
    12  C    6.503445   5.122488   3.701244   3.674407   2.693003
    13  C    6.451600   5.494623   4.375757   4.420477   3.837095
    14  S    6.262296   6.126584   5.287873   5.794613   5.372525
    15  H    4.575234   5.594666   5.793550   6.582377   7.250216
    16  H    3.495890   4.033423   3.748181   5.083196   5.420675
    17  H    3.376723   3.118837   3.451094   4.127988   5.308271
    18  H    4.512278   2.249134   1.015351   2.306364   3.110796
    19  H    7.702628   5.765323   4.351218   3.425197   2.303298
    20  H    6.297136   5.070444   3.605135   3.952066   2.908245
    21  H    6.917257   5.845934   4.834189   4.571481   4.135573
                   11         12         13         14         15
    11  N    0.000000
    12  C    1.396124   0.000000
    13  C    2.402011   1.337441   0.000000
    14  S    4.057610   2.749541   1.771020   0.000000
    15  H    6.397280   5.353244   4.376391   3.557760   0.000000
    16  H    4.974733   3.805573   3.637778   3.047533   3.336464
    17  H    4.981267   4.357174   3.906959   4.158301   2.732350
    18  H    4.106903   4.063946   4.928909   5.770914   6.539701
    19  H    1.013323   2.039912   2.558140   4.318598   6.477126
    20  H    2.098833   1.085581   2.123709   2.952903   5.638512
    21  H    2.655717   2.106308   1.087556   2.450152   4.467084
                   16         17         18         19         20
    16  H    0.000000
    17  H    3.067194   0.000000
    18  H    4.071488   4.353957   0.000000
    19  H    5.563838   5.102952   4.836316   0.000000
    20  H    3.452658   4.706886   3.724440   2.967042   0.000000
    21  H    4.430815   3.973507   5.516770   2.376393   3.084934
                   21
    21  H    0.000000
 Stoichiometry    C6H7N3S5
 Framework group  C1[X(C6H7N3S5)]
 Deg. of freedom    57
 Full point group                 C1      NOp   1
 Largest Abelian subgroup         C1      NOp   1
 Largest concise Abelian subgroup C1      NOp   1
                         Standard orientation:                         
 ---------------------------------------------------------------------
 Center     Atomic      Atomic             Coordinates (Angstroms)
 Number     Number       Type             X           Y           Z
 ---------------------------------------------------------------------
      1          7           0        1.218852    3.534597    1.096113
      2          6           0        0.673383    2.780119    0.230538
      3          6           0        1.252970    1.526279   -0.314118
      4          6           0        1.675273    0.518326    0.455712
      5          6           0        2.401859   -0.666614   -0.037801
      6         16           0        3.971831   -0.623964   -0.447046
      7         16           0        1.608356   -2.265664    0.157098
      8          7           0        0.016488   -1.923866   -0.396266
      9         16           0       -1.293263   -2.393417    0.672689
     10         16           0       -2.968751   -1.687482   -0.307732
     11          7           0       -3.218737   -0.036856    0.004854
     12          6           0       -2.344271    0.924679   -0.504972
     13          6           0       -1.902008    1.961015    0.215554
     14         16           0       -0.925297    3.279171   -0.451539
     15          1           0        2.150789    3.177045    1.333096
     16          1           0        1.318852    1.445867   -1.395071
     17          1           0        1.489513    0.533110    1.528185
     18          1           0       -0.100744   -2.368968   -1.301295
     19          1           0       -3.565090    0.156235    0.937365
     20          1           0       -2.066638    0.784961   -1.545109
     21          1           0       -2.172158    2.053515    1.264954
 ---------------------------------------------------------------------
 Rotational constants (GHZ):           0.3885017           0.3476909           0.1934310
 Standard basis: 6-31G(2df,p) (6D, 7F)
[...]
 9906,-0.00387121,0.00070963,0.00325428,-0.00879480,0.00933746,0.036982
 92,-0.09221713,-0.01181522,0.04188089,0.16420046,-0.00025206,0.0000497
 5,-0.00021520,0.00014944,-0.00027690,-0.00009967,-0.00000736,-0.000129
 55,-0.00005872,-0.00014195,-0.00002015,-0.00004757,0.00062628,0.000633
 41,0.00002848,-0.00091591,-0.00011006,0.00001735,-0.00119568,0.0039851
 9,-0.00333387,-0.01367890,0.01384854,0.00445503,0.01337018,-0.02349953
 ,-0.02725099,0.01281250,0.01154388,0.06538976,-0.00288667,0.00256127,-
 0.00260485,0.00522947,-0.00469362,0.00070760,-0.00187355,0.00013641,-0
 .00130740,0.00193935,0.00231641,0.00055439,-0.00384466,-0.00397929,-0.
 00159418,0.00197394,0.00084564,0.00065095,-0.00065451,0.00265680,0.001
 45282,0.00356242,-0.00176919,0.00353864,0.00771168,-0.01460257,-0.0047
 4836,-0.15513440,-0.07192482,0.00326276,0.47797769,-0.00081368,0.00119
 760,-0.00074262,-0.00086485,-0.00277305,-0.00096966,-0.00013453,-0.000
 20425,-0.00016325,0.00075389,0.00060594,0.00014884,-0.00140054,-0.0007
 8944,-0.00059842,0.00078479,0.00003556,0.00030912,-0.00110626,0.002052
 07,-0.00027851,0.00181136,0.00247591,0.00515753,-0.01299815,-0.0259536
 3,-0.00680098,-0.04525913,-0.04380260,-0.00221682,0.10150273,0.1121009
 2,-0.00202037,0.00153539,-0.00172528,0.00443119,-0.00251294,0.00105398
 ,-0.00133442,0.00022574,-0.00108062,0.00109667,0.00161778,0.00063273,-
 0.00246967,-0.00322802,-0.00104216,0.00153073,0.00067191,0.00043560,-0
 .00042759,0.00236383,0.00134620,0.00726663,-0.00108933,0.00249372,-0.0
 1165654,0.00103607,0.00133109,0.01825992,-0.00331945,-0.04798172,-0.08
 788679,0.03545804,0.65648078,0.00169761,-0.00121619,0.00152953,-0.0030
 5983,-0.00044729,0.00184877,0.00143149,-0.00016800,0.00113313,-0.00191
 551,-0.00192398,0.00024614,0.00220146,0.00280610,0.00115140,-0.0008076
 8,-0.00094302,-0.00047553,0.00111073,-0.00222114,0.00007748,-0.0007972
 5,-0.00011486,-0.00234187,0.00243682,0.00355601,0.00555613,-0.03917490
 ,-0.01204788,-0.02830373,-0.13479733,-0.02353011,-0.07260003,0.8569425
 7,0.00035784,-0.00018550,0.00013599,0.00226003,-0.00039667,0.00149598,
 0.00013915,0.00019049,0.00051182,-0.00087138,-0.00124885,0.00118919,0.
 00083111,0.00054939,0.00046024,-0.00019620,-0.00027499,-0.00015250,-0.
 00001601,0.00014503,-0.00036492,0.00012013,0.00152015,0.00003218,-0.00
 191556,0.00011611,-0.00336985,-0.02027875,-0.01301730,-0.01213700,-0.0
 0832298,-0.04441148,-0.00225503,0.06597502,0.15204821,0.00013421,0.000
 24808,0.00012375,-0.00446365,-0.00213204,-0.00154255,0.00063096,-0.000
 65622,0.00067227,-0.00109667,-0.00082734,-0.00059931,0.00302830,0.0030
 1242,0.00126008,-0.00152362,-0.00068413,-0.00049031,0.00090045,-0.0023
 1144,-0.00077689,-0.00265572,0.00003490,-0.00402088,0.00285963,0.00430
 878,0.00530719,-0.02461337,-0.01218417,-0.00010985,-0.04826993,-0.0157
 4485,-0.26081698,-0.02295560,0.03196173,0.62277871,-0.00296646,0.00428
 565,-0.00384887,-0.00766047,-0.00642196,-0.01249579,-0.00118973,0.0000
 9092,-0.00068758,0.00145096,0.00123431,-0.00053751,-0.00129645,-0.0018
 8146,-0.00105054,0.00041718,0.00061649,0.00034108,-0.00053543,0.001175
 98,0.00008979,0.00102606,-0.00030098,0.00195499,-0.00117633,-0.0007314
 3,-0.00255449,0.00918217,0.00269244,0.00059048,-0.03254755,-0.00633047
 ,-0.02456907,-0.50724892,-0.03469052,-0.02348901,0.77010400,0.00350840
 ,-0.00392707,0.00337383,0.00218121,0.01337983,0.01429291,-0.00170355,0
 .00025776,0.00014804,-0.00091873,-0.00232169,0.00163642,0.00026918,0.0
 0004110,0.00036639,0.00031231,-0.00028801,-0.00011296,-0.00015534,0.00
 020645,0.00012496,0.00006606,-0.00038317,0.00024212,0.00015803,0.00034
 899,0.00017725,0.00007969,0.00044347,-0.00029081,-0.00654362,0.0106723
 7,-0.00550817,-0.03428876,-0.05091052,-0.00638910,0.03874733,0.1112415
 4,0.00108031,-0.00026645,0.00040387,-0.00417658,0.00611748,-0.00742014
 ,0.00027288,-0.00057991,0.00028070,0.00114223,0.00018403,-0.00059412,-
 0.00047107,0.00022257,0.00001455,0.00023497,-0.00017889,-0.00003304,-0
 .00014431,0.00014701,0.00016087,0.00063858,0.00004886,0.00082397,-0.00
 049611,-0.00138182,-0.00074803,0.00139358,0.00224553,-0.00221575,-0.04
 883952,-0.00682243,-0.01305749,-0.01501409,-0.00474673,-0.09913027,-0.
 05139653,0.04733184,0.47598466,-0.03157611,0.01858748,-0.01987662,-0.0
 4592506,0.05004649,0.00416524,0.00249245,0.00394357,-0.00172407,-0.000
 76709,0.00007717,-0.00067088,-0.00031343,-0.00020424,-0.00006146,0.000
 30978,-0.00003533,0.00014385,-0.00014458,0.00034222,0.00012875,0.00031
 814,-0.00047216,0.00016303,0.00012756,-0.00028082,-0.00004075,0.000490
 09,0.00128124,-0.00043446,-0.00329792,0.00133071,-0.00126331,-0.014440
 90,-0.00937368,-0.02847605,-0.04526139,-0.01055477,-0.04207416,0.12723
 607,0.01761058,0.00801631,0.01357275,0.02898858,-0.12233809,-0.0196696
 2,0.01781997,-0.02054368,0.00508732,0.00167868,-0.00098691,0.00030304,
 0.00089675,0.00097217,-0.00003787,-0.00084707,-0.00057187,-0.00033792,
 0.00034174,-0.00105526,0.00001915,-0.00056011,0.00037140,-0.00071022,0
 .00054035,0.00026361,0.00098537,0.00055376,0.00189303,0.00071756,-0.00
 074972,0.00911760,-0.00121519,-0.00129991,-0.00413365,-0.00391757,-0.0
 0268030,-0.05030803,-0.03420124,-0.05413961,0.18575658,-0.02333508,0.0
 1659897,-0.01473225,-0.00586817,0.00506024,-0.03348083,0.00142182,-0.0
 0247045,0.00498525,-0.00044463,-0.00003303,-0.00072969,0.00016764,0.00
 054963,-0.00047658,-0.00037803,0.00006757,-0.00000310,0.00030717,-0.00
 067831,-0.00005818,-0.00036164,0.00035572,-0.00060803,0.00064967,0.000
 45883,0.00087383,-0.00208444,0.00072770,0.00014370,0.00327115,0.002024
 68,0.00492461,-0.01872910,-0.00808128,-0.01798021,-0.02840776,-0.04599
 390,-0.14859641,0.09326427,0.04035964,0.22070198,-0.11122707,0.1286259
 7,-0.04839219,-0.02274247,0.03014390,-0.01610848,-0.00418510,-0.001184
 79,0.00653154,0.00129204,0.00114953,-0.00045751,-0.00035538,-0.0017573
 5,-0.00145634,-0.00011444,0.00063949,0.00021420,-0.00016679,0.00040371
 ,0.00024851,0.00027694,-0.00019650,0.00023513,-0.00000106,-0.00007745,
 -0.00031385,0.00035026,0.00019659,-0.00000936,-0.00066913,-0.00042385,
 -0.00031688,0.00069222,0.00011599,0.00005285,-0.00119831,0.00188043,-0
 .00071997,0.00408621,-0.00475711,-0.00581753,0.13406137,0.17145525,-0.
 29461420,0.10084745,-0.01366311,-0.00277023,-0.01310790,-0.00473332,0.
 00117021,-0.00047475,-0.00007179,-0.00001094,-0.00014414,0.00007047,0.
 00007432,-0.00000448,0.00004171,0.00005442,0.00004245,-0.00000576,0.00
 005592,0.00001323,0.00001535,-0.00000210,0.00001910,0.00002690,0.00006
 954,-0.00000987,-0.00012721,-0.00011141,0.00005630,0.00041477,0.000075
 19,0.00018232,-0.00020201,-0.00011779,0.00041568,0.00157256,0.00027728
 ,-0.00100032,-0.00065382,0.00144090,0.00047965,-0.15449579,0.29379462,
 -0.04163886,0.06058802,-0.05531652,-0.02448408,0.02439311,-0.01211209,
 0.00532734,0.00347989,-0.00428289,0.00042696,0.00038981,0.00058612,0.0
 0007702,-0.00029123,0.00053743,0.00009909,0.00015538,-0.00005059,0.000
 06593,0.00027733,-0.00000721,0.00009313,-0.00006593,0.00010208,-0.0000
 1267,0.00007403,-0.00010661,0.00000740,0.00000282,0.00002981,0.0000830
 0,-0.00007178,-0.00000353,-0.00037630,0.00019953,-0.00032085,-0.000713
 12,-0.00119887,0.00123580,-0.00653824,0.00084114,0.00270515,0.06689373
 ,-0.08690626,0.06733666,0.00178873,-0.00158246,0.00086936,0.00368561,-
 0.00529791,-0.00306125,-0.22875744,0.12892052,0.00096730,-0.02404653,0
 .01792773,-0.00116504,-0.00075754,0.00189615,0.00117214,0.00158682,-0.
 00005462,0.00045049,-0.00032054,0.00084396,-0.00009456,-0.00020577,-0.
 00060517,-0.00024348,-0.00004933,-0.00011507,0.00003187,0.00011155,-0.
 00005958,0.00003424,0.00003843,0.00001907,0.00004187,0.00011889,0.0001
 9693,0.00000344,-0.00020570,0.00009628,-0.00025327,0.00053769,-0.00137
 978,-0.00015453,0.00012328,0.00038909,0.00030789,0.24850890,-0.0005703
 3,0.00224955,0.00294454,0.02133818,-0.01971049,-0.00159885,0.13247546,
 -0.14448629,-0.00616259,-0.01063802,0.01155104,-0.00044832,-0.00193619
 ,0.00001693,0.00126613,0.00014304,-0.00175062,-0.00049937,0.00051233,0
 .00038256,0.00014688,-0.00001603,-0.00027582,-0.00019189,0.00005845,-0
 .00002267,0.00019121,-0.00005965,-0.00006702,0.00005088,0.00028423,-0.
 00002026,0.00020658,-0.00023769,0.00013524,0.00002917,0.00005448,0.000
 69932,-0.00036137,-0.00061899,-0.00296610,-0.00150521,-0.00065792,0.00
 052756,-0.00195702,-0.13855329,0.15480262,0.00050796,0.00019929,-0.000
 83672,0.00639394,-0.00683206,0.00540353,0.00076796,-0.00545304,-0.0444
 7953,-0.00719272,0.00246295,0.00743725,0.00002603,0.00312073,-0.006161
 32,0.00047214,-0.00016963,0.00016640,-0.00013623,-0.00023724,0.0003699
 4,0.00013093,0.00002590,-0.00039678,0.00016048,0.00008926,0.00019847,-
 0.00028425,-0.00005656,-0.00001629,0.00041684,-0.00004782,0.00031586,-
 0.00050227,-0.00029132,-0.00010743,0.00058132,0.00047192,0.00028937,-0
 .00112546,-0.00095298,-0.00037406,-0.00070522,-0.00034432,-0.00017553,
 0.00321662,0.01061182,0.02907151,0.00049319,0.00032761,-0.00008482,0.0
 0044098,0.00002074,0.00160514,-0.01929579,0.01620801,-0.00079637,-0.25
 798854,0.13148591,-0.00436771,0.00649757,-0.00053694,0.00030059,-0.000
 04774,-0.00162627,-0.00043044,-0.00077185,-0.00104816,-0.00030173,-0.0
 0156171,-0.00102985,-0.00000152,-0.00002307,-0.00011621,-0.00073125,0.
 00042814,0.00049176,0.00000072,-0.00090482,-0.00017262,-0.00042334,0.0
 0158012,0.00118868,-0.00015586,-0.00077993,0.00109077,-0.00008890,0.00
 006976,-0.00066043,-0.00048887,-0.00004736,0.00001373,0.00019060,-0.00
 220101,-0.00176336,-0.00273799,0.27450484,0.00068460,-0.00015076,0.000
 38608,-0.00050689,0.00072543,0.00113152,-0.01401239,0.01145328,-0.0007
 4656,0.13537057,-0.13698892,-0.00297471,0.02364755,-0.01659480,-0.0007
 0363,-0.00078799,-0.00323060,-0.00114503,0.00132475,-0.00223076,0.0004
 4659,0.00017445,0.00106142,0.00120108,0.00004481,0.00053435,-0.0006411
 3,0.00040059,0.00040856,-0.00003714,-0.00053784,-0.00028601,-0.0006046
 5,0.00040003,-0.00146835,0.00195320,-0.00047083,-0.00193691,0.00087619
 ,0.00028456,-0.00080180,-0.00069446,0.00009588,0.00005756,0.00016838,-
 0.00256400,-0.00095687,-0.00257960,-0.14388918,0.15036156,-0.00112791,
 -0.00101767,0.00029583,0.00098436,0.00321580,-0.00599895,-0.00564822,0
 .00287179,0.00553557,-0.00681149,-0.00275188,-0.04207254,0.00661131,-0
 .00270908,0.00387154,-0.00049842,-0.00170525,0.00139291,0.00042558,-0.
 00109270,-0.00071986,-0.00025274,0.00021719,-0.00056078,-0.00008475,-0
 .00010448,-0.00051182,-0.00036197,0.00008594,-0.00004479,0.00009820,-0
 .00008575,-0.00019778,-0.00067464,0.00088948,-0.00028164,0.00063945,0.
 00018359,0.00005620,0.00016890,0.00049161,0.00071448,0.00017197,-0.000
 06522,-0.00023379,-0.00212271,-0.00284035,0.00934218,0.00839461,0.0040
 4186,0.02904736,0.00008406,-0.00007332,0.00006687,-0.00014222,0.000184
 83,-0.00001277,0.00011026,-0.00012186,0.00002584,0.00000171,0.00016922
 ,-0.00005388,-0.00150919,0.00342525,0.00206644,-0.00145246,-0.00018549
 ,-0.00111411,-0.01076018,-0.00674882,0.00244402,-0.31849827,-0.0492943
 0,0.17859576,0.00807816,0.00234716,-0.01523926,0.00005395,-0.00164572,
 0.00087311,0.00040083,0.00065731,0.00062460,-0.00040510,0.00004542,-0.
 00036425,0.00020136,0.00003034,0.00003465,0.00003576,-0.00008690,-0.00
 009555,0.00001294,-0.00000869,-0.00000060,0.00000985,0.00009176,-0.000
 01804,-0.00019816,-0.00003129,0.00008120,0.32397286,-0.00003411,0.0001
 6680,-0.00010871,0.00010279,-0.00028971,0.00011546,-0.00004170,0.00006
 608,-0.00015163,-0.00049129,0.00026513,-0.00029778,-0.00164984,-0.0032
 3041,-0.00281299,0.00177689,-0.00036305,0.00155049,0.02940906,-0.00814
 580,-0.00817518,-0.07667278,-0.03347128,0.06530786,-0.00190252,-0.0009
 4651,-0.00084357,-0.00105068,0.00099311,0.00085882,-0.00076763,-0.0015
 8904,-0.00070269,0.00026957,0.00021994,0.00097891,-0.00029226,-0.00007
 386,-0.00024641,-0.00001216,0.00010323,0.00012017,-0.00006785,-0.00000
 458,0.00000569,-0.00004505,-0.00003251,-0.00004674,-0.00013099,0.00015
 515,0.00041121,0.05153342,0.04639403,0.00005720,-0.00027820,0.00002338
 ,-0.00033315,0.00046562,-0.00009633,0.00026205,-0.00016565,0.00006114,
 -0.00080079,0.00011301,-0.00051886,-0.00173411,0.00129197,0.00227820,-
 0.00098320,0.00018970,-0.00086236,-0.00226017,-0.00383556,0.00250142,0
 .15942925,0.04998071,-0.12834812,0.01522832,0.00728459,-0.02402901,-0.
 00120172,0.00139896,0.00230760,0.00010176,-0.00043825,-0.00110835,-0.0
 0037954,-0.00018482,-0.00009287,0.00012253,-0.00006763,-0.00012694,0.0
 0010292,-0.00009422,0.00002296,0.00006979,0.00000998,0.00004402,0.0000
 0296,0.00002483,-0.00006699,0.00007101,0.00007728,0.00034692,-0.167917
 44,-0.05586745,0.14772935,-0.00011772,0.00010430,-0.00010427,0.0003473
 6,-0.00014447,0.00007080,-0.00012295,0.00002991,-0.00008903,0.00011672
 ,0.00011890,0.00002000,-0.00019985,-0.00016098,-0.00010888,0.00007004,
 0.00003626,0.00004906,-0.00014336,0.00029141,-0.00004979,-0.00065670,0
 .00015274,0.00011214,0.00311788,-0.00051958,-0.00194603,-0.01728362,-0
 .00008823,0.01486287,-0.17416840,-0.01416626,0.18722431,0.01366832,0.0
 0253460,-0.01650660,0.00101585,-0.00037344,-0.00199596,-0.00061269,-0.
 00028025,0.00070974,-0.00002466,0.00000770,-0.00001625,-0.00001030,0.0
 0002456,0.00002486,-0.00002559,-0.00005747,-0.00001010,-0.00002177,0.0
 0003569,0.00018561,0.17699493,-0.00012023,-0.00004619,-0.00008127,0.00
 001909,0.00006802,0.00020219,0.00000299,0.00005684,0.00001161,0.000022
 13,-0.00006138,0.00002224,-0.00000377,-0.00013318,-0.00000928,-0.00001
 569,0.00010334,-0.00001541,0.00007846,-0.00046350,0.00010949,0.0002169
 5,-0.00122604,0.00037854,0.00076471,0.00344239,0.00229191,-0.01988432,
 -0.00767035,0.00779683,0.00243204,-0.01607745,-0.02252329,0.00598081,-
 0.00089925,0.00145143,-0.00098278,-0.00115808,0.00026865,0.00009408,-0
 .00044070,-0.00014629,0.00004278,0.00003191,-0.00000719,-0.00000143,-0
 .00000849,0.00000507,0.00002330,-0.00006292,0.00008489,-0.00024356,-0.
 00001592,0.00012255,0.01252500,0.02097312,0.00007502,0.00003869,0.0000
 5207,-0.00013163,-0.00008020,0.00001325,-0.00002277,-0.00000940,-0.000
 01105,0.00008090,0.00005519,0.00003175,-0.00028119,-0.00002708,-0.0000
 8796,0.00020141,-0.00006857,0.00003983,-0.00013144,0.00024618,0.000056
 14,0.00041626,0.00001722,0.00025847,-0.00037873,-0.00049767,-0.0009368
 1,-0.00373237,-0.00065872,0.00780006,0.16742831,-0.00810958,-0.3135625
 7,0.02036028,-0.00234392,-0.02508717,0.00128744,0.00081747,0.00212637,
 -0.00013770,0.00042447,0.00038818,-0.00000821,-0.00001918,-0.00003854,
 -0.00000519,-0.00000844,-0.00000209,0.00000545,-0.00006663,-0.00006989
 ,-0.00000042,-0.00002757,-0.00007046,-0.18048360,0.01142911,0.33181726
 ,0.00020408,-0.00002995,0.00011487,-0.00023655,0.00033771,-0.00054422,
 0.00006443,-0.00012731,0.00001753,-0.00024750,-0.00002030,-0.00006789,
 0.00022236,0.00016289,0.00008720,-0.00003466,-0.00011060,-0.00003330,0
 .00002323,-0.00007094,-0.00003222,-0.00011621,-0.00009048,-0.00026788,
 -0.00025114,-0.00019209,0.00056356,0.00172856,0.00062860,-0.00134254,0
 .00942703,-0.00041986,-0.01718530,-0.16357757,0.00149199,0.14017532,-0
 .01598328,0.00085416,0.02456941,0.00116015,0.00066002,0.00090968,-0.00
 009215,-0.00000525,0.00008619,0.00003381,0.00000348,0.00001581,-0.0001
 1439,0.00037365,0.00000580,0.00002203,-0.00000881,-0.00003935,-0.00127
 582,-0.00080472,-0.00330561,0.17327203,0.00050093,-0.00045783,0.000401
 75,0.00019081,0.00092573,0.00042847,0.00003163,0.00014312,0.00015927,0
 .00020809,-0.00009470,-0.00018265,0.00004770,0.00016847,0.00005210,-0.
 00014260,0.00005141,-0.00003029,0.00013176,-0.00023394,0.00001417,-0.0
 0008727,0.00036623,0.00016161,-0.00007316,-0.00038550,-0.00013955,0.00
 100958,0.00022332,-0.00070608,0.00045866,0.00190936,0.00051962,0.00095
 074,-0.04282212,-0.00409489,0.00022602,0.00611844,0.00096793,-0.001294
 63,-0.00527083,-0.00010349,0.00018976,-0.00000362,0.00001757,-0.000063
 68,-0.00003863,0.00001574,0.00030606,-0.00032077,0.00006431,-0.0000661
 5,-0.00011849,-0.00007306,-0.00049829,0.00352732,-0.00080966,-0.000980
 99,0.02734344,-0.00004798,-0.00000787,-0.00004273,-0.00030792,0.000028
 87,0.00005505,-0.00005057,0.00005936,-0.00000209,0.00009405,-0.0001011
 6,-0.00005531,-0.00001569,0.00003062,-0.00000769,-0.00004096,0.0000313
 1,-0.00000175,0.00005869,-0.00010112,0.00002378,0.00008465,0.00036562,
 0.00004783,-0.00011769,-0.00096001,-0.00012706,0.00175793,0.00192044,0
 .00111920,0.01456716,-0.00060052,-0.03004661,0.13592576,-0.00290645,-0
 .22319087,-0.00443784,-0.00059038,0.00446791,-0.00059469,0.00049198,0.
 00132011,0.00002292,0.00003583,-0.00006687,-0.00001827,-0.00001511,0.0
 0000791,0.00000738,-0.00005834,0.00021065,-0.00001658,-0.00003135,-0.0
 0000528,-0.00279322,-0.00153996,-0.00291533,-0.14262148,0.00461142,0.2
 4890470,-0.00080760,0.00000780,-0.00026054,0.00164455,-0.00069705,0.00
 059297,-0.00006535,-0.00003075,-0.00007360,0.00001321,0.00010738,0.000
 00294,0.00004144,-0.00008770,0.00000552,-0.00001486,0.00002442,0.00000
 575,-0.00001382,0.00001687,-0.00001278,0.00000546,-0.00009390,-0.00004
 162,0.00004210,0.00022580,0.00004648,0.00005895,-0.00019293,-0.0003006
 5,0.00251808,0.00076048,0.00167737,-0.01565525,0.00040819,0.02678515,-
 0.16534765,0.00526402,0.13630387,0.00547549,-0.00164925,-0.01453580,-0
 .00007133,-0.00004078,0.00012184,0.00001057,0.00006550,-0.00001269,-0.
 00005465,0.00005644,0.00001155,0.00000355,0.00004024,0.00001606,-0.000
 66765,-0.00014585,-0.00123620,-0.00422844,-0.00104498,-0.00145565,0.17
 711319,-0.00017342,0.00022746,-0.00007794,-0.00052955,-0.00038147,0.00
 076206,0.00020452,-0.00011284,-0.00022265,0.00010178,0.00029114,0.0000
 9839,-0.00031643,-0.00054435,-0.00013621,0.00013173,0.00015140,0.00005
 258,-0.00010231,0.00027353,0.00003799,0.00016527,-0.00016420,0.0003599
 2,-0.00017732,-0.00028242,-0.00020653,0.00018286,-0.00023672,-0.000117
 12,0.00028231,-0.00433532,-0.00085852,-0.00129743,0.00496188,0.0045474
 5,0.00408681,-0.03237921,-0.00862453,0.00165270,0.00148208,-0.00709637
 ,0.00013458,0.00000544,-0.00009441,0.00003232,-0.00002905,0.00000860,-
 0.00018257,0.00027216,-0.00018529,0.00002141,-0.00008232,0.00004565,0.
 00042789,0.00006053,-0.00030173,-0.00165120,0.00896959,-0.00066319,-0.
 00299395,0.02185270,-0.00120177,0.00083316,-0.00062478,0.00189409,-0.0
 0217063,0.00064147,-0.00038629,0.00012762,-0.00027122,0.00016566,0.000
 27366,0.00025316,-0.00010923,-0.00019217,-0.00007809,0.00007746,0.0000
 5840,0.00005648,-0.00004665,0.00018287,0.00002896,0.00007944,-0.000097
 99,0.00014217,-0.00004432,-0.00007547,-0.00020614,0.00043065,0.0001121
 7,0.00008344,-0.00088256,0.00059305,0.00160851,-0.00547594,-0.00004230
 ,0.00440608,0.14858105,-0.00901495,-0.21392208,0.00488090,-0.00215721,
 -0.01974091,-0.00013510,-0.00002554,0.00013796,0.00002012,0.00011647,0
 .00001432,0.00003330,-0.00003031,-0.00012181,0.00002042,-0.00003653,0.
 00001058,0.00084433,0.00014817,0.00019850,-0.00110557,-0.00127429,0.00
 030445,-0.14763997,0.01267183,0.22707897\\-0.00002564,-0.00003478,-0.0
 0001539,0.00002215,0.00002853,0.00002644,-0.00000965,-0.00003657,-0.00
 000648,-0.00001912,-0.00002093,0.00000099,-0.00004250,0.00002741,-0.00
 000578,0.00000408,-0.00002122,-0.00000304,0.00002663,0.00004888,0.0000
 2795,-0.00000355,-0.00003226,-0.00007204,0.00002482,-0.00005462,0.0000
 6036,0.00000007,0.00004962,0.00000428,-0.00001354,-0.00001526,-0.00000
 709,-0.00000781,0.00001189,0.00001488,0.00001731,-0.00000056,-0.000023
 75,-0.00000073,0.00000651,0.00000177,0.00000284,0.00001929,-0.00000753
 ,0.00000545,0.00001857,0.00000560,0.00001041,0.00000481,-0.00000254,0.
 00000454,0.00000264,0.00000366,0.00000435,-0.00000056,-0.00000100,-0.0
 0000013,-0.00000103,-0.00000305,0.,-0.00000038,0.00000177\\\@


 A leading authority is anyone who has guessed right more than once.
 -- Frank A. Clark
 Job cpu time:       0 days  4 hours 37 minutes 20.5 seconds.
 Elapsed time:       0 days  1 hours  9 minutes 21.2 seconds.
 File lengths (MBytes):  RWF=    403 Int=      0 D2E=      0 Chk=     17 Scr=      1
 Normal termination of Gaussian 16 at Tue May 16 21:08:29 2023.
### All Done ###
