### Starting Gaussian ###
 Entering Gaussian System, Link 0=g16
 Initial command:
 /cluster/software/gaussian/gaussian-16-A.03/avx2/g16/l1.exe "/local/scratch/cz9n3/Gau-9350.inp" -scrdir="/local/scratch/cz9n3/"
 Entering Link 1 = /cluster/software/gaussian/gaussian-16-A.03/avx2/g16/l1.exe PID=      9351.
  
 Copyright (c) 1988,1990,1992,1993,1995,1998,2003,2009,2016,
            Gaussian, Inc.  All Rights Reserved.
  
 This is part of the Gaussian(R) 16 program.  It is based on
 the Gaussian(R) 09 system (copyright 2009, Gaussian, Inc.),
 the Gaussian(R) 03 system (copyright 2003, Gaussian, Inc.),
 the Gaussian(R) 98 system (copyright 1998, Gaussian, Inc.),
 the Gaussian(R) 94 system (copyright 1995, Gaussian, Inc.),
 the Gaussian 92(TM) system (copyright 1992, Gaussian, Inc.),
 the Gaussian 90(TM) system (copyright 1990, Gaussian, Inc.),
 the Gaussian 88(TM) system (copyright 1988, Gaussian, Inc.),
 the Gaussian 86(TM) system (copyright 1986, Carnegie Mellon
 University), and the Gaussian 82(TM) system (copyright 1983,
 Carnegie Mellon University). Gaussian is a federally registered
 trademark of Gaussian, Inc.
  
 This software contains proprietary and confidential information,
 including trade secrets, belonging to Gaussian, Inc.
  
 This software is provided under written license and may be
 used, copied, transmitted, or stored only in accord with that
 written license.
  
 The following legend is applicable only to US Government
 contracts under FAR:
  
                    RESTRICTED RIGHTS LEGEND
  
 Use, reproduction and disclosure by the US Government is
 subject to restrictions as set forth in subparagraphs (a)
 and (c) of the Commercial Computer Software - Restricted
 Rights clause in FAR 52.227-19.
  
 Gaussian, Inc.
 340 Quinnipiac St., Bldg. 40, Wallingford CT 06492
  
  
 ---------------------------------------------------------------
 Warning -- This program may not be used in any manner that
 competes with the business of Gaussian, Inc. or will provide
 assistance to any competitor of Gaussian, Inc.  The licensee
 of this program is prohibited from giving any competitor of
 Gaussian, Inc. access to this program.  By using this program,
 the user acknowledges that Gaussian, Inc. is engaged in the
 business of creating and licensing software in the field of
 computational chemistry and represents and warrants to the
 licensee that it is not a competitor of Gaussian, Inc. and that
 it will not use this program in any manner prohibited above.
 ---------------------------------------------------------------
  

 Cite this work as:
 Gaussian 16, Revision A.03,
 M. J. Frisch, G. W. Trucks, H. B. Schlegel, G. E. Scuseria, 
 M. A. Robb, J. R. Cheeseman, G. Scalmani, V. Barone, 
 G. A. Petersson, H. Nakatsuji, X. Li, M. Caricato, A. V. Marenich, 
 J. Bloino, B. G. Janesko, R. Gomperts, B. Mennucci, H. P. Hratchian, 
 J. V. Ortiz, A. F. Izmaylov, J. L. Sonnenberg, D. Williams-Young, 
 F. Ding, F. Lipparini, F. Egidi, J. Goings, B. Peng, A. Petrone, 
 T. Henderson, D. Ranasinghe, V. G. Zakrzewski, J. Gao, N. Rega, 
 G. Zheng, W. Liang, M. Hada, M. Ehara, K. Toyota, R. Fukuda, 
 J. Hasegawa, M. Ishida, T. Nakajima, Y. Honda, O. Kitao, H. Nakai, 
 T. Vreven, K. Throssell, J. A. Montgomery, Jr., J. E. Peralta, 
 F. Ogliaro, M. J. Bearpark, J. J. Heyd, E. N. Brothers, K. N. Kudin, 
 V. N. Staroverov, T. A. Keith, R. Kobayashi, J. Normand, 
 K. Raghavachari, A. P. Rendell, J. C. Burant, S. S. Iyengar, 
 J. Tomasi, M. Cossi, J. M. Millam, M. Klene, C. Adamo, R. Cammi, 
 J. W. Ochterski, R. L. Martin, K. Morokuma, O. Farkas, 
 J. B. Foresman, and D. J. Fox, Gaussian, Inc., Wallingford CT, 2016.
 
 ******************************************
 Gaussian 16:  ES64L-G16RevA.03 25-Dec-2016
                17-May-2023 
 ******************************************
 %chk=Ndc1ccccc2cqcc3cc1-3rdCCd2.chk
 %NProcShared=20
 Will use up to   20 processors via shared memory.
 -----------------------------
 # opt freq b3lyp/6-31g(2df,p)
 -----------------------------
 1/18=20,19=15,26=3,38=1/1,3;
 2/9=110,12=2,17=6,18=5,40=1/2;
 3/5=1,6=6,7=104,11=2,25=1,30=1,71=1,74=-5/1,2,3;
 4//1;
 5/5=2,38=5/2;
 6/7=2,8=2,9=2,10=2,28=1/1;
 7//1,2,3,16;
 1/18=20,19=15,26=3/3(2);
 2/9=110/2;
 99//99;
 2/9=110/2;
 3/5=1,6=6,7=104,11=2,25=1,30=1,71=1,74=-5/1,2,3;
 4/5=5,16=3,69=1/1;
 5/5=2,38=5/2;
 7//1,2,3,16;
 1/18=20,19=15,26=3/3(-5);
 2/9=110/2;
 6/7=2,8=2,9=2,10=2,19=2,28=1/1;
 99/9=1/99;
 -------------------
 Title Card Required
 -------------------
 Symbolic Z-matrix:
 Charge =  0 Multiplicity = 1
 N                     3.31591  -0.45388   0.06039 
 C                     4.60679  -0.33792   0.03679 
 C                     3.71241   1.18532   0.04535 
 C                     4.6514    2.01104   0.07469 
 C                     5.01829   3.29419   0.09262 
 C                     6.30419   3.17728   0.08866 
 C                     7.36018   4.00581   0.08947 
 C                     8.66132   3.56716   0.07069 
 C                     8.9152    1.95182   0.0657 
 C                     7.9619    0.85093   0.06031 
 C                     7.76748  -0.59874   0.18519 
 C                     6.54137  -0.04148   0.02144 
 C                     8.99948   4.89661   0.09017 
 C                     7.60061   5.27668   0.09798 
 H                     2.37675  -0.85524   0.09027 
 H                     2.68029   1.59507   0.06858 
 H                     5.42362   1.35772   0.09912 
 H                     4.38055   4.11406   0.09317 
 H                     6.72817   2.2318    0.08377 
 H                     10.04193   1.97504   0.11659 
 H                     8.84693  -0.67368  -0.015 
 H                     9.89685   5.50469   0.10522 
 H                     6.6496    5.85726   0.1077 
 

 GradGradGradGradGradGradGradGradGradGradGradGradGradGradGradGradGradGrad
 Berny optimization.
 Initialization pass.
                           ----------------------------
                           !    Initial Parameters    !
                           ! (Angstroms and Degrees)  !
 --------------------------                            --------------------------
 ! Name  Definition              Value          Derivative Info.                !
 --------------------------------------------------------------------------------
 ! R1    R(1,2)                  1.2963         estimate D2E/DX2                !
 ! R2    R(1,3)                  1.6865         estimate D2E/DX2                !
 ! R3    R(1,15)                 1.0218         estimate D2E/DX2                !
 ! R4    R(2,3)                  1.7664         estimate D2E/DX2                !
 ! R5    R(3,4)                  1.2508         estimate D2E/DX2                !
 ! R6    R(3,16)                 1.1107         estimate D2E/DX2                !
 ! R7    R(4,5)                  1.3347         estimate D2E/DX2                !
 ! R8    R(4,17)                 1.0118         estimate D2E/DX2                !
 ! R9    R(5,6)                  1.2912         estimate D2E/DX2                !
 ! R10   R(5,18)                 1.0387         estimate D2E/DX2                !
 ! R11   R(6,7)                  1.3422         estimate D2E/DX2                !
 ! R12   R(6,19)                 1.0362         estimate D2E/DX2                !
 ! R13   R(7,8)                  1.3732         estimate D2E/DX2                !
 ! R14   R(7,14)                 1.2934         estimate D2E/DX2                !
 ! R15   R(8,9)                  1.6352         estimate D2E/DX2                !
 ! R16   R(8,13)                 1.3719         estimate D2E/DX2                !
 ! R17   R(9,10)                 1.4563         estimate D2E/DX2                !
 ! R18   R(9,20)                 1.1281         estimate D2E/DX2                !
 ! R19   R(10,11)                1.468          estimate D2E/DX2                !
 ! R20   R(10,12)                1.678          estimate D2E/DX2                !
 ! R21   R(11,12)                1.3567         estimate D2E/DX2                !
 ! R22   R(11,21)                1.1004         estimate D2E/DX2                !
 ! R23   R(13,14)                1.4496         estimate D2E/DX2                !
 ! R24   R(13,22)                1.0841         estimate D2E/DX2                !
 ! R25   R(14,23)                1.1143         estimate D2E/DX2                !
 ! A1    A(2,1,15)             161.9872         estimate D2E/DX2                !
 ! A2    A(3,1,15)             126.7365         estimate D2E/DX2                !
 ! A3    A(1,3,4)              144.8788         estimate D2E/DX2                !
 ! A4    A(1,3,16)              98.0422         estimate D2E/DX2                !
 ! A5    A(2,3,4)              100.9113         estimate D2E/DX2                !
 ! A6    A(2,3,16)             142.0651         estimate D2E/DX2                !
 ! A7    A(4,3,16)             116.9736         estimate D2E/DX2                !
 ! A8    A(3,4,5)              147.285          estimate D2E/DX2                !
 ! A9    A(3,4,17)              98.4684         estimate D2E/DX2                !
 ! A10   A(5,4,17)             114.2451         estimate D2E/DX2                !
 ! A11   A(4,5,6)              100.7585         estimate D2E/DX2                !
 ! A12   A(4,5,18)             126.1622         estimate D2E/DX2                !
 ! A13   A(6,5,18)             133.0725         estimate D2E/DX2                !
 ! A14   A(5,6,7)              136.6869         estimate D2E/DX2                !
 ! A15   A(5,6,19)             119.3481         estimate D2E/DX2                !
 ! A16   A(7,6,19)             103.9649         estimate D2E/DX2                !
 ! A17   A(6,7,8)              123.2478         estimate D2E/DX2                !
 ! A18   A(6,7,14)             138.8296         estimate D2E/DX2                !
 ! A19   A(8,7,14)              97.9217         estimate D2E/DX2                !
 ! A20   A(7,8,9)              117.5621         estimate D2E/DX2                !
 ! A21   A(7,8,13)              85.6305         estimate D2E/DX2                !
 ! A22   A(9,8,13)             156.789          estimate D2E/DX2                !
 ! A23   A(8,9,10)             130.1778         estimate D2E/DX2                !
 ! A24   A(8,9,20)              97.7355         estimate D2E/DX2                !
 ! A25   A(10,9,20)            132.031          estimate D2E/DX2                !
 ! A26   A(9,10,11)            146.3994         estimate D2E/DX2                !
 ! A27   A(9,10,12)            162.9937         estimate D2E/DX2                !
 ! A28   A(10,11,21)            85.5182         estimate D2E/DX2                !
 ! A29   A(12,11,21)           153.1928         estimate D2E/DX2                !
 ! A30   A(8,13,14)             90.9333         estimate D2E/DX2                !
 ! A31   A(8,13,22)            138.398          estimate D2E/DX2                !
 ! A32   A(14,13,22)           130.6661         estimate D2E/DX2                !
 ! A33   A(7,14,13)             85.5108         estimate D2E/DX2                !
 ! A34   A(7,14,23)            110.6929         estimate D2E/DX2                !
 ! A35   A(13,14,23)           163.7959         estimate D2E/DX2                !
 ! D1    D(2,1,3,15)          -179.2185         estimate D2E/DX2                !
 ! D2    D(15,1,3,4)           175.226          estimate D2E/DX2                !
 ! D3    D(15,1,3,16)           -0.4272         estimate D2E/DX2                !
 ! D4    D(1,3,4,5)           -177.8675         estimate D2E/DX2                !
 ! D5    D(1,3,4,17)             1.6019         estimate D2E/DX2                !
 ! D6    D(2,3,4,5)            179.3079         estimate D2E/DX2                !
 ! D7    D(2,3,4,17)            -1.2226         estimate D2E/DX2                !
 ! D8    D(16,3,4,5)            -2.698          estimate D2E/DX2                !
 ! D9    D(16,3,4,17)          176.7714         estimate D2E/DX2                !
 ! D10   D(3,4,5,6)           -178.386          estimate D2E/DX2                !
 ! D11   D(3,4,5,18)             0.7638         estimate D2E/DX2                !
 ! D12   D(17,4,5,6)             2.1895         estimate D2E/DX2                !
 ! D13   D(17,4,5,18)         -178.6607         estimate D2E/DX2                !
 ! D14   D(4,5,6,7)            179.4199         estimate D2E/DX2                !
 ! D15   D(4,5,6,19)            -0.6055         estimate D2E/DX2                !
 ! D16   D(18,5,6,7)             0.3595         estimate D2E/DX2                !
 ! D17   D(18,5,6,19)         -179.6659         estimate D2E/DX2                !
 ! D18   D(5,6,7,8)           -179.3332         estimate D2E/DX2                !
 ! D19   D(5,6,7,14)             0.2403         estimate D2E/DX2                !
 ! D20   D(19,6,7,8)             0.6896         estimate D2E/DX2                !
 ! D21   D(19,6,7,14)         -179.7369         estimate D2E/DX2                !
 ! D22   D(6,7,8,9)             -0.7669         estimate D2E/DX2                !
 ! D23   D(6,7,8,13)          -179.799          estimate D2E/DX2                !
 ! D24   D(14,7,8,9)           179.5166         estimate D2E/DX2                !
 ! D25   D(14,7,8,13)            0.4845         estimate D2E/DX2                !
 ! D26   D(6,7,14,13)          179.9015         estimate D2E/DX2                !
 ! D27   D(6,7,14,23)            0.0133         estimate D2E/DX2                !
 ! D28   D(8,7,14,13)           -0.4587         estimate D2E/DX2                !
 ! D29   D(8,7,14,23)          179.6532         estimate D2E/DX2                !
 ! D30   D(7,8,9,10)             0.9226         estimate D2E/DX2                !
 ! D31   D(7,8,9,20)          -176.5743         estimate D2E/DX2                !
 ! D32   D(13,8,9,10)          178.4732         estimate D2E/DX2                !
 ! D33   D(13,8,9,20)            0.9763         estimate D2E/DX2                !
 ! D34   D(7,8,13,14)           -0.4283         estimate D2E/DX2                !
 ! D35   D(7,8,13,22)          178.9944         estimate D2E/DX2                !
 ! D36   D(9,8,13,14)         -178.2507         estimate D2E/DX2                !
 ! D37   D(9,8,13,22)            1.172          estimate D2E/DX2                !
 ! D38   D(8,9,10,11)         -170.7843         estimate D2E/DX2                !
 ! D39   D(8,9,10,12)            3.8971         estimate D2E/DX2                !
 ! D40   D(20,9,10,11)           5.8756         estimate D2E/DX2                !
 ! D41   D(20,9,10,12)        -179.443          estimate D2E/DX2                !
 ! D42   D(9,10,11,21)         -17.9343         estimate D2E/DX2                !
 ! D43   D(10,11,12,21)         37.3323         estimate D2E/DX2                !
 ! D44   D(8,13,14,7)            0.4548         estimate D2E/DX2                !
 ! D45   D(8,13,14,23)        -179.9202         estimate D2E/DX2                !
 ! D46   D(22,13,14,7)        -179.0399         estimate D2E/DX2                !
 ! D47   D(22,13,14,23)          0.5851         estimate D2E/DX2                !
 --------------------------------------------------------------------------------
 Trust Radius=3.00D-01 FncErr=1.00D-07 GrdErr=1.00D-06 EigMax=2.50D+02 EigMin=1.00D-04
 Number of steps in this run=    117 maximum allowed number of steps=    138.
 GradGradGradGradGradGradGradGradGradGradGradGradGradGradGradGradGradGrad

                          Input orientation:                          
 ---------------------------------------------------------------------
 Center     Atomic      Atomic             Coordinates (Angstroms)
 Number     Number       Type             X           Y           Z
 ---------------------------------------------------------------------
      1          7           0        3.315910   -0.453880    0.060390
      2          6           0        4.606790   -0.337920    0.036790
      3          6           0        3.712410    1.185320    0.045350
      4          6           0        4.651400    2.011040    0.074690
      5          6           0        5.018290    3.294190    0.092620
      6          6           0        6.304190    3.177280    0.088660
      7          6           0        7.360180    4.005810    0.089470
      8          6           0        8.661320    3.567160    0.070690
      9          6           0        8.915200    1.951820    0.065700
     10          6           0        7.961900    0.850930    0.060310
     11          6           0        7.767480   -0.598740    0.185190
     12          6           0        6.541370   -0.041480    0.021440
     13          6           0        8.999480    4.896610    0.090170
     14          6           0        7.600610    5.276680    0.097980
     15          1           0        2.376750   -0.855240    0.090270
     16          1           0        2.680290    1.595070    0.068580
     17          1           0        5.423620    1.357720    0.099120
     18          1           0        4.380550    4.114060    0.093170
     19          1           0        6.728170    2.231800    0.083770
     20          1           0       10.041930    1.975040    0.116590
     21          1           0        8.846930   -0.673680   -0.015000
     22          1           0        9.896850    5.504690    0.105220
     23          1           0        6.649600    5.857260    0.107700
 ---------------------------------------------------------------------
                    Distance matrix (angstroms):
                    1          2          3          4          5
     1  N    0.000000
     2  C    1.296293   0.000000
     3  C    1.686539   1.766423   0.000000
     4  C    2.803492   2.349689   1.250750   0.000000
     5  C    4.116693   3.655772   2.480905   1.334692   0.000000
     6  C    4.702759   3.903907   3.269114   2.022876   1.291210
     7  C    6.020449   5.143143   4.611219   3.364047   2.447624
     8  C    6.688967   5.629388   5.492314   4.301277   3.653308
     9  C    6.094216   4.879154   5.258989   4.264221   4.121722
    10  C    4.825739   3.559590   4.262652   3.507916   3.825625
    11  C    4.455674   3.174903   4.432383   4.066094   4.766709
    12  C    3.251951   1.957220   3.083606   2.790638   3.667633
    13  C    7.805869   6.833658   6.459783   5.218482   4.291577
    14  C    7.155375   6.363210   5.644475   4.400317   3.255560
    15  H    1.021765   2.289882   2.439240   3.659213   4.918893
    16  H    2.145292   2.729261   1.110723   2.014533   2.890299
    17  H    2.779539   1.883160   1.720713   1.011804   1.978447
    18  H    4.690481   4.458081   3.004366   2.120470   1.038701
    19  H    4.342458   3.332555   3.192398   2.088490   2.013067
    20  H    7.151374   5.907360   6.378993   5.390813   5.194005
    21  H    5.535899   4.253728   5.461027   4.981791   5.514894
    22  H    8.877800   7.881974   7.543729   6.302481   5.356008
    23  H    7.137662   6.523677   5.518876   4.334432   3.038211
                    6          7          8          9         10
     6  C    0.000000
     7  C    1.342229   0.000000
     8  C    2.389224   1.373220   0.000000
     9  C    2.884381   2.576340   1.635177   0.000000
    10  C    2.856696   3.211882   2.804853   1.456286   0.000000
    11  C    4.050785   4.623520   4.262251   2.799446   1.467970
    12  C    3.228187   4.129847   4.185558   3.100044   1.678038
    13  C    3.196981   1.865698   1.371922   2.946097   4.176720
    14  C    2.467442   1.293441   2.012041   3.575456   4.440632
    15  H    5.629032   6.961636   7.684649   7.115583   5.840018
    16  H    3.954294   5.264359   6.297767   6.245109   5.333781
    17  H    2.021463   3.280661   3.919839   3.541921   2.588669
    18  H    2.139619   2.981598   4.315622   5.023852   4.845118
    19  H    1.036202   1.883237   2.349559   2.204953   1.851875
    20  H    3.926431   3.364007   2.107851   1.128118   2.365019
    21  H    4.615860   4.911106   4.245765   2.627627   1.764479
    22  H    4.280691   2.946453   2.298206   3.686202   5.040192
    23  H    2.702215   1.983210   3.048433   4.515215   5.175685
                   11         12         13         14         15
    11  C    0.000000
    12  C    1.356723   0.000000
    13  C    5.632559   5.516499   0.000000
    14  C    5.878436   5.423161   1.449604   0.000000
    15  H    5.397664   4.243937   8.771792   8.055384   0.000000
    16  H    5.541291   4.193859   7.129712   6.145296   2.469135
    17  H    3.054312   1.792529   5.030964   4.483027   3.765725
    18  H    5.804330   4.684314   4.684753   3.423521   5.358093
    19  H    3.017020   2.281793   3.501443   3.167436   5.335233
    20  H    3.435429   4.040956   3.102091   4.106241   8.171056
    21  H    1.100411   2.390944   5.573371   6.080531   6.473583
    22  H    6.464710   6.482767   1.084094   2.307544   9.848900
    23  H    6.552526   5.900363   2.538719   1.114266   7.957085
                   16         17         18         19         20
    16  H    0.000000
    17  H    2.753748   0.000000
    18  H    3.039210   2.947107   0.000000
    19  H    4.097681   1.570383   3.009038   0.000000
    20  H    7.371596   4.659418   6.052039   3.323854   0.000000
    21  H    6.571275   3.982293   6.548489   3.597320   2.908790
    22  H    8.207631   6.099769   5.688898   4.555524   3.532649
    23  H    5.824364   4.663578   2.861389   3.626390   5.155542
                   21         22         23
    21  H    0.000000
    22  H    6.268097   0.000000
    23  H    6.891770   3.266335   0.000000
 Stoichiometry    C13H9N
 Framework group  C1[X(C13H9N)]
 Deg. of freedom    63
 Full point group                 C1      NOp   1
 Largest Abelian subgroup         C1      NOp   1
 Largest concise Abelian subgroup C1      NOp   1
                         Standard orientation:                         
 ---------------------------------------------------------------------
 Center     Atomic      Atomic             Coordinates (Angstroms)
 Number     Number       Type             X           Y           Z
 ---------------------------------------------------------------------
      1          7           0        4.012784   -0.441796    0.002103
      2          6           0        3.014409    0.384491   -0.027436
      3          6           0        2.577358   -1.326985   -0.018135
      4          6           0        1.329052   -1.252438    0.005325
      5          6           0        0.165138   -1.905526    0.018936
      6          6           0       -0.665866   -0.917313    0.009549
      7          6           0       -1.999119   -0.762448    0.003957
      8          6           0       -2.614398    0.464991   -0.019640
      9          6           0       -1.657613    1.791022   -0.022351
     10          6           0       -0.205553    1.901885   -0.021219
     11          6           0        0.952422    2.794883    0.107568
     12          6           0        1.431759    1.535721   -0.051944
     13          6           0       -3.790505   -0.241203   -0.004449
     14          6           0       -3.064526   -1.495848    0.008732
     15          1           0        4.962219   -0.817777    0.036970
     16          1           0        3.021887   -2.344519    0.008786
     17          1           0        1.240355   -0.244778    0.027722
     18          1           0        0.040965   -2.936777    0.020574
     19          1           0       -0.301429    0.052676    0.004778
     20          1           0       -2.474460    2.567749    0.023519
     21          1           0        0.239411    3.607645   -0.097224
     22          1           0       -4.855982   -0.041394    0.005362
     23          1           0       -2.797796   -2.577643    0.021426
 ---------------------------------------------------------------------
 Rotational constants (GHZ):           1.3276818           0.5058628           0.3664155
 Standard basis: 6-31G(2df,p) (6D, 7F)
 There are   479 symmetry adapted cartesian basis functions of A   symmetry.
 There are   437 symmetry adapted basis functions of A   symmetry.
   437 basis functions,   679 primitive gaussians,   479 cartesian basis functions
    47 alpha electrons       47 beta electrons
       nuclear repulsion energy       749.7565727816 Hartrees.
 NAtoms=   23 NActive=   23 NUniq=   23 SFac= 1.00D+00 NAtFMM=   60 NAOKFM=F Big=F
 Integral buffers will be    131072 words long.
 Raffenetti 2 integral format.
 Two-electron integral symmetry is turned on.
 One-electron integrals computed using PRISM.
 PrsmSu:  requested number of processors reduced to:  13 ShMem   1 Linda.
 NBasis=   437 RedAO= T EigKep=  1.19D-04  NBF=   437
 NBsUse=   437 1.00D-06 EigRej= -1.00D+00 NBFU=   437
 ExpMin= 1.61D-01 ExpMax= 4.17D+03 ExpMxC= 6.27D+02 IAcc=3 IRadAn=         5 AccDes= 0.00D+00
 Harris functional with IExCor=  402 and IRadAn=       5 diagonalized for initial guess.
 HarFok:  IExCor=  402 AccDes= 0.00D+00 IRadAn=         5 IDoV= 1 UseB2=F ITyADJ=14
 ICtDFT=  3500011 ScaDFX=  1.000000  1.000000  1.000000  1.000000
 FoFCou: FMM=F IPFlag=           0 FMFlag=      100000 FMFlg1=           0
         NFxFlg=           0 DoJE=T BraDBF=F KetDBF=T FulRan=T
         wScrn=  0.000000 ICntrl=       500 IOpCl=  0 I1Cent=   200000004 NGrid=           0
         NMat0=    1 NMatS0=      1 NMatT0=    0 NMatD0=    1 NMtDS0=    0 NMtDT0=    0
 Petite list used in FoFCou.
 Requested convergence on RMS density matrix=1.00D-08 within 128 cycles.
 Requested convergence on MAX density matrix=1.00D-06.
 Requested convergence on             energy=1.00D-06.
 No special actions if energy rises.
 Integral accuracy reduced to 1.0D-05 until final iterations.
 EnCoef did     5 forward-backward iterations
 EnCoef did     5 forward-backward iterations
 EnCoef did     7 forward-backward iterations
 EnCoef did    10 forward-backward iterations
 EnCoef did     1 forward-backward iterations
 Initial convergence to 1.0D-05 achieved.  Increase integral accuracy.
 SCF Done:  E(RB3LYP) =  -554.625501119     A.U. after   28 cycles
            NFock= 28  Conv=0.83D-08     -V/T= 2.0042

 **********************************************************************

            Population analysis using the SCF density.

 **********************************************************************

 Orbital symmetries:
       Occupied  (A) (A) (A) (A) (A) (A) (A) (A) (A) (A) (A) (A)
                 (A) (A) (A) (A) (A) (A) (A) (A) (A) (A) (A) (A)
                 (A) (A) (A) (A) (A) (A) (A) (A) (A) (A) (A) (A)
                 (A) (A) (A) (A) (A) (A) (A) (A) (A) (A) (A)
       Virtual   (A) (A) (A) (A) (A) (A) (A) (A) (A) (A) (A) (A)
                 (A) (A) (A) (A) (A) (A) (A) (A) (A) (A) (A) (A)
                 (A) (A) (A) (A) (A) (A) (A) (A) (A) (A) (A) (A)
                 (A) (A) (A) (A) (A) (A) (A) (A) (A) (A) (A) (A)
                 (A) (A) (A) (A) (A) (A) (A) (A) (A) (A) (A) (A)
                 (A) (A) (A) (A) (A) (A) (A) (A) (A) (A) (A) (A)
                 (A) (A) (A) (A) (A) (A) (A) (A) (A) (A) (A) (A)
                 (A) (A) (A) (A) (A) (A) (A) (A) (A) (A) (A) (A)
                 (A) (A) (A) (A) (A) (A) (A) (A) (A) (A) (A) (A)
                 (A) (A) (A) (A) (A) (A) (A) (A) (A) (A) (A) (A)
                 (A) (A) (A) (A) (A) (A) (A) (A) (A) (A) (A) (A)
                 (A) (A) (A) (A) (A) (A) (A) (A) (A) (A) (A) (A)
                 (A) (A) (A) (A) (A) (A) (A) (A) (A) (A) (A) (A)
                 (A) (A) (A) (A) (A) (A) (A) (A) (A) (A) (A) (A)
                 (A) (A) (A) (A) (A) (A) (A) (A) (A) (A) (A) (A)
                 (A) (A) (A) (A) (A) (A) (A) (A) (A) (A) (A) (A)
                 (A) (A) (A) (A) (A) (A) (A) (A) (A) (A) (A) (A)
                 (A) (A) (A) (A) (A) (A) (A) (A) (A) (A) (A) (A)
                 (A) (A) (A) (A) (A) (A) (A) (A) (A) (A) (A) (A)
                 (A) (A) (A) (A) (A) (A) (A) (A) (A) (A) (A) (A)
                 (A) (A) (A) (A) (A) (A) (A) (A) (A) (A) (A) (A)
                 (A) (A) (A) (A) (A) (A) (A) (A) (A) (A) (A) (A)
                 (A) (A) (A) (A) (A) (A) (A) (A) (A) (A) (A) (A)
                 (A) (A) (A) (A) (A) (A) (A) (A) (A) (A) (A) (A)
                 (A) (A) (A) (A) (A) (A) (A) (A) (A) (A) (A) (A)
                 (A) (A) (A) (A) (A) (A) (A) (A) (A) (A) (A) (A)
                 (A) (A) (A) (A) (A) (A) (A) (A) (A) (A) (A) (A)
                 (A) (A) (A) (A) (A) (A) (A) (A) (A) (A) (A) (A)
                 (A) (A) (A) (A) (A) (A) (A) (A) (A) (A) (A) (A)
                 (A) (A) (A) (A) (A) (A) (A) (A) (A) (A) (A) (A)
                 (A) (A) (A) (A) (A) (A) (A) (A) (A) (A) (A) (A)
                 (A) (A) (A) (A) (A) (A) (A) (A) (A) (A) (A) (A)
                 (A) (A) (A) (A) (A) (A)
 The electronic state is 1-A.
 Alpha  occ. eigenvalues --  -14.43454 -10.32627 -10.22418 -10.21713 -10.20930
 Alpha  occ. eigenvalues --  -10.20901 -10.20575 -10.18250 -10.18180 -10.17259
 Alpha  occ. eigenvalues --  -10.14775 -10.14076 -10.13354 -10.12971  -1.00353
 Alpha  occ. eigenvalues --   -0.91095  -0.85611  -0.84290  -0.76333  -0.70600
 Alpha  occ. eigenvalues --   -0.69648  -0.66146  -0.62612  -0.59308  -0.56339
 Alpha  occ. eigenvalues --   -0.55594  -0.52130  -0.50700  -0.48874  -0.45556
 Alpha  occ. eigenvalues --   -0.44645  -0.42962  -0.42166  -0.40027  -0.38801
 Alpha  occ. eigenvalues --   -0.38561  -0.36306  -0.34054  -0.33538  -0.33169
 Alpha  occ. eigenvalues --   -0.30234  -0.28605  -0.23755  -0.23607  -0.21348
 Alpha  occ. eigenvalues --   -0.14985  -0.13598
 Alpha virt. eigenvalues --   -0.09191  -0.08747  -0.06508   0.01021   0.01825
 Alpha virt. eigenvalues --    0.03351   0.04191   0.06309   0.08214   0.09165
 Alpha virt. eigenvalues --    0.09635   0.11706   0.13680   0.15802   0.16570
 Alpha virt. eigenvalues --    0.17669   0.18646   0.20135   0.24083   0.24869
 Alpha virt. eigenvalues --    0.27747   0.29160   0.29945   0.32036   0.34371
 Alpha virt. eigenvalues --    0.35763   0.36884   0.39758   0.41213   0.42006
 Alpha virt. eigenvalues --    0.43296   0.43712   0.45900   0.46943   0.47661
 Alpha virt. eigenvalues --    0.48466   0.49923   0.50269   0.50880   0.51415
 Alpha virt. eigenvalues --    0.52785   0.53583   0.54194   0.54499   0.55451
 Alpha virt. eigenvalues --    0.56233   0.58028   0.58425   0.59158   0.59629
 Alpha virt. eigenvalues --    0.61536   0.62374   0.63707   0.64448   0.64486
 Alpha virt. eigenvalues --    0.65824   0.66691   0.68132   0.68813   0.69847
 Alpha virt. eigenvalues --    0.70284   0.71165   0.71373   0.72271   0.72534
 Alpha virt. eigenvalues --    0.73182   0.73792   0.74597   0.75507   0.75648
 Alpha virt. eigenvalues --    0.77542   0.78095   0.78477   0.79171   0.82167
 Alpha virt. eigenvalues --    0.82306   0.83135   0.84555   0.85114   0.86709
 Alpha virt. eigenvalues --    0.89317   0.89905   0.90837   0.92251   0.94999
 Alpha virt. eigenvalues --    0.95476   0.97000   0.97766   0.99812   1.00300
 Alpha virt. eigenvalues --    1.01908   1.02541   1.03835   1.04237   1.06345
 Alpha virt. eigenvalues --    1.08127   1.09754   1.11074   1.13303   1.14854
 Alpha virt. eigenvalues --    1.17367   1.18235   1.19453   1.20570   1.22150
 Alpha virt. eigenvalues --    1.23299   1.23869   1.25055   1.27632   1.28064
 Alpha virt. eigenvalues --    1.29427   1.31300   1.32145   1.33475   1.33766
 Alpha virt. eigenvalues --    1.36891   1.38254   1.38567   1.40204   1.41324
 Alpha virt. eigenvalues --    1.42728   1.43326   1.45671   1.46874   1.48051
 Alpha virt. eigenvalues --    1.49321   1.50558   1.51314   1.52490   1.53211
 Alpha virt. eigenvalues --    1.54439   1.57494   1.57974   1.58737   1.60979
 Alpha virt. eigenvalues --    1.61221   1.62086   1.64310   1.66863   1.67686
 Alpha virt. eigenvalues --    1.69789   1.72522   1.73349   1.76215   1.77526
 Alpha virt. eigenvalues --    1.80356   1.84191   1.84692   1.87139   1.87751
 Alpha virt. eigenvalues --    1.91168   1.92491   1.92702   1.95505   1.96490
 Alpha virt. eigenvalues --    2.03956   2.07124   2.08912   2.13878   2.17597
 Alpha virt. eigenvalues --    2.18385   2.19667   2.20763   2.23007   2.24046
 Alpha virt. eigenvalues --    2.26509   2.27998   2.29772   2.30774   2.31410
 Alpha virt. eigenvalues --    2.33758   2.35379   2.36603   2.38881   2.42542
 Alpha virt. eigenvalues --    2.42954   2.47849   2.48726   2.49393   2.50746
 Alpha virt. eigenvalues --    2.52552   2.53964   2.59149   2.60454   2.62113
 Alpha virt. eigenvalues --    2.63361   2.66435   2.67510   2.68468   2.69388
 Alpha virt. eigenvalues --    2.73064   2.73610   2.74209   2.77421   2.78017
 Alpha virt. eigenvalues --    2.79797   2.81755   2.83857   2.85710   2.86228
 Alpha virt. eigenvalues --    2.87411   2.88158   2.90570   2.91369   2.95559
 Alpha virt. eigenvalues --    2.98419   2.98751   3.00589   3.01198   3.02874
 Alpha virt. eigenvalues --    3.04270   3.04447   3.05550   3.06580   3.07543
 Alpha virt. eigenvalues --    3.08472   3.10991   3.11759   3.13037   3.15234
 Alpha virt. eigenvalues --    3.16009   3.16940   3.17397   3.18586   3.22439
 Alpha virt. eigenvalues --    3.23348   3.24552   3.25757   3.27428   3.27545
 Alpha virt. eigenvalues --    3.28858   3.29455   3.30402   3.31782   3.32831
 Alpha virt. eigenvalues --    3.34622   3.36629   3.37971   3.39390   3.40330
 Alpha virt. eigenvalues --    3.41935   3.42554   3.43323   3.45367   3.45592
 Alpha virt. eigenvalues --    3.46753   3.48406   3.51658   3.53132   3.53983
 Alpha virt. eigenvalues --    3.56371   3.57505   3.58092   3.60257   3.62188
 Alpha virt. eigenvalues --    3.62864   3.64603   3.65690   3.68076   3.69548
 Alpha virt. eigenvalues --    3.70225   3.70748   3.72601   3.74198   3.74521
 Alpha virt. eigenvalues --    3.77664   3.78624   3.80996   3.82379   3.83444
 Alpha virt. eigenvalues --    3.86581   3.87588   3.89077   3.92774   3.93439
 Alpha virt. eigenvalues --    3.94807   3.99707   4.00569   4.02715   4.04951
 Alpha virt. eigenvalues --    4.06046   4.07871   4.09511   4.11476   4.14568
 Alpha virt. eigenvalues --    4.17383   4.18457   4.21907   4.22571   4.26663
 Alpha virt. eigenvalues --    4.26741   4.27413   4.28509   4.29697   4.31755
 Alpha virt. eigenvalues --    4.33425   4.35581   4.36935   4.38055   4.38766
 Alpha virt. eigenvalues --    4.39880   4.40843   4.42203   4.43440   4.45668
 Alpha virt. eigenvalues --    4.46062   4.47036   4.48095   4.49147   4.51796
 Alpha virt. eigenvalues --    4.52547   4.54135   4.55343   4.56365   4.57931
 Alpha virt. eigenvalues --    4.60170   4.61715   4.62966   4.64043   4.64688
 Alpha virt. eigenvalues --    4.65376   4.65584   4.68234   4.70606   4.72737
 Alpha virt. eigenvalues --    4.73209   4.74275   4.78001   4.78797   4.80846
 Alpha virt. eigenvalues --    4.82606   4.84648   4.86981   4.88869   4.90373
 Alpha virt. eigenvalues --    4.96660   4.98638   5.00556   5.02362   5.03808
 Alpha virt. eigenvalues --    5.05537   5.07712   5.09035   5.09653   5.12341
 Alpha virt. eigenvalues --    5.15809   5.16820   5.17631   5.20364   5.27094
 Alpha virt. eigenvalues --    5.30893   5.31557   5.35422   5.35628   5.41643
 Alpha virt. eigenvalues --    5.42215   5.45945   5.48266   5.51057   5.52631
 Alpha virt. eigenvalues --    5.58062   5.63053   5.70794   5.76332   5.77122
 Alpha virt. eigenvalues --    5.84915   5.90800   5.95661   6.05949   6.15645
 Alpha virt. eigenvalues --    6.18308   6.39744   6.44568   6.74190   7.52716
 Alpha virt. eigenvalues --    9.66110   9.84513  10.17260  10.38524  10.62340
 Alpha virt. eigenvalues --   10.83164  11.01434  11.21116  11.25137  11.54208
 Alpha virt. eigenvalues --   11.64055  11.99139  12.14196  12.68254  16.96074
          Condensed to atoms (all electrons):
               1          2          3          4          5          6
     1  N    6.859322   0.420750  -0.018594  -0.026639   0.000712  -0.000020
     2  C    0.420750   5.378570   0.211290   0.005083   0.010186   0.000602
     3  C   -0.018594   0.211290   5.824209   0.352807  -0.087307  -0.019815
     4  C   -0.026639   0.005083   0.352807   4.412797   0.440786   0.101413
     5  C    0.000712   0.010186  -0.087307   0.440786   5.445724   0.449230
     6  C   -0.000020   0.000602  -0.019815   0.101413   0.449230   5.255190
     7  C   -0.000003   0.000229  -0.004971   0.004248  -0.066811   0.246888
     8  C    0.000000  -0.000041   0.000027  -0.000314   0.017368   0.002160
     9  C   -0.000000  -0.000129  -0.000047  -0.000431   0.001700  -0.044086
    10  C   -0.000247   0.006649   0.000867  -0.010354   0.002379  -0.042367
    11  C   -0.000385  -0.014498   0.000343   0.005051  -0.000800   0.005834
    12  C    0.008165  -0.144163  -0.035566  -0.030579  -0.003255  -0.022648
    13  C    0.000000   0.000000  -0.000002  -0.000075   0.000689   0.025890
    14  C    0.000000   0.000000   0.000021   0.001967  -0.056120  -0.191327
    15  H    0.126572   0.008053   0.018235   0.002479   0.000137   0.000002
    16  H   -0.098329  -0.000045   0.261271   0.030806  -0.006192   0.000884
    17  H   -0.006640  -0.095558  -0.130811   0.391910  -0.031043  -0.051658
    18  H   -0.000036  -0.000240  -0.005989  -0.034416   0.358576  -0.028638
    19  H    0.000238   0.000377   0.007812  -0.032491  -0.111811   0.337942
    20  H   -0.000000   0.000003   0.000000  -0.000019   0.000011   0.000542
    21  H    0.000005  -0.000280  -0.000010  -0.000089   0.000002  -0.000132
    22  H   -0.000000   0.000000   0.000000  -0.000000   0.000011  -0.001265
    23  H   -0.000000   0.000000  -0.000003  -0.000337   0.008584  -0.008475
               7          8          9         10         11         12
     1  N   -0.000003   0.000000  -0.000000  -0.000247  -0.000385   0.008165
     2  C    0.000229  -0.000041  -0.000129   0.006649  -0.014498  -0.144163
     3  C   -0.004971   0.000027  -0.000047   0.000867   0.000343  -0.035566
     4  C    0.004248  -0.000314  -0.000431  -0.010354   0.005051  -0.030579
     5  C   -0.066811   0.017368   0.001700   0.002379  -0.000800  -0.003255
     6  C    0.246888   0.002160  -0.044086  -0.042367   0.005834  -0.022648
     7  C    4.641129   0.315072  -0.019047   0.002550   0.000074  -0.000067
     8  C    0.315072   4.813662   0.354617  -0.011963   0.004229  -0.001389
     9  C   -0.019047   0.354617   5.381640   0.549161  -0.075205  -0.015637
    10  C    0.002550  -0.011963   0.549161   4.794705   0.333096   0.215543
    11  C    0.000074   0.004229  -0.075205   0.333096   5.424093   0.431584
    12  C   -0.000067  -0.001389  -0.015637   0.215543   0.431584   5.611754
    13  C    0.043787   0.489573  -0.058104  -0.000352   0.000011  -0.000009
    14  C    0.416690  -0.014573   0.023648   0.001976   0.000010  -0.000023
    15  H    0.000000  -0.000000   0.000000   0.000021   0.000002  -0.003039
    16  H    0.000128  -0.000000   0.000001   0.000040   0.000001  -0.001678
    17  H    0.000301   0.001215  -0.000179  -0.009662  -0.012634   0.058048
    18  H   -0.016282  -0.000041  -0.000020  -0.000140   0.000006  -0.000179
    19  H   -0.027404  -0.061131   0.008670   0.011531  -0.009983   0.008251
    20  H    0.003703  -0.054955   0.347619  -0.060259  -0.005485   0.001180
    21  H   -0.000028  -0.000160   0.001727  -0.020341   0.293772   0.017582
    22  H   -0.003890  -0.015364  -0.000821  -0.000019   0.000000   0.000000
    23  H    0.023154   0.001562  -0.000546  -0.000020  -0.000000   0.000000
              13         14         15         16         17         18
     1  N    0.000000   0.000000   0.126572  -0.098329  -0.006640  -0.000036
     2  C    0.000000   0.000000   0.008053  -0.000045  -0.095558  -0.000240
     3  C   -0.000002   0.000021   0.018235   0.261271  -0.130811  -0.005989
     4  C   -0.000075   0.001967   0.002479   0.030806   0.391910  -0.034416
     5  C    0.000689  -0.056120   0.000137  -0.006192  -0.031043   0.358576
     6  C    0.025890  -0.191327   0.000002   0.000884  -0.051658  -0.028638
     7  C    0.043787   0.416690   0.000000   0.000128   0.000301  -0.016282
     8  C    0.489573  -0.014573  -0.000000  -0.000000   0.001215  -0.000041
     9  C   -0.058104   0.023648   0.000000   0.000001  -0.000179  -0.000020
    10  C   -0.000352   0.001976   0.000021   0.000040  -0.009662  -0.000140
    11  C    0.000011   0.000010   0.000002   0.000001  -0.012634   0.000006
    12  C   -0.000009  -0.000023  -0.003039  -0.001678   0.058048  -0.000179
    13  C    5.449739   0.123473  -0.000000   0.000000   0.000006  -0.000058
    14  C    0.123473   5.700729  -0.000000  -0.000001  -0.000493   0.000255
    15  H   -0.000000  -0.000000   0.576981   0.015448  -0.000667  -0.000002
    16  H    0.000000  -0.000001   0.015448   0.715321   0.012381   0.002414
    17  H    0.000006  -0.000493  -0.000667   0.012381   0.757516   0.007800
    18  H   -0.000058   0.000255  -0.000002   0.002414   0.007800   0.622518
    19  H   -0.001491   0.022159  -0.000004  -0.000284  -0.032631   0.005571
    20  H    0.002012  -0.001305   0.000000   0.000000  -0.000012  -0.000000
    21  H   -0.000001  -0.000001  -0.000000  -0.000000   0.000368  -0.000000
    22  H    0.336869  -0.025147   0.000000  -0.000000  -0.000000  -0.000000
    23  H   -0.011160   0.279296   0.000000   0.000000   0.000041   0.001589
              19         20         21         22         23
     1  N    0.000238  -0.000000   0.000005  -0.000000  -0.000000
     2  C    0.000377   0.000003  -0.000280   0.000000   0.000000
     3  C    0.007812   0.000000  -0.000010   0.000000  -0.000003
     4  C   -0.032491  -0.000019  -0.000089  -0.000000  -0.000337
     5  C   -0.111811   0.000011   0.000002   0.000011   0.008584
     6  C    0.337942   0.000542  -0.000132  -0.001265  -0.008475
     7  C   -0.027404   0.003703  -0.000028  -0.003890   0.023154
     8  C   -0.061131  -0.054955  -0.000160  -0.015364   0.001562
     9  C    0.008670   0.347619   0.001727  -0.000821  -0.000546
    10  C    0.011531  -0.060259  -0.020341  -0.000019  -0.000020
    11  C   -0.009983  -0.005485   0.293772   0.000000  -0.000000
    12  C    0.008251   0.001180   0.017582   0.000000   0.000000
    13  C   -0.001491   0.002012  -0.000001   0.336869  -0.011160
    14  C    0.022159  -0.001305  -0.000001  -0.025147   0.279296
    15  H   -0.000004   0.000000  -0.000000   0.000000   0.000000
    16  H   -0.000284   0.000000  -0.000000  -0.000000   0.000000
    17  H   -0.032631  -0.000012   0.000368  -0.000000   0.000041
    18  H    0.005571  -0.000000  -0.000000  -0.000000   0.001589
    19  H    0.776611   0.000271   0.000683   0.000009  -0.000667
    20  H    0.000271   0.660440   0.002268   0.000721   0.000017
    21  H    0.000683   0.002268   0.477787   0.000000   0.000000
    22  H    0.000009   0.000721   0.000000   0.618106   0.001204
    23  H   -0.000667   0.000017   0.000000   0.001204   0.577211
 Mulliken charges:
               1
     1  N   -0.264870
     2  C    0.213162
     3  C   -0.373767
     4  C    0.386396
     5  C   -0.372755
     6  C   -0.016147
     7  C    0.440550
     8  C    0.160445
     9  C   -0.454529
    10  C    0.237204
    11  C   -0.379117
    12  C   -0.093876
    13  C   -0.400797
    14  C   -0.281236
    15  H    0.255781
    16  H    0.067834
    17  H    0.142403
    18  H    0.087314
    19  H    0.097774
    20  H    0.103247
    21  H    0.226848
    22  H    0.089586
    23  H    0.128549
 Sum of Mulliken charges =  -0.00000
 Mulliken charges with hydrogens summed into heavy atoms:
               1
     1  N   -0.009089
     2  C    0.213162
     3  C   -0.305934
     4  C    0.528799
     5  C   -0.285441
     6  C    0.081628
     7  C    0.440550
     8  C    0.160445
     9  C   -0.351282
    10  C    0.237204
    11  C   -0.152269
    12  C   -0.093876
    13  C   -0.311211
    14  C   -0.152686
 Electronic spatial extent (au):  <R**2>=           2827.1350
 Charge=             -0.0000 electrons
 Dipole moment (field-independent basis, Debye):
    X=              4.9052    Y=             -1.3778    Z=              0.0111  Tot=              5.0950
 Quadrupole moment (field-independent basis, Debye-Ang):
   XX=            -58.2891   YY=            -75.2802   ZZ=            -84.2251
   XY=             -4.8296   XZ=              0.1760   YZ=             -0.6686
 Traceless Quadrupole moment (field-independent basis, Debye-Ang):
   XX=             14.3090   YY=             -2.6821   ZZ=            -11.6269
   XY=             -4.8296   XZ=              0.1760   YZ=             -0.6686
 Octapole moment (field-independent basis, Debye-Ang**2):
  XXX=            132.0988  YYY=            -15.3712  ZZZ=              0.0735  XYY=             -4.6142
  XXY=            -25.8380  XXZ=              1.9947  XZZ=              5.5721  YZZ=             -2.7072
  YYZ=             -2.0699  XYZ=             -0.7518
 Hexadecapole moment (field-independent basis, Debye-Ang**3):
 XXXX=          -2060.5226 YYYY=          -1076.1285 ZZZZ=            -86.0965 XXXY=           -125.2337
 XXXZ=              4.6362 YYYX=            -44.3923 YYYZ=            -10.6825 ZZZX=             -0.0798
 ZZZY=             -0.5368 XXYY=           -633.0976 XXZZ=           -496.5169 YYZZ=           -220.0656
 XXYZ=             -1.5347 YYXZ=             -1.0188 ZZXY=              1.3233
 N-N= 7.497565727816D+02 E-N=-2.787925649036D+03  KE= 5.522980394711D+02
 PrsmSu:  requested number of processors reduced to:  13 ShMem   1 Linda.
 Calling FoFJK, ICntrl=      2127 FMM=F ISym2X=0 I1Cent= 0 IOpClX= 0 NMat=1 NMatS=1 NMatT=0.
 ***** Axes restored to original set *****
 -------------------------------------------------------------------
 Center     Atomic                   Forces (Hartrees/Bohr)
 Number     Number              X              Y              Z
 -------------------------------------------------------------------
      1        7           0.057135767   -0.050382804    0.001731106
      2        6          -0.160334630    0.009781712   -0.003447071
      3        6          -0.112048984    0.003987491   -0.002399828
      4        6          -0.002646066   -0.018410134    0.002990017
      5        6          -0.042850252    0.027151275    0.000294981
      6        6           0.066977809    0.042685780    0.001879863
      7        6          -0.115003773   -0.008125688   -0.000596692
      8        6           0.084812151   -0.101895251   -0.003344830
      9        6          -0.002537961    0.043430803    0.001381599
     10        6          -0.001497440    0.046856660    0.007756433
     11        6           0.060254876    0.030433971   -0.021122817
     12        6           0.106819852    0.026888812    0.005063854
     13        6           0.095988511    0.005164827   -0.000171349
     14        6          -0.075530445    0.050426224    0.000828242
     15        1          -0.010807115   -0.019449182    0.001368241
     16        1          -0.006433068   -0.022666104   -0.003076786
     17        1           0.066533383   -0.011367165    0.001178675
     18        1          -0.016596187    0.030911165   -0.000063712
     19        1          -0.001342304   -0.023867627   -0.000446866
     20        1          -0.020939091   -0.032508419   -0.000243688
     21        1          -0.008826830   -0.048081681    0.010609143
     22        1           0.002901607   -0.004855699   -0.000408646
     23        1           0.035970192    0.023891036    0.000240130
 -------------------------------------------------------------------
 Cartesian Forces:  Max     0.160334630 RMS     0.044467199

 GradGradGradGradGradGradGradGradGradGradGradGradGradGradGradGradGradGrad
 Berny optimization.
 FormGI is forming the generalized inverse of G from B-inverse, IUseBI=4.
 Internal  Forces:  Max     0.447135061 RMS     0.121174151
 Search for a local minimum.
 Step number   1 out of a maximum of  117
 All quantities printed in internal units (Hartrees-Bohrs-Radians)
 Mixed Optimization -- RFO/linear search
 Second derivative matrix not updated -- first step.
 ITU=  0
     Eigenvalues ---    0.00230   0.00233   0.00948   0.01328   0.01344
     Eigenvalues ---    0.01449   0.01564   0.02092   0.02123   0.02550
     Eigenvalues ---    0.02853   0.02864   0.02953   0.03019   0.03025
     Eigenvalues ---    0.03226   0.03269   0.03528   0.03575   0.04063
     Eigenvalues ---    0.14011   0.15331   0.15990   0.15995   0.15998
     Eigenvalues ---    0.15998   0.15999   0.16000   0.16000   0.16000
     Eigenvalues ---    0.18567   0.18798   0.21512   0.22000   0.22000
     Eigenvalues ---    0.22000   0.22001   0.22753   0.23558   0.24919
     Eigenvalues ---    0.24962   0.24999   0.30755   0.32153   0.32524
     Eigenvalues ---    0.33637   0.34957   0.35036   0.35504   0.37433
     Eigenvalues ---    0.41484   0.41850   0.44058   0.44868   0.45672
     Eigenvalues ---    0.47096   0.50780   0.56708   0.58411   0.62994
     Eigenvalues ---    0.63863   0.69695   0.82960
 RFO step:  Lambda=-1.11815148D+00 EMin= 2.30000000D-03
 Linear search not attempted -- first point.
 Maximum step size (   0.300) exceeded in Quadratic search.
    -- Step size scaled by   0.335
 Iteration  1 RMS(Cart)=  0.24858574 RMS(Int)=  0.01736938
 Iteration  2 RMS(Cart)=  0.26736751 RMS(Int)=  0.00870086
 Iteration  3 RMS(Cart)=  0.03240874 RMS(Int)=  0.00011512
 Iteration  4 RMS(Cart)=  0.00033051 RMS(Int)=  0.00003513
 Iteration  5 RMS(Cart)=  0.00000003 RMS(Int)=  0.00003513
 Variable       Old X    -DE/DX   Delta X   Delta X   Delta X     New X
                                 (Linear)    (Quad)   (Total)
    R1        2.44964  -0.09920   0.00000  -0.01902  -0.01901   2.43063
    R2        3.18710   0.08804   0.00000   0.02266   0.02265   3.20974
    R3        1.93086   0.01761   0.00000   0.00379   0.00379   1.93464
    R4        3.33806  -0.04643   0.00000  -0.01173  -0.01172   3.32633
    R5        2.36358   0.22665   0.00000   0.03900   0.03900   2.40257
    R6        2.09896  -0.00245   0.00000  -0.00057  -0.00057   2.09839
    R7        2.52220   0.15068   0.00000   0.02967   0.02967   2.55187
    R8        1.91203   0.05815   0.00000   0.01237   0.01237   1.92441
    R9        2.44003   0.22254   0.00000   0.04109   0.04109   2.48112
   R10        1.96286   0.03459   0.00000   0.00756   0.00756   1.97042
   R11        2.53644   0.14730   0.00000   0.02929   0.02929   2.56574
   R12        1.95814   0.02123   0.00000   0.00463   0.00463   1.96277
   R13        2.59501   0.31373   0.00000   0.06676   0.06683   2.66184
   R14        2.44425   0.08597   0.00000   0.01678   0.01689   2.46114
   R15        3.09004  -0.04553   0.00000  -0.01144  -0.01144   3.07859
   R16        2.59256   0.00433   0.00000   0.00006  -0.00004   2.59251
   R17        2.75198  -0.14503   0.00000  -0.03256  -0.03256   2.71942
   R18        2.13183  -0.02159   0.00000  -0.00508  -0.00508   2.12676
   R19        2.77406   0.02252   0.00000   0.00515   0.00515   2.77922
   R20        3.17103  -0.10957   0.00000  -0.02805  -0.02806   3.14298
   R21        2.56384  -0.00800   0.00000  -0.00167  -0.00166   2.56218
   R22        2.07948  -0.00731   0.00000  -0.00169  -0.00169   2.07779
   R23        2.73935  -0.00108   0.00000  -0.00228  -0.00234   2.73701
   R24        2.04864  -0.00033   0.00000  -0.00007  -0.00007   2.04857
   R25        2.10566  -0.01825   0.00000  -0.00425  -0.00425   2.10141
    A1        2.82721   0.00215   0.00000   0.00107   0.00111   2.82832
    A2        2.21197   0.02846   0.00000   0.00797   0.00801   2.21998
    A3        2.52861   0.05327   0.00000   0.01418   0.01415   2.54277
    A4        1.71116  -0.02229   0.00000  -0.00668  -0.00666   1.70450
    A5        1.76123   0.08912   0.00000   0.02128   0.02131   1.78254
    A6        2.47950  -0.05788   0.00000  -0.01371  -0.01374   2.46577
    A7        2.04157  -0.03083   0.00000  -0.00746  -0.00746   2.03412
    A8        2.57061  -0.24270   0.00000  -0.06078  -0.06078   2.50983
    A9        1.71860   0.15411   0.00000   0.03898   0.03898   1.75758
   A10        1.99395   0.08858   0.00000   0.02180   0.02180   2.01575
   A11        1.75857   0.44714   0.00000   0.11198   0.11198   1.87055
   A12        2.20195  -0.21783   0.00000  -0.05449  -0.05448   2.14746
   A13        2.32255  -0.22926   0.00000  -0.05748  -0.05748   2.26507
   A14        2.38564  -0.34275   0.00000  -0.08584  -0.08584   2.29980
   A15        2.08302   0.16061   0.00000   0.04010   0.04010   2.12312
   A16        1.81453   0.18214   0.00000   0.04574   0.04574   1.86027
   A17        2.15108   0.41444   0.00000   0.10033   0.10026   2.25134
   A18        2.42303  -0.30155   0.00000  -0.07506  -0.07513   2.34791
   A19        1.70906  -0.11288   0.00000  -0.02527  -0.02513   1.68393
   A20        2.05185   0.38398   0.00000   0.09359   0.09361   2.14546
   A21        1.49453  -0.01769   0.00000  -0.00334  -0.00339   1.49115
   A22        2.73648  -0.36651   0.00000  -0.09030  -0.09027   2.64621
   A23        2.27203   0.23138   0.00000   0.05795   0.05795   2.32998
   A24        1.70581  -0.08146   0.00000  -0.01999  -0.01999   1.68581
   A25        2.30437  -0.14965   0.00000  -0.03788  -0.03788   2.26649
   A26        2.55515  -0.08481   0.00000  -0.02100  -0.02098   2.53417
   A27        2.84478   0.06771   0.00000   0.01641   0.01644   2.86121
   A28        1.49257   0.07295   0.00000   0.01903   0.01902   1.51160
   A29        2.67372   0.02063   0.00000   0.00576   0.00579   2.67950
   A30        1.58709   0.06241   0.00000   0.01270   0.01256   1.59964
   A31        2.41550  -0.03700   0.00000  -0.00787  -0.00780   2.40770
   A32        2.28055  -0.02538   0.00000  -0.00482  -0.00475   2.27580
   A33        1.49245   0.06815   0.00000   0.01591   0.01596   1.50840
   A34        1.93196   0.00714   0.00000   0.00285   0.00283   1.93478
   A35        2.85878  -0.07529   0.00000  -0.01876  -0.01878   2.83999
    D1       -3.12795  -0.00590   0.00000  -0.00168  -0.00168  -3.12963
    D2        3.05827  -0.00382   0.00000  -0.00111  -0.00111   3.05716
    D3       -0.00746  -0.00370   0.00000  -0.00107  -0.00108  -0.00853
    D4       -3.10437   0.00173   0.00000   0.00056   0.00056  -3.10381
    D5        0.02796   0.00099   0.00000   0.00034   0.00034   0.02830
    D6        3.12951  -0.00417   0.00000  -0.00126  -0.00125   3.12826
    D7       -0.02134  -0.00491   0.00000  -0.00147  -0.00147  -0.02281
    D8       -0.04709   0.00265   0.00000   0.00076   0.00076  -0.04633
    D9        3.08524   0.00191   0.00000   0.00055   0.00054   3.08579
   D10       -3.11342  -0.00320   0.00000  -0.00093  -0.00093  -3.11436
   D11        0.01333  -0.00175   0.00000  -0.00051  -0.00050   0.01283
   D12        0.03821  -0.00223   0.00000  -0.00065  -0.00066   0.03756
   D13       -3.11822  -0.00078   0.00000  -0.00023  -0.00023  -3.11845
   D14        3.13147   0.00025   0.00000   0.00006   0.00005   3.13152
   D15       -0.01057  -0.00062   0.00000  -0.00020  -0.00020  -0.01077
   D16        0.00628  -0.00225   0.00000  -0.00064  -0.00063   0.00564
   D17       -3.13576  -0.00313   0.00000  -0.00089  -0.00089  -3.13665
   D18       -3.12995  -0.00422   0.00000  -0.00120  -0.00120  -3.13116
   D19        0.00419  -0.00211   0.00000  -0.00065  -0.00065   0.00355
   D20        0.01204  -0.00346   0.00000  -0.00098  -0.00098   0.01106
   D21       -3.13700  -0.00134   0.00000  -0.00042  -0.00042  -3.13742
   D22       -0.01338  -0.01437   0.00000  -0.00357  -0.00353  -0.01692
   D23       -3.13808   0.00035   0.00000   0.00004   0.00007  -3.13802
   D24        3.13316  -0.01415   0.00000  -0.00353  -0.00354   3.12962
   D25        0.00846   0.00058   0.00000   0.00008   0.00006   0.00852
   D26        3.13987  -0.00410   0.00000  -0.00098  -0.00095   3.13892
   D27        0.00023  -0.00339   0.00000  -0.00082  -0.00080  -0.00057
   D28       -0.00800  -0.00051   0.00000  -0.00007  -0.00005  -0.00806
   D29        3.13554   0.00020   0.00000   0.00009   0.00010   3.13564
   D30        0.01610   0.00067   0.00000   0.00023   0.00030   0.01640
   D31       -3.08180   0.00154   0.00000   0.00036   0.00040  -3.08140
   D32        3.11494   0.00000   0.00000   0.00010   0.00006   3.11501
   D33        0.01704   0.00088   0.00000   0.00024   0.00016   0.01720
   D34       -0.00747  -0.00090   0.00000  -0.00015  -0.00014  -0.00761
   D35        3.12404   0.00250   0.00000   0.00063   0.00065   3.12470
   D36       -3.11106  -0.00788   0.00000  -0.00189  -0.00195  -3.11301
   D37        0.02046  -0.00448   0.00000  -0.00111  -0.00116   0.01930
   D38       -2.98075  -0.00304   0.00000  -0.00093  -0.00092  -2.98167
   D39        0.06802  -0.00388   0.00000  -0.00097  -0.00095   0.06706
   D40        0.10255   0.00301   0.00000   0.00072   0.00070   0.10325
   D41       -3.13187   0.00218   0.00000   0.00068   0.00066  -3.13121
   D42       -0.31301   0.01763   0.00000   0.00469   0.00467  -0.30835
   D43        0.65157   0.00964   0.00000   0.00265   0.00265   0.65422
   D44        0.00794   0.00158   0.00000   0.00030   0.00029   0.00822
   D45       -3.14020   0.00092   0.00000   0.00021   0.00022  -3.13998
   D46       -3.12484  -0.00122   0.00000  -0.00034  -0.00037  -3.12521
   D47        0.01021  -0.00188   0.00000  -0.00043  -0.00044   0.00978
         Item               Value     Threshold  Converged?
 Maximum Force            0.447135     0.000450     NO 
 RMS     Force            0.121174     0.000300     NO 
 Maximum Displacement     2.167127     0.001800     NO 
 RMS     Displacement     0.542089     0.001200     NO 
 Predicted change in Energy=-3.622890D-01
 GradGradGradGradGradGradGradGradGradGradGradGradGradGradGradGradGradGrad

                          Input orientation:                          
 ---------------------------------------------------------------------
 Center     Atomic      Atomic             Coordinates (Angstroms)
 Number     Number       Type             X           Y           Z
 ---------------------------------------------------------------------
      1          7           0        2.461242   -0.125790    0.059826
      2          6           0        3.731760   -0.323722    0.028109
      3          6           0        3.261418    1.372389    0.047192
      4          6           0        4.387650    1.961695    0.074441
      5          6           0        4.983356    3.173457    0.092335
      6          6           0        6.280133    2.968094    0.086121
      7          6           0        7.331826    3.826796    0.087166
      8          6           0        8.710667    3.539454    0.068723
      9          6           0        9.298599    2.020127    0.064414
     10          6           0        8.682537    0.719621    0.059167
     11          6           0        8.914274   -0.726954    0.188276
     12          6           0        7.583370   -0.528056    0.022584
     13          6           0        8.883045    4.900300    0.090891
     14          6           0        7.452011    5.123573    0.097694
     15          1           0        1.450889   -0.287546    0.093361
     16          1           0        2.360880    2.021430    0.075750
     17          1           0        5.018710    1.162703    0.094828
     18          1           0        4.449766    4.069282    0.095185
     19          1           0        6.680039    2.009538    0.079509
     20          1           0       10.386794    2.302589    0.115819
     21          1           0        9.973943   -0.508537   -0.007526
     22          1           0        9.704481    5.607506    0.107563
     23          1           0        6.453830    5.613594    0.107443
 ---------------------------------------------------------------------
                    Distance matrix (angstroms):
                    1          2          3          4          5
     1  N    0.000000
     2  C    1.286234   0.000000
     3  C    1.698523   1.760220   0.000000
     4  C    2.840573   2.378123   1.271387   0.000000
     5  C    4.152969   3.714954   2.492179   1.350390   0.000000
     6  C    4.914951   4.163367   3.414737   2.143471   1.312952
     7  C    6.272661   5.494612   4.753308   3.485245   2.437660
     8  C    7.244957   6.302007   5.864380   4.601937   3.745311
     9  C    7.166201   6.040252   6.071855   4.911307   4.466797
    10  C    6.278474   5.059617   5.460291   4.470909   4.439184
    11  C    6.482247   5.200645   6.031744   5.266129   5.538460
    12  C    5.138035   3.857030   4.721395   4.051441   4.523952
    13  C    8.154883   7.336899   6.637075   5.370684   4.264923
    14  C    7.243275   6.596827   5.624501   4.403217   3.145988
    15  H    1.023769   2.282091   2.456732   3.699191   4.945389
    16  H    2.149624   2.716858   1.110423   2.027651   2.864406
    17  H    2.863928   1.967270   1.770399   1.018352   2.011067
    18  H    4.642640   4.451799   2.947492   2.108604   1.042702
    19  H    4.728453   3.760199   3.477640   2.292894   2.057574
    20  H    8.289424   7.155046   7.186166   6.008964   5.473218
    21  H    7.522746   6.245020   6.971289   6.108636   6.202662
    22  H    9.237829   8.417789   7.710573   6.446839   5.311671
    23  H    6.991678   6.532050   5.308762   4.196017   2.848998
                    6          7          8          9         10
     6  C    0.000000
     7  C    1.357729   0.000000
     8  C    2.496848   1.408584   0.000000
     9  C    3.163898   2.670724   1.629121   0.000000
    10  C    3.290577   3.388176   2.819989   1.439054   0.000000
    11  C    4.538999   4.821930   4.272936   2.776599   1.470698
    12  C    3.731692   4.362589   4.221086   3.071970   1.663191
    13  C    3.241697   1.886454   1.371899   2.910117   4.185604
    14  C    2.453471   1.302377   2.023483   3.611422   4.572796
    15  H    5.824161   7.177275   8.206760   8.180022   7.301527
    16  H    4.031975   5.288646   6.528724   6.937728   6.454326
    17  H    2.202431   3.528166   4.390919   4.365037   3.690694
    18  H    2.136104   2.892254   4.293797   5.264139   5.397951
    19  H    1.038653   1.930625   2.542481   2.618624   2.382078
    20  H    4.160342   3.414215   2.083617   1.125432   2.326691
    21  H    5.073457   5.077880   4.241216   2.618283   1.783410
    22  H    4.323554   2.966621   2.294780   3.610525   4.993809
    23  H    2.651282   1.990964   3.065432   4.583402   5.377773
                   11         12         13         14         15
    11  C    0.000000
    12  C    1.355847   0.000000
    13  C    5.628183   5.582192   0.000000
    14  C    6.031176   5.653654   1.448363   0.000000
    15  H    7.476912   6.137604   9.063703   8.080452   0.000000
    16  H    7.107268   5.811807   7.129289   5.961827   2.481888
    17  H    4.330699   3.072680   5.376127   4.648597   3.851308
    18  H    6.553196   5.564195   4.510496   3.181982   5.289161
    19  H    3.534406   2.694184   3.634539   3.208346   5.711463
    20  H    3.369228   3.985026   3.001664   4.070778   9.303748
    21  H    1.099519   2.390842   5.518628   6.171861   8.526516
    22  H    6.384068   6.492416   1.084055   2.303890  10.142664
    23  H    6.801682   6.245233   2.531828   1.112018   7.736477
                   16         17         18         19         20
    16  H    0.000000
    17  H    2.793177   0.000000
    18  H    2.925324   2.961739   0.000000
    19  H    4.319177   1.864773   3.035937   0.000000
    20  H    8.030937   5.487815   6.194347   3.718498   0.000000
    21  H    8.022867   5.230473   7.175201   4.147056   2.843956
    22  H    8.172480   6.458552   5.475246   4.700363   3.374626
    23  H    5.445813   4.676555   2.530084   3.611257   5.141113
                   21         22         23
    21  H    0.000000
    22  H    6.123058   0.000000
    23  H    7.062925   3.250657   0.000000
 Stoichiometry    C13H9N
 Framework group  C1[X(C13H9N)]
 Deg. of freedom    63
 Full point group                 C1      NOp   1
 Largest Abelian subgroup         C1      NOp   1
 Largest concise Abelian subgroup C1      NOp   1
                         Standard orientation:                         
 ---------------------------------------------------------------------
 Center     Atomic      Atomic             Coordinates (Angstroms)
 Number     Number       Type             X           Y           Z
 ---------------------------------------------------------------------
      1          7           0        4.567422    0.048747    0.005640
      2          6           0        3.529586    0.807661   -0.031037
      3          6           0        3.169036   -0.915155   -0.014164
      4          6           0        1.897840   -0.921917    0.006781
      5          6           0        0.812406   -1.725182    0.019096
      6          6           0       -0.245476   -0.947621    0.007827
      7          6           0       -1.573941   -1.227938    0.002216
      8          6           0       -2.667054   -0.339877   -0.021429
      9          6           0       -2.492179    1.279829   -0.024474
     10          6           0       -1.347998    2.152596   -0.023834
     11          6           0       -0.890699    3.544171    0.107885
     12          6           0        0.201323    2.756735   -0.052587
     13          6           0       -3.444809   -1.469868   -0.003395
     14          6           0       -2.275864   -2.324954    0.008995
     15          1           0        5.539159   -0.271199    0.043915
     16          1           0        3.671155   -1.905087    0.016641
     17          1           0        1.703714    0.077567    0.026451
     18          1           0        0.875380   -2.765977    0.022003
     19          1           0       -0.160870    0.087563    0.001888
     20          1           0       -3.588890    1.528232    0.021554
     21          1           0       -1.931449    3.836446   -0.093008
     22          1           0       -4.499252   -1.721254    0.007988
     23          1           0       -1.613923   -3.218404    0.021807
 ---------------------------------------------------------------------
 Rotational constants (GHZ):           0.9289085           0.4478729           0.3022596
 Standard basis: 6-31G(2df,p) (6D, 7F)
 There are   479 symmetry adapted cartesian basis functions of A   symmetry.
 There are   437 symmetry adapted basis functions of A   symmetry.
   437 basis functions,   679 primitive gaussians,   479 cartesian basis functions
    47 alpha electrons       47 beta electrons
       nuclear repulsion energy       706.5832087168 Hartrees.
 NAtoms=   23 NActive=   23 NUniq=   23 SFac= 1.00D+00 NAtFMM=   60 NAOKFM=F Big=F
 Integral buffers will be    131072 words long.
 Raffenetti 2 integral format.
 Two-electron integral symmetry is turned on.
 One-electron integrals computed using PRISM.
 PrsmSu:  requested number of processors reduced to:  13 ShMem   1 Linda.
 NBasis=   437 RedAO= T EigKep=  1.32D-04  NBF=   437
 NBsUse=   437 1.00D-06 EigRej= -1.00D+00 NBFU=   437
 Initial guess from the checkpoint file:  "Ndc1ccccc2cqcc3cc1-3rdCCd2.chk"
 B after Tr=    -0.000000    0.000000   -0.000000
         Rot=    0.988547    0.000486    0.000420   -0.150911 Ang=  17.36 deg.
 ExpMin= 1.61D-01 ExpMax= 4.17D+03 ExpMxC= 6.27D+02 IAcc=2 IRadAn=         4 AccDes= 0.00D+00
 Harris functional with IExCor=  402 and IRadAn=       4 diagonalized for initial guess.
 HarFok:  IExCor=  402 AccDes= 0.00D+00 IRadAn=         4 IDoV= 1 UseB2=F ITyADJ=14
 ICtDFT=  3500011 ScaDFX=  1.000000  1.000000  1.000000  1.000000
 FoFCou: FMM=F IPFlag=           0 FMFlag=      100000 FMFlg1=           0
         NFxFlg=           0 DoJE=T BraDBF=F KetDBF=T FulRan=T
         wScrn=  0.000000 ICntrl=       500 IOpCl=  0 I1Cent=   200000004 NGrid=           0
         NMat0=    1 NMatS0=      1 NMatT0=    0 NMatD0=    1 NMtDS0=    0 NMtDT0=    0
 Petite list used in FoFCou.
 Requested convergence on RMS density matrix=1.00D-08 within 128 cycles.
 Requested convergence on MAX density matrix=1.00D-06.
 Requested convergence on             energy=1.00D-06.
 No special actions if energy rises.
 Integral accuracy reduced to 1.0D-05 until final iterations.
 Initial convergence to 1.0D-05 achieved.  Increase integral accuracy.
 SCF Done:  E(RB3LYP) =  -554.774929383     A.U. after   27 cycles
            NFock= 27  Conv=0.68D-08     -V/T= 2.0063
 PrsmSu:  requested number of processors reduced to:  13 ShMem   1 Linda.
 Calling FoFJK, ICntrl=      2127 FMM=F ISym2X=0 I1Cent= 0 IOpClX= 0 NMat=1 NMatS=1 NMatT=0.
 ***** Axes restored to original set *****
 -------------------------------------------------------------------
 Center     Atomic                   Forces (Hartrees/Bohr)
 Number     Number              X              Y              Z
 -------------------------------------------------------------------
      1        7           0.065060278   -0.029515876    0.010305762
      2        6          -0.097343861   -0.003545739   -0.014588566
      3        6          -0.134222182    0.018367720   -0.015177858
      4        6           0.047872324   -0.016633445    0.026683606
      5        6          -0.045107640    0.008030100    0.003129150
      6        6           0.073204337    0.027114308   -0.002527715
      7        6          -0.088592955   -0.074242450   -0.002953717
      8        6           0.052126285   -0.131225360   -0.001896192
      9        6          -0.003753482    0.078583780    0.001306787
     10        6          -0.057295400    0.001198538    0.010402711
     11        6           0.067790094    0.062328778   -0.019808333
     12        6           0.008900833    0.055737554    0.001336059
     13        6           0.060959136    0.057364522    0.001728528
     14        6          -0.032311815    0.050095540    0.001066083
     15        1           0.009066069    0.000316748    0.007709726
     16        1          -0.002638241   -0.018133529   -0.013402187
     17        1           0.061967902   -0.018129994   -0.000923745
     18        1          -0.011406064    0.030050672   -0.000877576
     19        1          -0.000192655   -0.037878993   -0.000382995
     20        1          -0.009745525   -0.033029856   -0.000930006
     21        1           0.001910184   -0.050042776    0.010756210
     22        1           0.002520970   -0.004519446   -0.001005484
     23        1           0.031231409    0.027709202    0.000049750
 -------------------------------------------------------------------
 Cartesian Forces:  Max     0.134222182 RMS     0.042286194

 GradGradGradGradGradGradGradGradGradGradGradGradGradGradGradGradGradGrad
 Berny optimization.
 Using GEDIIS/GDIIS optimizer.
 FormGI is forming the generalized inverse of G from B-inverse, IUseBI=4.
 Internal  Forces:  Max     0.157410062 RMS     0.036490385
 Search for a local minimum.
 Step number   2 out of a maximum of  117
 All quantities printed in internal units (Hartrees-Bohrs-Radians)
 Mixed Optimization -- RFO/linear search
 Update second derivatives using D2CorX and points    1    2
 DE= -1.49D-01 DEPred=-3.62D-01 R= 4.12D-01
 Trust test= 4.12D-01 RLast= 3.00D-01 DXMaxT set to 3.00D-01
 ITU=  0  0
 Use linear search instead of GDIIS.
     Eigenvalues ---    0.00230   0.00232   0.00931   0.01330   0.01344
     Eigenvalues ---    0.01440   0.01581   0.02083   0.02122   0.02542
     Eigenvalues ---    0.02853   0.02856   0.02953   0.02971   0.03014
     Eigenvalues ---    0.03230   0.03266   0.03528   0.03573   0.04063
     Eigenvalues ---    0.13968   0.15326   0.15910   0.15993   0.15996
     Eigenvalues ---    0.15998   0.15998   0.16000   0.16000   0.16002
     Eigenvalues ---    0.18585   0.18689   0.21244   0.21864   0.22000
     Eigenvalues ---    0.22000   0.22729   0.23442   0.23548   0.24917
     Eigenvalues ---    0.24970   0.30744   0.32143   0.32521   0.33633
     Eigenvalues ---    0.34659   0.35044   0.35504   0.36961   0.41396
     Eigenvalues ---    0.41797   0.43627   0.44069   0.45370   0.45803
     Eigenvalues ---    0.50704   0.55624   0.57770   0.62162   0.63558
     Eigenvalues ---    0.67867   0.80501   3.76003
 RFO step:  Lambda=-3.87077703D-01 EMin= 2.30000291D-03
 Quartic linear search produced a step of  0.81150.
 Maximum step size (   0.300) exceeded in Quadratic search.
    -- Step size scaled by   0.401
 Iteration  1 RMS(Cart)=  0.33816970 RMS(Int)=  0.01621093
 Iteration  2 RMS(Cart)=  0.07896299 RMS(Int)=  0.00095306
 Iteration  3 RMS(Cart)=  0.00213834 RMS(Int)=  0.00025286
 Iteration  4 RMS(Cart)=  0.00000095 RMS(Int)=  0.00025286
 Variable       Old X    -DE/DX   Delta X   Delta X   Delta X     New X
                                 (Linear)    (Quad)   (Total)
    R1        2.43063  -0.08304  -0.01542  -0.04874  -0.06382   2.36681
    R2        3.20974   0.02109   0.01838   0.01743   0.03581   3.24555
    R3        1.93464  -0.00874   0.00307  -0.00901  -0.00593   1.92871
    R4        3.32633   0.00917  -0.00951   0.01999   0.01023   3.33657
    R5        2.40257   0.15741   0.03165   0.07305   0.10469   2.50726
    R6        2.09839  -0.00880  -0.00046  -0.00843  -0.00889   2.08950
    R7        2.55187   0.08252   0.02407   0.04662   0.07069   2.62256
    R8        1.92441   0.05261   0.01004   0.03846   0.04850   1.97290
    R9        2.48112   0.10088   0.03334   0.04696   0.08031   2.56143
   R10        1.97042   0.03165   0.00614   0.02450   0.03063   2.00106
   R11        2.56574   0.05141   0.02377   0.02502   0.04879   2.61453
   R12        1.96277   0.03489   0.00376   0.02841   0.03217   1.99494
   R13        2.66184   0.08215   0.05423   0.03953   0.09434   2.75617
   R14        2.46114   0.10233   0.01370   0.06277   0.07708   2.53821
   R15        3.07859  -0.10423  -0.00929  -0.11691  -0.12619   2.95240
   R16        2.59251   0.03432  -0.00003   0.02270   0.02207   2.61459
   R17        2.71942  -0.07169  -0.02643  -0.05251  -0.07893   2.64048
   R18        2.12676  -0.01776  -0.00412  -0.01587  -0.01998   2.10677
   R19        2.77922  -0.00129   0.00418  -0.00295   0.00134   2.78055
   R20        3.14298  -0.07923  -0.02277  -0.08667  -0.10962   3.03335
   R21        2.56218   0.03799  -0.00134   0.03023   0.02900   2.59117
   R22        2.07779  -0.01002  -0.00137  -0.00902  -0.01038   2.06741
   R23        2.73701   0.03262  -0.00190   0.02681   0.02435   2.76136
   R24        2.04857  -0.00105  -0.00006  -0.00096  -0.00103   2.04754
   R25        2.10141  -0.01582  -0.00345  -0.01393  -0.01737   2.08403
    A1        2.82832  -0.00705   0.00090  -0.00571  -0.00510   2.82323
    A2        2.21998  -0.00512   0.00650  -0.00582   0.00039   2.22037
    A3        2.54277  -0.00327   0.01149  -0.00360   0.00760   2.55037
    A4        1.70450  -0.00016  -0.00540  -0.00517  -0.01003   1.69447
    A5        1.78254   0.02866   0.01729   0.01877   0.03612   1.81866
    A6        2.46577  -0.03099  -0.01115  -0.02566  -0.03759   2.42818
    A7        2.03412   0.00331  -0.00605   0.00853   0.00223   2.03634
    A8        2.50983  -0.06538  -0.04932  -0.05189  -0.10121   2.40861
    A9        1.75758   0.06863   0.03163   0.06878   0.10042   1.85799
   A10        2.01575  -0.00324   0.01769  -0.01688   0.00081   2.01656
   A11        1.87055   0.07118   0.09087   0.03869   0.12956   2.00011
   A12        2.14746  -0.03011  -0.04421  -0.01289  -0.05711   2.09035
   A13        2.26507  -0.04109  -0.04665  -0.02584  -0.07249   2.19258
   A14        2.29980  -0.00923  -0.06966   0.02269  -0.04697   2.25283
   A15        2.12312  -0.00987   0.03254  -0.02885   0.00369   2.12680
   A16        1.86027   0.01910   0.03712   0.00617   0.04328   1.90355
   A17        2.25134   0.02667   0.08136  -0.01436   0.06651   2.31785
   A18        2.34791   0.02298  -0.06096   0.05077  -0.01068   2.33722
   A19        1.68393  -0.04965  -0.02039  -0.03641  -0.05582   1.62811
   A20        2.14546   0.01657   0.07596  -0.01793   0.05807   2.20353
   A21        1.49115   0.02591  -0.00275   0.02837   0.02557   1.51672
   A22        2.64621  -0.04249  -0.07326  -0.01043  -0.08366   2.56255
   A23        2.32998  -0.03965   0.04702  -0.06830  -0.02127   2.30871
   A24        1.68581   0.05125  -0.01623   0.07106   0.05484   1.74065
   A25        2.26649  -0.01160  -0.03074  -0.00278  -0.03352   2.23297
   A26        2.53417  -0.01426  -0.01702  -0.00632  -0.02331   2.51087
   A27        2.86121  -0.01657   0.01334  -0.02330  -0.00990   2.85131
   A28        1.51160   0.06916   0.01544   0.07910   0.09412   1.60572
   A29        2.67950   0.02766   0.00470   0.03710   0.04228   2.72179
   A30        1.59964   0.00247   0.01019  -0.01177  -0.00258   1.59706
   A31        2.40770  -0.00644  -0.00633  -0.00022  -0.00604   2.40166
   A32        2.27580   0.00397  -0.00386   0.01198   0.00863   2.28443
   A33        1.50840   0.02127   0.01295   0.01982   0.03284   1.54125
   A34        1.93478   0.02996   0.00229   0.03806   0.04032   1.97510
   A35        2.83999  -0.05123  -0.01524  -0.05788  -0.07316   2.76683
    D1       -3.12963  -0.01836  -0.00136  -0.03004  -0.03177   3.12178
    D2        3.05716  -0.01646  -0.00090  -0.02821  -0.02926   3.02790
    D3       -0.00853  -0.01404  -0.00087  -0.02371  -0.02480  -0.03333
    D4       -3.10381   0.00816   0.00045   0.01431   0.01456  -3.08925
    D5        0.02830   0.00986   0.00028   0.01723   0.01732   0.04562
    D6        3.12826  -0.01503  -0.00102  -0.02583  -0.02654   3.10172
    D7       -0.02281  -0.01332  -0.00119  -0.02291  -0.02379  -0.04660
    D8       -0.04633   0.00534   0.00062   0.00890   0.00941  -0.03692
    D9        3.08579   0.00704   0.00044   0.01183   0.01216   3.09795
   D10       -3.11436   0.00211  -0.00076   0.00382   0.00306  -3.11130
   D11        0.01283   0.00056  -0.00041   0.00109   0.00067   0.01350
   D12        0.03756   0.00011  -0.00053   0.00042  -0.00011   0.03744
   D13       -3.11845  -0.00144  -0.00019  -0.00231  -0.00250  -3.12094
   D14        3.13152  -0.00121   0.00004  -0.00208  -0.00204   3.12948
   D15       -0.01077  -0.00151  -0.00017  -0.00250  -0.00266  -0.01344
   D16        0.00564   0.00025  -0.00051   0.00069   0.00018   0.00582
   D17       -3.13665  -0.00005  -0.00072   0.00027  -0.00045  -3.13710
   D18       -3.13116  -0.00175  -0.00098  -0.00253  -0.00350  -3.13466
   D19        0.00355  -0.00089  -0.00052  -0.00131  -0.00185   0.00170
   D20        0.01106  -0.00148  -0.00079  -0.00215  -0.00293   0.00812
   D21       -3.13742  -0.00062  -0.00034  -0.00093  -0.00128  -3.13870
   D22       -0.01692  -0.00110  -0.00287   0.00029  -0.00244  -0.01936
   D23       -3.13802   0.00013   0.00005  -0.00005   0.00001  -3.13801
   D24        3.12962  -0.00186  -0.00287  -0.00085  -0.00361   3.12600
   D25        0.00852  -0.00062   0.00005  -0.00119  -0.00116   0.00735
   D26        3.13892  -0.00025  -0.00077   0.00021  -0.00044   3.13848
   D27       -0.00057  -0.00011  -0.00065   0.00019  -0.00046  -0.00103
   D28       -0.00806   0.00057  -0.00004   0.00113   0.00110  -0.00696
   D29        3.13564   0.00071   0.00008   0.00110   0.00108   3.13672
   D30        0.01640  -0.00080   0.00024  -0.00147  -0.00113   0.01527
   D31       -3.08140  -0.00108   0.00032  -0.00223  -0.00186  -3.08326
   D32        3.11501  -0.00009   0.00005  -0.00002  -0.00002   3.11499
   D33        0.01720  -0.00037   0.00013  -0.00079  -0.00075   0.01645
   D34       -0.00761   0.00029  -0.00011   0.00091   0.00086  -0.00675
   D35        3.12470   0.00081   0.00053   0.00109   0.00163   3.12632
   D36       -3.11301  -0.00077  -0.00158   0.00004  -0.00152  -3.11453
   D37        0.01930  -0.00024  -0.00094   0.00022  -0.00075   0.01854
   D38       -2.98167  -0.00095  -0.00075  -0.00209  -0.00287  -2.98454
   D39        0.06706  -0.00249  -0.00077  -0.00325  -0.00395   0.06311
   D40        0.10325   0.00030   0.00057  -0.00051  -0.00001   0.10324
   D41       -3.13121  -0.00124   0.00054  -0.00166  -0.00109  -3.13230
[...]
 .00095994,-0.00028606,-0.00034746,0.00051175,0.00161352,0.00096113,0.0
 0057163,-0.00245803,-0.00230137,-0.00013289,0.00633168,0.00342056,0.00
 000773,-0.01227818,-0.02162960,0.00023185,0.00743856,-0.20256129,0.004
 31600,0.07350375,-0.03193765,0.00409778,-0.00301682,-0.00467887,0.0001
 5338,0.00010448,0.00116336,-0.00005489,-0.00127753,-0.00103117,-0.0000
 2068,0.00160815,-0.00060007,0.00008353,-0.00610889,-0.08698936,0.00094
 719,-0.18038133,0.53835268,-0.00001867,0.00001846,0.00011186,-0.000016
 55,0.00000463,-0.00003100,0.00012251,-0.00003179,-0.00006898,-0.000129
 73,0.00004840,-0.00000653,0.00027529,-0.00021849,-0.00501643,0.0000019
 6,-0.00042556,0.00366555,-0.00068891,0.00474762,-0.05967054,-0.0048967
 3,0.00458387,0.01160554,-0.00007703,-0.00001242,0.00290227,0.00000252,
 0.00005114,0.00028372,0.00006473,0.00000393,-0.00014071,-0.00001762,-0
 .00003125,-0.00014626,-0.01470307,0.00002690,-0.05066961,0.03093691,-0
 .01927146,0.12403546,-0.06833224,-0.07424504,0.09455201,0.00104402,0.0
 0575925,0.00461534,0.00402132,-0.00256211,0.00675035,0.00231312,0.0010
 3708,0.00529873,-0.00137115,-0.00014853,-0.00029137,0.00060769,0.00004
 513,-0.00079753,-0.00026834,-0.00014485,-0.00003730,0.00019089,-0.0000
 1905,0.00016970,-0.00006516,0.00008274,-0.00001208,0.00004216,-0.00013
 507,0.00002666,0.00004263,0.00007440,0.00000694,-0.00006023,0.00002414
 ,-0.00004750,-0.00008902,-0.00009308,0.00001054,-0.00000134,0.00008125
 ,-0.00001670,0.06200871,-0.07603855,-0.10608604,0.13346080,0.00554973,
 0.00337386,0.00132709,0.00208346,0.00339303,0.00710396,-0.00041615,-0.
 00018808,-0.00259331,0.00028560,0.00072525,0.00007299,-0.00003123,-0.0
 0034250,-0.00001093,-0.00015649,0.00046314,-0.00002608,0.00055879,-0.0
 0010480,0.00002484,-0.00014885,0.00019310,-0.00002033,-0.00000501,-0.0
 0034332,0.00001796,0.00004918,0.00010421,-0.00000483,-0.00009701,0.000
 11444,-0.00001190,-0.00020468,-0.00036806,-0.00000333,-0.00021481,0.00
 015949,-0.00003184,0.06856407,0.09889634,0.09664457,0.13105672,-0.3155
 2037,0.01243511,0.01581606,-0.00952641,-0.00247692,-0.00062177,-0.0044
 2883,0.00278640,0.00003011,0.00195231,-0.00146221,-0.00077988,-0.00018
 207,0.00066215,0.00007938,-0.00044698,-0.00029131,-0.00029392,-0.00001
 846,0.00006301,0.00002004,0.00008295,-0.00001072,0.00001096,-0.0000046
 3,-0.00001190,-0.00001083,0.00000502,-0.00001161,-0.00000334,0.0000087
 9,0.00000262,0.00001097,-0.00002869,-0.00005868,-0.00005026,-0.0000059
 6,0.00004114,0.00006698,-0.00001118,-0.10774594,-0.14420638,0.32629982
 ,0.00062788,-0.02649264,-0.00362473,0.00026260,-0.01086420,0.00387566,
 -0.09044496,0.10255497,0.00497952,-0.00814420,0.02872832,0.00106478,0.
 00189225,0.00208617,-0.00016820,-0.00018737,-0.00062701,-0.00005790,-0
 .00005597,0.00007232,-0.00001082,0.00014362,-0.00000286,0.00002383,-0.
 00002484,0.00001031,-0.00000677,-0.00002944,-0.00004019,0.00000513,-0.
 00002587,-0.00001751,0.00000080,0.00000284,0.00003941,-0.00000868,-0.0
 0005761,-0.00014328,0.00000461,-0.00010796,0.00007167,-0.00000258,0.00
 067530,0.00040044,-0.00067513,0.10055816,-0.00686833,-0.02093444,-0.00
 560598,-0.00202093,-0.00927231,0.00654439,0.10294626,-0.27998669,-0.00
 327763,-0.00137157,-0.00246246,-0.00129954,-0.00029828,0.00098381,0.00
 012095,-0.00000648,0.00053909,0.00020671,0.00013718,-0.00010414,0.0000
 0339,-0.00012601,0.00000496,-0.00002212,0.00002257,-0.00001338,0.00000
 145,0.00001747,0.00004110,-0.00000128,0.00000050,0.00000138,0.00000030
 ,0.00000300,-0.00001458,0.00000090,0.00005539,0.00012169,0.00000120,0.
 00007212,-0.00006017,0.00000355,0.00124217,-0.00004413,-0.00117972,-0.
 09448607,0.31019419,-0.00403794,0.01703848,-0.00069101,0.00908729,-0.0
 1465294,0.00175038,0.00625057,-0.01422160,-0.03690285,-0.00362670,0.00
 161047,-0.00045222,0.00074695,0.00064964,-0.00064051,-0.00027705,0.000
 00796,-0.00023423,0.00015399,0.00005155,-0.00001352,-0.00011809,0.0000
 0256,0.00004883,0.00002708,-0.00003168,-0.00000641,0.00000181,0.000052
 99,0.00000853,-0.00000408,-0.00001424,0.00000280,0.00001356,-0.0000212
 9,-0.00001959,0.00005686,0.00008519,-0.00001262,0.00002135,-0.00006111
 ,-0.00005726,-0.00276947,0.00475157,0.00151450,-0.00506787,0.00480998,
 0.03296957,0.00324203,-0.00039611,0.00177929,0.00078907,0.00006230,-0.
 00121579,-0.00933359,0.03022051,-0.00106614,-0.08637391,0.08537286,-0.
 00300951,0.00931491,-0.02085805,0.00024971,0.00151713,-0.00168303,0.00
 040886,0.00005992,0.00022152,0.00000719,0.00010970,-0.00007621,-0.0000
 3767,-0.00006491,0.00010412,0.00000127,0.00005646,-0.00019996,-0.00000
 065,0.00013047,0.00012934,-0.00000450,-0.00005946,-0.00002376,0.000021
 69,-0.00004788,0.00000003,-0.00000539,-0.00012051,0.00008990,0.0000036
 4,-0.00077480,-0.00009117,0.00009300,-0.00523232,0.00012498,-0.0005083
 6,0.08938390,0.00028148,0.00158693,-0.00077942,-0.00013434,0.00035928,
 0.00010399,-0.00189292,-0.00363410,0.00031754,0.08407965,-0.29610133,0
 .00506916,0.00948614,-0.02136283,0.00042006,0.00218426,0.00125492,-0.0
 0005054,-0.00032113,0.00024359,-0.00001419,-0.00002828,-0.00005909,0.0
 0000754,-0.00004369,0.00007411,-0.00000171,0.00003366,-0.00010664,0.00
 000455,0.00008606,0.00008110,-0.00000031,-0.00004422,-0.00004724,-0.00
 000098,-0.00000985,0.00013220,-0.00000378,0.00021272,-0.00003433,0.000
 00180,0.00029295,0.00012264,0.00005949,0.00017113,0.00061595,-0.000004
 07,-0.09035414,0.31854736,-0.00118523,-0.00094626,-0.00070193,0.001198
 73,0.00062329,0.00090176,-0.00107622,0.00278024,0.00141516,-0.00213584
 ,0.00375330,-0.03919365,-0.00021245,-0.00079829,0.00556002,0.00053431,
 -0.00016682,-0.00683096,-0.00005710,0.00004176,-0.00012841,0.00011661,
 -0.00001341,0.00043947,-0.00003694,0.00005207,-0.00001517,0.00000959,-
 0.00008836,0.00006479,0.00002600,0.00003818,0.00001157,-0.00002350,0.0
 0001912,-0.00015000,-0.00005664,-0.00007717,0.00005353,-0.00005705,0.0
 0006367,0.00036583,0.00008820,-0.00003775,0.00004768,-0.00037673,-0.00
 006839,0.00250912,0.00379138,-0.00525665,0.02549278,0.00001424,0.00060
 923,-0.00000019,0.00007839,0.00018775,-0.00005880,0.00091456,-0.002220
 62,0.00031319,0.00948531,-0.02051814,0.00016618,-0.08707563,0.08387648
 ,-0.00214677,-0.00841420,0.03106496,-0.00085537,0.00150697,0.00136007,
 0.00005861,0.00033462,0.00011312,-0.00000030,0.00022388,-0.00028729,0.
 00001838,0.00019587,0.00045711,-0.00000777,-0.00041574,-0.00012618,-0.
 00000220,-0.00018186,0.00040278,-0.00004602,-0.00003097,-0.00052776,0.
 00001457,-0.00019979,-0.00065085,0.00001245,0.00005157,-0.00004322,0.0
 0000237,-0.00006582,0.00070795,0.00004611,-0.00238782,-0.00289411,-0.0
 0049640,0.09084212,-0.00009903,0.00048194,-0.00015068,-0.00007701,0.00
 017498,0.00004603,0.00226443,0.00058461,0.00018375,0.00995701,-0.02295
 465,0.00055256,0.08182844,-0.28982361,0.00502844,0.00058469,-0.0030401
 2,0.00016062,-0.00071373,0.00019633,-0.00003163,-0.00004133,0.00009746
 ,0.00000143,-0.00000970,0.00005990,0.00000012,-0.00000094,-0.00002320,
 -0.00000243,0.00011297,0.00004945,0.00000133,0.00004729,-0.00017271,0.
 00001716,0.00010782,0.00042649,-0.00001154,0.00047766,-0.00024067,0.00
 000972,0.00013684,-0.00004873,-0.00001217,-0.00132172,0.00048704,-0.00
 004977,-0.00325567,-0.00209541,0.00003434,-0.08969683,0.31473961,0.000
 85103,0.00029699,-0.00069372,-0.00079831,-0.00001554,0.00018649,-0.000
 39310,-0.00057686,-0.00603325,0.00009172,-0.00043687,0.00544219,-0.001
 98086,0.00523645,-0.04011262,-0.00062850,0.00103483,0.00272850,0.00017
 898,0.00010075,-0.00142510,-0.00001264,-0.00001207,-0.00021328,0.00001
 100,-0.00001273,-0.00000324,0.00000552,0.00001673,0.00000007,-0.000014
 27,-0.00000436,0.00001750,0.00000270,0.00000211,-0.00010751,0.00001185
 ,-0.00000257,-0.00014017,-0.00000715,-0.00003960,0.00005018,0.00021453
 ,0.00015903,0.00024824,0.00003098,-0.00023269,0.00013212,-0.00047033,0
 .00017976,0.01005381,0.00322438,-0.00577549,0.02586439,0.00000274,-0.0
 0007141,0.00005136,0.00002822,-0.00003981,-0.00003873,-0.00012668,-0.0
 0019592,0.00000077,0.00181024,0.00147675,0.00020947,-0.00873852,0.0279
 8828,-0.00108582,-0.08742404,0.08738917,-0.00374976,0.01088725,-0.0231
 3259,0.00076277,0.00186158,-0.00028679,0.00031705,-0.00113949,0.001417
 74,-0.00007733,-0.00139698,-0.00200909,-0.00007517,0.00165302,0.001042
 54,-0.00003154,-0.00276826,-0.00099090,0.00016926,-0.00006544,-0.00065
 557,0.00001207,-0.00234137,-0.00215883,-0.00044928,-0.00004308,-0.0000
 0344,0.00001497,0.00024160,-0.00016303,-0.00000273,-0.00025422,-0.0011
 2499,-0.00005566,-0.00452900,0.00010900,-0.00030631,0.09273098,-0.0000
 1382,-0.00003316,0.00007683,0.00001391,-0.00001400,-0.00002605,0.00005
 103,0.00027392,-0.00005692,-0.00120479,0.00127272,-0.00014156,0.000554
 82,0.00022404,0.00006474,0.08363219,-0.29884448,0.00900916,0.00754038,
 -0.02183413,0.00096189,-0.00137902,0.00154751,-0.00020181,0.00009099,-
 0.00106405,0.00002414,-0.00214165,0.00092405,-0.00001497,-0.00044858,-
 0.00227993,0.00010387,0.00305889,0.00085860,-0.00010912,0.00031268,0.0
 0051416,-0.00000267,-0.00050080,0.00086195,0.00014249,-0.00000477,-0.0
 0001411,0.00000095,-0.00010083,-0.00011519,-0.00000752,0.00047556,0.00
 029233,0.00004280,-0.00086519,0.00099759,0.00008816,-0.08872540,0.3167
 3111,0.00000662,-0.00002303,-0.00005484,0.00000861,0.00000416,0.000049
 97,-0.00000042,-0.00001109,-0.00023370,0.00006405,-0.00006715,-0.00163
 137,-0.00010662,0.00118721,0.00363663,-0.00401993,0.00924559,-0.043468
 64,0.00023070,-0.00020626,0.00508417,0.00036243,-0.00021120,-0.0056032
 9,-0.00008362,0.00012010,-0.00002971,-0.00000728,-0.00014871,0.0008621
 9,0.00014426,0.00015075,0.00047589,-0.00014813,-0.00022421,-0.00248088
 ,-0.00000006,-0.00003455,0.00005784,-0.00052327,0.00016325,0.00995670,
 0.00001761,0.00001077,0.00001794,0.00001617,-0.00000886,0.00006318,-0.
 00004063,-0.00004646,0.00027799,-0.00025880,0.00000597,0.00363069,0.00
 432339,-0.00991991,0.03013332,-0.00001879,0.00005151,0.00008507,0.0000
 0967,0.00002173,-0.00004497,-0.00005069,-0.00007750,-0.00005755,-0.000
 03570,0.00006514,0.00000833,-0.00003547,-0.00025665,0.00002180,-0.0005
 2744,0.00031797,-0.00003228,0.00198939,0.00169013,-0.00034190,-0.02515
 772,-0.01068290,-0.00071295,-0.28729443,-0.09355423,-0.00643300,0.0003
 5368,-0.00237943,0.00003709,0.00117373,-0.00106908,0.00010523,0.001169
 13,0.00206849,-0.00014452,0.00187490,0.00024506,0.00025224,-0.00068200
 ,0.00001157,-0.00004891,0.00000112,-0.00002840,-0.00000260,-0.00001039
 ,0.00000631,0.00000482,0.00000428,0.00000305,-0.00000349,-0.00000772,0
 .00002993,-0.00000168,-0.00002004,-0.00001870,-0.00000634,0.30765946,0
 .00000559,-0.00005981,-0.00010753,-0.00002304,-0.00002001,0.00005921,0
 .00008982,0.00009619,0.00006652,0.00001183,-0.00011878,-0.00001474,0.0
 0011480,0.00037167,-0.00002018,0.00019049,-0.00048684,0.00001670,0.001
 17517,-0.00184801,0.00043219,0.02150997,0.00985345,0.00060084,-0.09641
 806,-0.09143084,-0.00178495,-0.03279483,-0.01930852,-0.00048295,0.0022
 4915,0.00192250,0.00000887,0.00072413,0.00023191,0.00012428,-0.0004487
 7,0.00107004,-0.00022246,0.00070898,0.00042484,0.00003016,0.00001332,0
 .00002447,0.00000032,0.00000305,-0.00000303,-0.00000344,0.00001815,0.0
 0001152,0.00000693,-0.00004377,-0.00000015,-0.00000040,0.00025512,-0.0
 0007889,0.00002800,0.10255646,0.10054270,-0.00002081,-0.00000111,0.000
 00404,0.00001731,-0.00000744,0.00000356,0.00001505,0.00000226,0.000065
 20,-0.00001254,0.00000142,-0.00004858,0.00001451,-0.00001888,-0.000500
 92,-0.00002155,0.00003245,0.00015433,-0.00034994,0.00041252,0.00954654
 ,-0.00186109,-0.00060465,0.00306361,-0.00626455,-0.00174256,-0.0339047
 0,0.00099549,0.00075684,0.00243576,-0.00001629,-0.00016064,-0.00075822
 ,-0.00004265,0.00016404,0.00255236,0.00030075,-0.00016747,-0.00518840,
 -0.00006701,0.00000115,0.00046491,-0.00000841,0.00000077,-0.00000027,-
 0.00000035,0.00000054,0.00000029,0.00000070,-0.00000088,-0.00000725,0.
 00000054,-0.00000030,0.00002751,-0.00000614,0.00000028,0.00015629,0.00
 730573,0.00128979,0.02322212,-0.00000902,0.00002129,0.00004511,0.00000
 891,0.00000867,-0.00002168,-0.00002516,-0.00001956,-0.00003012,0.00002
 182,0.00000548,0.00000387,0.00002580,0.00013142,-0.00000123,-0.0002276
 4,-0.00016003,-0.00001201,-0.00004993,-0.00009339,0.00000586,-0.000440
 94,-0.00047840,-0.00002208,0.00403616,0.00018630,0.00015925,-0.0046565
 5,-0.00478675,-0.00037441,-0.25014621,0.14997486,-0.01109333,-0.000576
 97,0.01345241,-0.00072513,0.00019528,-0.00006822,0.00002695,-0.0000647
 1,-0.00009144,0.00000131,-0.00000070,-0.00001132,-0.00000117,-0.000005
 60,0.00000040,0.00000178,0.00001081,0.00000717,-0.00000105,-0.00005666
 ,0.00001968,-0.00000207,0.00021362,0.00010901,0.00001346,-0.00018228,0
 .00060330,-0.00001514,0.25191283,0.00000128,-0.00000454,0.00000051,0.0
 0000298,-0.00000613,-0.00000279,-0.00000229,0.00000613,0.00000062,0.00
 000040,0.00000284,0.00000025,0.00002161,0.00008962,-0.00000184,-0.0002
 2575,-0.00007672,-0.00001821,-0.00004590,0.00002737,-0.00000913,-0.000
 29013,-0.00081309,0.00004134,0.00168801,0.00198603,-0.00007517,0.01169
 696,-0.00107573,0.00090189,0.14307999,-0.15056862,0.00782067,0.0026855
 4,0.00684527,0.00008069,0.00007659,-0.00005863,-0.00000349,0.00002609,
 -0.00001262,0.00000085,-0.00000336,0.00000402,0.00000294,0.00000316,-0
 .00000327,-0.00000052,-0.00000194,0.00000204,-0.00000022,-0.00002859,0
 .00000427,-0.00000025,0.00022285,0.00005326,0.00002838,-0.00013089,-0.
 00063535,-0.00000330,-0.15882228,0.14427425,-0.00000005,0.00000327,-0.
 00000197,0.00000277,-0.00000091,0.00000077,-0.00000596,-0.00000405,-0.
 00000384,0.00000308,0.00000199,-0.00000612,-0.00000171,-0.00000697,-0.
 00000277,0.00000928,0.00001233,-0.00000207,0.00001534,-0.00000466,-0.0
 0020694,-0.00001967,0.00005443,0.00087461,0.00004435,-0.00010167,-0.00
 140726,-0.00092332,0.00042693,0.01483426,-0.01085954,0.00799727,-0.043
 33517,-0.00032486,0.00040342,0.00779718,0.00001381,-0.00002164,-0.0005
 0412,-0.00000520,0.00000807,-0.00005210,0.00000213,0.00000106,0.000000
 38,0.00000013,0.00000020,0.00000268,-0.00000055,0.00000008,0.00000614,
 0.00000107,-0.00000003,0.00001169,-0.00000903,-0.00000742,0.00002636,0
 .00001820,0.00000157,-0.00058245,0.01204493,-0.00876842,0.02242025,-0.
 00001151,0.00000856,0.00001536,-0.00000399,0.00000604,-0.00000522,0.00
 001837,0.00000078,-0.00002527,-0.00002006,-0.00007530,0.00000698,0.000
 29116,0.00012905,0.00004854,0.00123666,-0.00138664,0.00006288,-0.00506
 285,-0.00059221,-0.00063001,0.00581817,0.00568494,0.00004335,0.0013768
 9,-0.00045586,0.00008772,-0.00028060,0.00018539,-0.00001934,-0.0000797
 3,0.00002799,-0.00000285,0.00005185,-0.00012379,0.00000763,-0.18715569
 ,-0.14278890,-0.00137062,-0.00077830,-0.02078544,0.00048554,0.00000441
 ,-0.00001017,-0.00000091,-0.00000545,0.00000158,0.00000062,-0.00000652
 ,0.00000609,0.00000561,0.00005210,0.00002360,-0.00000177,-0.00037798,-
 0.00027127,0.00001616,-0.00030651,-0.00035912,-0.00000167,0.00001080,0
 .00002002,0.00000022,0.18516205,-0.00003057,-0.00003969,-0.00005167,-0
 .00001809,-0.00001559,0.00003525,0.00007616,0.00001917,0.00003783,-0.0
 0020836,-0.00002613,-0.00002015,0.00006135,-0.00028781,-0.00003245,-0.
 00176017,0.00106663,-0.00006420,-0.00156500,-0.00496982,0.00047288,-0.
 01648374,-0.00029674,-0.00061172,-0.00069609,-0.00005823,-0.00004048,0
 .00056745,0.00026770,0.00001475,-0.00011613,-0.00024641,0.00000555,0.0
 0013122,-0.00001571,0.00000149,-0.14601607,-0.22702212,0.00061539,0.00
 469682,0.00425306,0.00014249,0.00000628,0.00000857,-0.00000123,-0.0000
 0059,-0.00000092,-0.00000145,0.00001420,0.00000111,-0.00000155,-0.0000
 2942,0.00000787,0.00000044,0.00015932,0.00001227,-0.00001983,0.0007116
 5,-0.00026613,0.00003590,-0.00001206,-0.00003478,0.00000140,0.16065991
 ,0.22712894,-0.00006595,0.00000888,0.00001372,0.00006517,-0.00004102,-
 0.00000335,0.00003119,0.00002587,0.00034402,-0.00000213,-0.00000821,-0
 .00016431,0.00003797,-0.00000310,-0.00101316,0.00009243,-0.00004244,0.
 00085023,-0.00057562,0.00046603,0.01211443,0.00073431,0.00018126,-0.00
 009946,0.00008846,-0.00002467,-0.00052997,-0.00002767,-0.00000480,0.00
 001921,0.00000320,0.00001155,-0.00000700,-0.00000593,-0.00000480,0.000
 00999,-0.00128253,0.00073740,-0.03156717,-0.00034282,-0.00077930,0.003
 58427,-0.00002914,0.00000657,-0.00000811,-0.00000532,0.00000240,0.0000
 1164,0.00000557,0.00000032,-0.00017831,0.00000338,0.00000475,0.0000611
 6,0.00001768,-0.00002362,-0.00087867,-0.00003305,-0.00000445,0.0000293
 9,0.00000125,0.00000136,-0.00001336,0.00118959,-0.00042464,0.01981402,
 -0.00000039,-0.00001485,-0.00005314,-0.00001128,-0.00000803,0.00002567
 ,0.00004227,-0.00000302,0.00003082,-0.00005880,0.00004358,-0.00000676,
 -0.00000847,0.00037912,0.00000390,0.00044060,-0.00027968,0.00003587,0.
 00439047,-0.00278754,0.00015346,-0.00578736,0.00165200,-0.00083276,0.0
 0124299,0.00135804,0.00008212,-0.00040226,0.00021360,0.00002520,-0.000
 02373,0.00007259,-0.00001953,0.00007358,0.00004753,0.00000761,-0.00165
 378,0.02006828,-0.00094263,-0.21380499,0.13885507,-0.01084109,0.000003
 11,0.00000922,0.00000376,-0.00000647,0.00000284,-0.00000050,0.00003724
 ,0.00000330,0.00000387,-0.00033443,-0.00048342,-0.00000570,-0.00020417
 ,-0.00016465,-0.00000836,0.00009384,-0.00014174,0.00003805,0.00000631,
 0.00002565,-0.00000541,0.00006671,-0.00014806,0.00009995,0.21589901,-0
 .00000075,0.00011200,0.00011499,0.00001074,0.00003646,-0.00008880,-0.0
 0012331,-0.00020254,-0.00006131,-0.00042533,0.00046679,-0.00000424,0.0
 0048509,-0.00080426,0.00001826,0.00067487,-0.00043958,0.00003701,0.016
 40423,0.00328913,0.00064459,0.00269684,-0.00646338,0.00074515,0.001160
 02,0.00182770,-0.00008007,-0.00019029,-0.00023202,-0.00004116,0.000161
 23,0.00010088,0.00001335,-0.00010225,0.00003011,-0.00000487,-0.0058224
 4,0.00660471,-0.00019107,0.14452598,-0.19653835,0.01020679,-0.00000376
 ,-0.00004282,0.00000459,-0.00004405,0.00002549,0.00000924,0.00010657,0
 .00011589,-0.00000083,-0.00084749,0.00009170,-0.00000582,-0.00050299,-
 0.00028559,-0.00002292,0.00041874,-0.00029293,0.00000927,0.00002344,-0
 .00000563,0.00000374,0.00009475,0.00051476,-0.00008533,-0.15869984,0.1
 9209147,-0.00000575,-0.00000736,-0.00003071,0.00000703,0.00000196,0.00
 001932,0.00000091,0.00000238,0.00001227,0.00001167,-0.00001679,-0.0000
 2539,-0.00000837,0.00004293,-0.00018560,0.00001850,0.00001100,-0.00031
 660,-0.00041201,-0.00013311,0.00271727,-0.00079223,0.00066791,0.014885
 02,0.00007497,-0.00001540,-0.00212973,0.00003355,-0.00008638,-0.001292
 44,0.00000176,0.00003262,0.00043753,-0.00001505,0.00000203,-0.00020607
 ,-0.00015439,0.00074904,0.00708024,-0.01109746,0.01009593,-0.04115567,
 0.00000269,0.00000926,0.00000433,0.00000346,0.00000026,0.00001657,-0.0
 0000278,-0.00000532,0.00000603,0.00001137,-0.00001219,0.00027433,0.000
 00872,-0.00000373,-0.00004808,0.00002472,-0.00002431,-0.00073512,-0.00
 000435,0.00000384,0.00014386,0.00008745,-0.00009399,-0.00238923,0.0122
 0561,-0.01122056,0.02291787\\-0.00000733,-0.00000942,-0.00005046,-0.00
 000287,-0.00000301,0.00003633,0.00008687,0.00002823,0.00001376,-0.0000
 8623,0.00002962,0.00000585,0.00005360,-0.00003303,0.00000097,-0.000051
 64,-0.00000648,-0.00000966,0.00002834,0.00006029,0.00001722,-0.0000507
 5,-0.00002315,-0.00001666,0.00000654,-0.00004375,0.00000338,0.00007393
 ,-0.00000863,-0.00002299,-0.00002628,0.00003602,0.00003098,-0.00001306
 ,-0.00000270,0.00000100,0.00000270,0.00003783,0.00000895,-0.00001030,-
 0.00005050,-0.00001010,0.00001133,0.00000455,0.00000779,-0.00002083,-0
 .00001458,-0.00000897,0.00000281,-0.00001757,-0.00000809,-0.00000367,0
 .00000746,0.00000282,0.00000743,0.00000141,0.00000405,-0.00000574,0.00
 000474,0.00000728,-0.00000282,-0.00000158,-0.00001490,0.00000247,-0.00
 000138,-0.00000258,0.00000550,0.00000563,0.00000406\\\@


 LIFE IS SO UNCERTAIN - EAT DESSERT FIRST.
 Job cpu time:       0 days  3 hours 49 minutes 16.5 seconds.
 Elapsed time:       0 days  0 hours 57 minutes 19.7 seconds.
 File lengths (MBytes):  RWF=    322 Int=      0 D2E=      0 Chk=     16 Scr=      1
 Normal termination of Gaussian 16 at Wed May 17 18:25:21 2023.
### All Done ###
