### Starting Gaussian ###
 Entering Gaussian System, Link 0=g16
 Initial command:
 /cluster/software/gaussian/gaussian-16-A.03/avx2/g16/l1.exe "/local/scratch/yxie/Gau-31912.inp" -scrdir="/local/scratch/yxie/"
 Entering Link 1 = /cluster/software/gaussian/gaussian-16-A.03/avx2/g16/l1.exe PID=     31913.
  
 Copyright (c) 1988,1990,1992,1993,1995,1998,2003,2009,2016,
            Gaussian, Inc.  All Rights Reserved.
  
 This is part of the Gaussian(R) 16 program.  It is based on
 the Gaussian(R) 09 system (copyright 2009, Gaussian, Inc.),
 the Gaussian(R) 03 system (copyright 2003, Gaussian, Inc.),
 the Gaussian(R) 98 system (copyright 1998, Gaussian, Inc.),
 the Gaussian(R) 94 system (copyright 1995, Gaussian, Inc.),
 the Gaussian 92(TM) system (copyright 1992, Gaussian, Inc.),
 the Gaussian 90(TM) system (copyright 1990, Gaussian, Inc.),
 the Gaussian 88(TM) system (copyright 1988, Gaussian, Inc.),
 the Gaussian 86(TM) system (copyright 1986, Carnegie Mellon
 University), and the Gaussian 82(TM) system (copyright 1983,
 Carnegie Mellon University). Gaussian is a federally registered
 trademark of Gaussian, Inc.
  
 This software contains proprietary and confidential information,
 including trade secrets, belonging to Gaussian, Inc.
  
 This software is provided under written license and may be
 used, copied, transmitted, or stored only in accord with that
 written license.
  
 The following legend is applicable only to US Government
 contracts under FAR:
  
                    RESTRICTED RIGHTS LEGEND
  
 Use, reproduction and disclosure by the US Government is
 subject to restrictions as set forth in subparagraphs (a)
 and (c) of the Commercial Computer Software - Restricted
 Rights clause in FAR 52.227-19.
  
 Gaussian, Inc.
 340 Quinnipiac St., Bldg. 40, Wallingford CT 06492
  
  
 ---------------------------------------------------------------
 Warning -- This program may not be used in any manner that
 competes with the business of Gaussian, Inc. or will provide
 assistance to any competitor of Gaussian, Inc.  The licensee
 of this program is prohibited from giving any competitor of
 Gaussian, Inc. access to this program.  By using this program,
 the user acknowledges that Gaussian, Inc. is engaged in the
 business of creating and licensing software in the field of
 computational chemistry and represents and warrants to the
 licensee that it is not a competitor of Gaussian, Inc. and that
 it will not use this program in any manner prohibited above.
 ---------------------------------------------------------------
  

 Cite this work as:
 Gaussian 16, Revision A.03,
 M. J. Frisch, G. W. Trucks, H. B. Schlegel, G. E. Scuseria, 
 M. A. Robb, J. R. Cheeseman, G. Scalmani, V. Barone, 
 G. A. Petersson, H. Nakatsuji, X. Li, M. Caricato, A. V. Marenich, 
 J. Bloino, B. G. Janesko, R. Gomperts, B. Mennucci, H. P. Hratchian, 
 J. V. Ortiz, A. F. Izmaylov, J. L. Sonnenberg, D. Williams-Young, 
 F. Ding, F. Lipparini, F. Egidi, J. Goings, B. Peng, A. Petrone, 
 T. Henderson, D. Ranasinghe, V. G. Zakrzewski, J. Gao, N. Rega, 
 G. Zheng, W. Liang, M. Hada, M. Ehara, K. Toyota, R. Fukuda, 
 J. Hasegawa, M. Ishida, T. Nakajima, Y. Honda, O. Kitao, H. Nakai, 
 T. Vreven, K. Throssell, J. A. Montgomery, Jr., J. E. Peralta, 
 F. Ogliaro, M. J. Bearpark, J. J. Heyd, E. N. Brothers, K. N. Kudin, 
 V. N. Staroverov, T. A. Keith, R. Kobayashi, J. Normand, 
 K. Raghavachari, A. P. Rendell, J. C. Burant, S. S. Iyengar, 
 J. Tomasi, M. Cossi, J. M. Millam, M. Klene, C. Adamo, R. Cammi, 
 J. W. Ochterski, R. L. Martin, K. Morokuma, O. Farkas, 
 J. B. Foresman, and D. J. Fox, Gaussian, Inc., Wallingford CT, 2016.
 
 ******************************************
 Gaussian 16:  ES64L-G16RevA.03 25-Dec-2016
                16-May-2023 
 ******************************************
 %chk=NdCd[SH]C1dCCdCCdCCdCOCCCS1.chk
 %NProcShared=20
 Will use up to   20 processors via shared memory.
 -----------------------------
 # opt freq b3lyp/6-31g(2df,p)
 -----------------------------
 1/18=20,19=15,26=3,38=1/1,3;
 2/9=110,12=2,17=6,18=5,40=1/2;
 3/5=1,6=6,7=104,11=2,25=1,30=1,71=1,74=-5/1,2,3;
 4//1;
 5/5=2,38=5/2;
 6/7=2,8=2,9=2,10=2,28=1/1;
 7//1,2,3,16;
 1/18=20,19=15,26=3/3(2);
 2/9=110/2;
 99//99;
 2/9=110/2;
 3/5=1,6=6,7=104,11=2,25=1,30=1,71=1,74=-5/1,2,3;
 4/5=5,16=3,69=1/1;
 5/5=2,38=5/2;
 7//1,2,3,16;
 1/18=20,19=15,26=3/3(-5);
 2/9=110/2;
 6/7=2,8=2,9=2,10=2,19=2,28=1/1;
 99/9=1/99;
 -------------------
 Title Card Required
 -------------------
 Symbolic Z-matrix:
 Charge =  0 Multiplicity = 1
 N                     1.79969   0.15267  -0.0839 
 C                     3.11914   0.85857  -0.11252 
 S                     4.97506   2.02417  -0.36122 
 C                     6.76544   4.11984  -0.04939 
 C                     6.54919   2.40487  -0.29172 
 C                     6.79114   3.41855  -1.26628 
 C                     8.22779   3.39081  -1.30726 
 C                     8.85593   4.53112  -1.9806 
 C                     10.09518   4.74919  -1.58731 
 C                     10.30748   6.08594  -1.72512 
 C                     11.55222   6.16492  -1.59737 
 O                     11.58312   6.995    -2.64733 
 C                     13.01893   7.41328  -2.10268 
 C                     12.17047   9.15267  -1.99304 
 C                     10.62023   7.96642  -0.95329 
 S                     8.50487   6.07189  -0.2798 
 H                     0.79588  -0.59177   0.51169 
 H                     4.80181   0.20606  -0.7505 
 H                     6.85394   1.15559  -0.33484 
 H                     5.56066   4.23149  -1.30164 
 H                     8.62802   2.55733  -0.65223 
 H                     8.41126   5.79766  -2.31092 
 H                     10.54756   4.08258  -0.91559 
 H                     9.49639   7.20899  -1.87381 
 H                     12.42783   5.67978  -1.36655 
 H                     13.71114   7.54242  -2.83923 
 H                     13.65356   7.80371  -1.01488 
 H                     13.01219   10.27512  -1.49586 
 H                     12.93231   9.80991  -3.18383 
 H                     12.12609   8.57855  -0.95368 
 H                     11.86414   8.51147  -1.87061 
 
 Add virtual bond connecting atoms H27        and C13        Dist= 2.49D+00.
 Add virtual bond connecting atoms H22        and C8         Dist= 2.61D+00.
 Add virtual bond connecting atoms H17        and N1         Dist= 2.62D+00.
 Add virtual bond connecting atoms H24        and C10        Dist= 2.63D+00.
 Add virtual bond connecting atoms H20        and C6         Dist= 2.79D+00.
 Add virtual bond connecting atoms H28        and C14        Dist= 2.81D+00.
 Add virtual bond connecting atoms H29        and C14        Dist= 2.95D+00.
 Add virtual bond connecting atoms H30        and H27        Dist= 3.24D+00.
 Add virtual bond connecting atoms H31        and O12        Dist= 3.26D+00.
 Add virtual bond connecting atoms H31        and C13        Dist= 3.04D+00.
 Add virtual bond connecting atoms H24        and C15        Dist= 3.10D+00.
 Add virtual bond connecting atoms H30        and C15        Dist= 3.07D+00.
 Add virtual bond connecting atoms H31        and C15        Dist= 3.10D+00.
 Add virtual bond connecting atoms H18        and S3         Dist= 3.53D+00.
 Add virtual bond connecting atoms H18        and C2         Dist= 3.62D+00.
 Add virtual bond connecting atoms H22        and S16        Dist= 3.88D+00.
 Add virtual bond connecting atoms H24        and S16        Dist= 4.15D+00.

 GradGradGradGradGradGradGradGradGradGradGradGradGradGradGradGradGradGrad
 Berny optimization.
 Initialization pass.
                           ----------------------------
                           !    Initial Parameters    !
                           ! (Angstroms and Degrees)  !
 --------------------------                            --------------------------
 ! Name  Definition              Value          Derivative Info.                !
 --------------------------------------------------------------------------------
 ! R1    R(1,2)                  1.4967         estimate D2E/DX2                !
 ! R2    R(1,17)                 1.3844         estimate D2E/DX2                !
 ! R3    R(2,18)                 1.9142         estimate D2E/DX2                !
 ! R4    R(3,5)                  1.621          estimate D2E/DX2                !
 ! R5    R(3,18)                 1.8674         estimate D2E/DX2                !
 ! R6    R(4,5)                  1.7455         estimate D2E/DX2                !
 ! R7    R(4,6)                  1.4047         estimate D2E/DX2                !
 ! R8    R(5,6)                  1.4268         estimate D2E/DX2                !
 ! R9    R(5,19)                 1.2866         estimate D2E/DX2                !
 ! R10   R(6,7)                  1.4375         estimate D2E/DX2                !
 ! R11   R(6,20)                 1.4752         estimate D2E/DX2                !
 ! R12   R(7,8)                  1.4657         estimate D2E/DX2                !
 ! R13   R(7,21)                 1.1331         estimate D2E/DX2                !
 ! R14   R(8,9)                  1.3183         estimate D2E/DX2                !
 ! R15   R(8,22)                 1.3824         estimate D2E/DX2                !
 ! R16   R(9,10)                 1.3605         estimate D2E/DX2                !
 ! R17   R(9,23)                 1.0489         estimate D2E/DX2                !
 ! R18   R(10,11)                1.2538         estimate D2E/DX2                !
 ! R19   R(10,24)                1.3933         estimate D2E/DX2                !
 ! R20   R(11,12)                1.3388         estimate D2E/DX2                !
 ! R21   R(11,25)                1.0273         estimate D2E/DX2                !
 ! R22   R(12,13)                1.5916         estimate D2E/DX2                !
 ! R23   R(12,31)                1.7268         estimate D2E/DX2                !
 ! R24   R(13,26)                1.019          estimate D2E/DX2                !
 ! R25   R(13,27)                1.3185         estimate D2E/DX2                !
 ! R26   R(13,31)                1.6104         estimate D2E/DX2                !
 ! R27   R(14,28)                1.4885         estimate D2E/DX2                !
 ! R28   R(14,29)                1.559          estimate D2E/DX2                !
 ! R29   R(14,30)                1.1882         estimate D2E/DX2                !
 ! R30   R(14,31)                0.7211         estimate D2E/DX2                !
 ! R31   R(15,24)                1.6383         estimate D2E/DX2                !
 ! R32   R(15,30)                1.6255         estimate D2E/DX2                !
 ! R33   R(15,31)                1.6389         estimate D2E/DX2                !
 ! R34   R(16,22)                2.0517         estimate D2E/DX2                !
 ! R35   R(16,24)                2.1948         estimate D2E/DX2                !
 ! R36   R(27,30)                1.7139         estimate D2E/DX2                !
 ! A1    A(2,1,17)             154.2993         estimate D2E/DX2                !
 ! A2    A(1,2,18)             128.3564         estimate D2E/DX2                !
 ! A3    A(5,3,18)             109.1287         estimate D2E/DX2                !
 ! A4    A(3,5,4)              110.9171         estimate D2E/DX2                !
 ! A5    A(3,5,6)              107.5918         estimate D2E/DX2                !
 ! A6    A(3,5,19)              90.0307         estimate D2E/DX2                !
 ! A7    A(4,5,19)             158.3285         estimate D2E/DX2                !
 ! A8    A(6,5,19)             128.8114         estimate D2E/DX2                !
 ! A9    A(4,6,7)               93.0159         estimate D2E/DX2                !
 ! A10   A(4,6,20)              74.359          estimate D2E/DX2                !
 ! A11   A(5,6,7)              100.0922         estimate D2E/DX2                !
 ! A12   A(5,6,20)             105.4522         estimate D2E/DX2                !
 ! A13   A(7,6,20)             147.519          estimate D2E/DX2                !
 ! A14   A(6,7,8)              115.2387         estimate D2E/DX2                !
 ! A15   A(6,7,21)             110.5313         estimate D2E/DX2                !
 ! A16   A(8,7,21)             133.3514         estimate D2E/DX2                !
 ! A17   A(7,8,9)              113.2347         estimate D2E/DX2                !
 ! A18   A(7,8,22)             133.2141         estimate D2E/DX2                !
 ! A19   A(9,8,22)             102.8329         estimate D2E/DX2                !
 ! A20   A(8,9,10)             106.2002         estimate D2E/DX2                !
 ! A21   A(8,9,23)             119.4285         estimate D2E/DX2                !
 ! A22   A(10,9,23)            128.4621         estimate D2E/DX2                !
 ! A23   A(9,10,11)            101.917          estimate D2E/DX2                !
 ! A24   A(9,10,24)            135.3936         estimate D2E/DX2                !
 ! A25   A(11,10,24)           122.5511         estimate D2E/DX2                !
 ! A26   A(10,11,12)            88.9722         estimate D2E/DX2                !
 ! A27   A(10,11,25)           147.0719         estimate D2E/DX2                !
 ! A28   A(12,11,25)           116.7014         estimate D2E/DX2                !
 ! A29   A(11,12,13)            85.1464         estimate D2E/DX2                !
 ! A30   A(11,12,31)           101.2733         estimate D2E/DX2                !
 ! A31   A(12,13,26)           113.5016         estimate D2E/DX2                !
 ! A32   A(12,13,27)           142.5943         estimate D2E/DX2                !
 ! A33   A(26,13,27)           103.4059         estimate D2E/DX2                !
 ! A34   A(26,13,31)           120.322          estimate D2E/DX2                !
 ! A35   A(27,13,31)            91.3939         estimate D2E/DX2                !
 ! A36   A(28,14,29)            70.1763         estimate D2E/DX2                !
 ! A37   A(28,14,30)            95.3539         estimate D2E/DX2                !
 ! A38   A(28,14,31)           148.6568         estimate D2E/DX2                !
 ! A39   A(29,14,30)           152.8863         estimate D2E/DX2                !
 ! A40   A(29,14,31)           135.4121         estimate D2E/DX2                !
 ! A41   A(30,14,31)            53.5563         estimate D2E/DX2                !
 ! A42   A(24,15,30)           144.0413         estimate D2E/DX2                !
 ! A43   A(24,15,31)           111.0954         estimate D2E/DX2                !
 ! A44   A(30,15,31)            34.054          estimate D2E/DX2                !
 ! A45   A(22,16,24)            51.0135         estimate D2E/DX2                !
 ! A46   A(2,18,3)              71.3486         estimate D2E/DX2                !
 ! A47   A(8,22,16)             82.6014         estimate D2E/DX2                !
 ! A48   A(10,24,15)            85.0294         estimate D2E/DX2                !
 ! A49   A(10,24,16)            76.5777         estimate D2E/DX2                !
 ! A50   A(15,24,16)            98.1262         estimate D2E/DX2                !
 ! A51   A(13,27,30)            74.5949         estimate D2E/DX2                !
 ! A52   A(14,30,15)           102.519          estimate D2E/DX2                !
 ! A53   A(14,30,27)            98.8544         estimate D2E/DX2                !
 ! A54   A(15,30,27)           130.9499         estimate D2E/DX2                !
 ! A55   A(12,31,14)           140.6833         estimate D2E/DX2                !
 ! A56   A(12,31,15)            80.5713         estimate D2E/DX2                !
 ! A57   A(13,31,14)           106.0985         estimate D2E/DX2                !
 ! A58   A(13,31,15)           113.4615         estimate D2E/DX2                !
 ! A59   A(14,31,15)           135.4965         estimate D2E/DX2                !
 ! D1    D(17,1,2,18)           96.468          estimate D2E/DX2                !
 ! D2    D(1,2,18,3)           171.8413         estimate D2E/DX2                !
 ! D3    D(18,3,5,4)           175.7202         estimate D2E/DX2                !
 ! D4    D(18,3,5,6)           121.1606         estimate D2E/DX2                !
 ! D5    D(18,3,5,19)           -9.9624         estimate D2E/DX2                !
 ! D6    D(5,3,18,2)           164.856          estimate D2E/DX2                !
 ! D7    D(3,5,6,7)           -166.3025         estimate D2E/DX2                !
 ! D8    D(3,5,6,20)            33.9526         estimate D2E/DX2                !
 ! D9    D(19,5,6,7)           -61.4845         estimate D2E/DX2                !
 ! D10   D(19,5,6,20)          138.7706         estimate D2E/DX2                !
 ! D11   D(4,6,7,8)            -89.681          estimate D2E/DX2                !
 ! D12   D(4,6,7,21)            81.0463         estimate D2E/DX2                !
 ! D13   D(5,6,7,8)           -166.0983         estimate D2E/DX2                !
 ! D14   D(5,6,7,21)             4.6289         estimate D2E/DX2                !
 ! D15   D(20,6,7,8)           -24.5144         estimate D2E/DX2                !
 ! D16   D(20,6,7,21)          146.2129         estimate D2E/DX2                !
 ! D17   D(6,7,8,9)            156.0403         estimate D2E/DX2                !
 ! D18   D(6,7,8,22)            18.732          estimate D2E/DX2                !
 ! D19   D(21,7,8,9)           -11.9827         estimate D2E/DX2                !
 ! D20   D(21,7,8,22)         -149.291          estimate D2E/DX2                !
 ! D21   D(7,8,9,10)          -150.4677         estimate D2E/DX2                !
 ! D22   D(7,8,9,23)             4.7036         estimate D2E/DX2                !
 ! D23   D(22,8,9,10)           -0.9203         estimate D2E/DX2                !
 ! D24   D(22,8,9,23)          154.2511         estimate D2E/DX2                !
 ! D25   D(7,8,22,16)           70.3462         estimate D2E/DX2                !
 ! D26   D(9,8,22,16)          -69.9349         estimate D2E/DX2                !
 ! D27   D(8,9,10,11)         -167.2584         estimate D2E/DX2                !
 ! D28   D(8,9,10,24)           17.1504         estimate D2E/DX2                !
 ! D29   D(23,9,10,11)          40.5859         estimate D2E/DX2                !
 ! D30   D(23,9,10,24)        -135.0053         estimate D2E/DX2                !
 ! D31   D(9,10,11,12)         135.3473         estimate D2E/DX2                !
 ! D32   D(9,10,11,25)          -7.6927         estimate D2E/DX2                !
 ! D33   D(24,10,11,12)        -48.3246         estimate D2E/DX2                !
 ! D34   D(24,10,11,25)        168.6354         estimate D2E/DX2                !
 ! D35   D(9,10,24,15)         144.0118         estimate D2E/DX2                !
 ! D36   D(9,10,24,16)          44.4201         estimate D2E/DX2                !
 ! D37   D(11,10,24,15)        -30.8687         estimate D2E/DX2                !
 ! D38   D(11,10,24,16)       -130.4604         estimate D2E/DX2                !
 ! D39   D(10,11,12,13)        161.6387         estimate D2E/DX2                !
 ! D40   D(10,11,12,31)        105.7538         estimate D2E/DX2                !
 ! D41   D(25,11,12,13)        -39.8211         estimate D2E/DX2                !
 ! D42   D(25,11,12,31)        -95.706          estimate D2E/DX2                !
 ! D43   D(11,12,13,26)        139.5041         estimate D2E/DX2                !
 ! D44   D(11,12,13,27)        -50.4874         estimate D2E/DX2                !
 ! D45   D(11,12,31,14)        150.9188         estimate D2E/DX2                !
 ! D46   D(11,12,31,15)        -49.3165         estimate D2E/DX2                !
 ! D47   D(12,13,27,30)        -37.9227         estimate D2E/DX2                !
 ! D48   D(26,13,27,30)        132.6633         estimate D2E/DX2                !
 ! D49   D(31,13,27,30)         10.9982         estimate D2E/DX2                !
 ! D50   D(26,13,31,14)        -36.8109         estimate D2E/DX2                !
 ! D51   D(26,13,31,15)        164.0454         estimate D2E/DX2                !
 ! D52   D(27,13,31,14)         69.6226         estimate D2E/DX2                !
 ! D53   D(27,13,31,15)        -89.5211         estimate D2E/DX2                !
 ! D54   D(28,14,30,15)        144.1196         estimate D2E/DX2                !
 ! D55   D(28,14,30,27)        -80.3151         estimate D2E/DX2                !
 ! D56   D(29,14,30,15)       -160.2359         estimate D2E/DX2                !
 ! D57   D(29,14,30,27)        -24.6706         estimate D2E/DX2                !
 ! D58   D(31,14,30,15)        -40.2162         estimate D2E/DX2                !
 ! D59   D(31,14,30,27)         95.3491         estimate D2E/DX2                !
 ! D60   D(28,14,31,12)       -137.6932         estimate D2E/DX2                !
 ! D61   D(28,14,31,13)        -80.7944         estimate D2E/DX2                !
 ! D62   D(28,14,31,15)         71.4354         estimate D2E/DX2                !
 ! D63   D(29,14,31,12)         -0.2172         estimate D2E/DX2                !
 ! D64   D(29,14,31,13)         56.6816         estimate D2E/DX2                !
 ! D65   D(29,14,31,15)       -151.0886         estimate D2E/DX2                !
 ! D66   D(30,14,31,12)       -146.0136         estimate D2E/DX2                !
 ! D67   D(30,14,31,13)        -89.1148         estimate D2E/DX2                !
 ! D68   D(30,14,31,15)         63.115          estimate D2E/DX2                !
 ! D69   D(30,15,24,10)         73.5564         estimate D2E/DX2                !
 ! D70   D(30,15,24,16)        149.2099         estimate D2E/DX2                !
 ! D71   D(31,15,24,10)         84.8855         estimate D2E/DX2                !
 ! D72   D(31,15,24,16)        160.539          estimate D2E/DX2                !
 ! D73   D(24,15,30,14)         43.1914         estimate D2E/DX2                !
 ! D74   D(24,15,30,27)        -70.4766         estimate D2E/DX2                !
 ! D75   D(31,15,30,14)         24.0865         estimate D2E/DX2                !
 ! D76   D(31,15,30,27)        -89.5815         estimate D2E/DX2                !
 ! D77   D(24,15,31,12)        -39.381          estimate D2E/DX2                !
 ! D78   D(24,15,31,13)        -86.8089         estimate D2E/DX2                !
 ! D79   D(24,15,31,14)        122.4003         estimate D2E/DX2                !
 ! D80   D(30,15,31,12)        128.7312         estimate D2E/DX2                !
 ! D81   D(30,15,31,13)         81.3033         estimate D2E/DX2                !
 ! D82   D(30,15,31,14)        -69.4875         estimate D2E/DX2                !
 ! D83   D(24,16,22,8)         123.1839         estimate D2E/DX2                !
 ! D84   D(22,16,24,10)        -80.7473         estimate D2E/DX2                !
 ! D85   D(22,16,24,15)       -163.6211         estimate D2E/DX2                !
 ! D86   D(13,27,30,14)        -56.935          estimate D2E/DX2                !
 ! D87   D(13,27,30,15)         58.256          estimate D2E/DX2                !
 --------------------------------------------------------------------------------
 Trust Radius=3.00D-01 FncErr=1.00D-07 GrdErr=1.00D-06 EigMax=2.50D+02 EigMin=1.00D-04
 Number of steps in this run=    186 maximum allowed number of steps=    186.
 GradGradGradGradGradGradGradGradGradGradGradGradGradGradGradGradGradGrad

                          Input orientation:                          
 ---------------------------------------------------------------------
 Center     Atomic      Atomic             Coordinates (Angstroms)
 Number     Number       Type             X           Y           Z
 ---------------------------------------------------------------------
      1          7           0        1.799690    0.152670   -0.083900
      2          6           0        3.119140    0.858570   -0.112520
      3         16           0        4.975060    2.024170   -0.361220
      4          6           0        6.765440    4.119840   -0.049390
      5          6           0        6.549190    2.404870   -0.291720
      6          6           0        6.791140    3.418550   -1.266280
      7          6           0        8.227790    3.390810   -1.307260
      8          6           0        8.855930    4.531120   -1.980600
      9          6           0       10.095180    4.749190   -1.587310
     10          6           0       10.307480    6.085940   -1.725120
     11          6           0       11.552220    6.164920   -1.597370
     12          8           0       11.583120    6.995000   -2.647330
     13          6           0       13.018930    7.413280   -2.102680
     14          6           0       12.170470    9.152670   -1.993040
     15          6           0       10.620230    7.966420   -0.953290
     16         16           0        8.504870    6.071890   -0.279800
     17          1           0        0.795880   -0.591770    0.511690
     18          1           0        4.801810    0.206060   -0.750500
     19          1           0        6.853940    1.155590   -0.334840
     20          1           0        5.560660    4.231490   -1.301640
     21          1           0        8.628020    2.557330   -0.652230
     22          1           0        8.411260    5.797660   -2.310920
     23          1           0       10.547560    4.082580   -0.915590
     24          1           0        9.496390    7.208990   -1.873810
     25          1           0       12.427830    5.679780   -1.366550
     26          1           0       13.711140    7.542420   -2.839230
     27          1           0       13.653560    7.803710   -1.014880
     28          1           0       13.012190   10.275120   -1.495860
     29          1           0       12.932310    9.809910   -3.183830
     30          1           0       12.126090    8.578550   -0.953680
     31          1           0       11.864140    8.511470   -1.870610
 ---------------------------------------------------------------------
                    Distance matrix (angstroms):
                    1          2          3          4          5
     1  N    0.000000
     2  C    1.496684   0.000000
     3  S    3.696267   2.205655   0.000000
     4  C    6.355966   4.892379   2.773902   0.000000
     5  C    5.260546   3.766749   1.621002   1.745454   0.000000
     6  C    6.081001   4.622580   2.462027   1.404738   1.426834
     7  C    7.300865   5.825629   3.652800   2.062084   2.195700
     8  C    8.518146   7.063151   4.895747   2.875565   3.562907
     9  C    9.602260   8.122627   5.928293   3.721350   4.443921
    10  C   10.501418   9.033167   6.840534   4.384024   5.452491
    11  C   11.556365  10.073677   7.869747   5.430641   6.393200
    12  O   12.210821  10.757323   8.579155   6.182708   7.208234
    13  C   13.515298  12.038721   9.837634   7.359951   8.379814
    14  C   13.863545  12.419945  10.259253   7.636852   8.945730
    15  C   11.815771  10.367969   8.217592   5.520201   6.924008
    16  S    8.946227   7.497518   5.371241   2.624729   4.155943
    17  H    1.384396   2.809032   5.007061   7.625597   6.536505
    18  H    3.075700   1.914201   1.867372   4.434532   2.845801
    19  H    5.158901   3.753182   2.070101   2.979277   1.286636
    20  H    5.680190   4.330314   2.469733   1.741290   2.309474
    21  H    7.261644   5.790063   3.703115   2.504807   2.115359
    22  H    8.974318   7.565323   5.463335   3.261644   4.365260
    23  H    9.626065   8.137603   5.966333   3.880222   4.380740
    24  H   10.594084   9.170567   7.043629   4.508818   5.853936
    25  H   12.047883  10.557858   8.361696   6.019218   6.814595
    26  H   14.285758  12.817927  10.625945   8.230432   9.174844
    27  H   14.139285  12.650029  10.447331   7.870786   8.952235
    28  H   15.171611  13.727982  11.574154   8.888286  10.254811
    29  H   15.060115  13.632965  11.484890   8.957226  10.195251
    30  H   13.356141  11.892468   9.718443   7.030960   8.345917
    31  H   13.204356  11.752990   9.582418   6.971370   8.248160
                    6          7          8          9         10
     6  C    0.000000
     7  C    1.437502   0.000000
     8  C    2.451820   1.465692   0.000000
     9  C    3.576359   2.326106   1.318322   0.000000
    10  C    4.437359   3.429788   2.142366   1.360501   0.000000
    11  C    5.506365   4.339549   3.175870   2.031590   1.253769
    12  O    6.136886   5.103353   3.735345   2.895042   1.817724
    13  C    7.445992   6.306186   5.064812   3.988897   3.042424
    14  C    7.895917   7.015273   5.687271   4.884883   3.598242
    15  C    5.953404   5.175449   3.996174   3.320878   2.056633
    16  S    3.309113   2.884551   2.321624   2.447081   2.310530
    17  H    7.428794   8.625706   9.870153  10.927426  11.834934
    18  H    3.813601   4.710621   6.054352   7.025671   8.113894
    19  H    2.447961   2.798084   4.255666   4.998828   6.178039
    20  H    1.475196   2.796490   3.377805   4.572909   5.113768
    21  H    2.119643   1.133110   2.390054   2.798425   4.052501
    22  H    3.062062   2.614177   1.382377   2.111513   2.005472
    23  H    3.830745   2.452200   2.048669   1.048916   2.174035
    24  H    4.696265   4.063105   2.755464   2.547793   1.393276
    25  H    6.074166   4.783642   3.801966   2.521109   2.188475
    26  H    8.207733   7.046270   5.777390   4.737574   3.866197
    27  H    8.147738   6.999868   5.887250   4.724387   3.827718
    28  H    9.261032   8.385689   7.106547   6.249257   4.991718
    29  H    9.068652   8.176727   6.777187   6.017397   4.783881
    30  H    7.428661   6.498801   5.303791   4.380648   3.180498
    31  H    7.213763   6.305677   4.990452   4.167041   2.885750
                   11         12         13         14         15
    11  C    0.000000
    12  O    1.338807   0.000000
    13  C    1.991226   1.591588   0.000000
    14  C    3.076595   2.329939   1.938397   0.000000
    15  C    2.128109   2.177289   2.716767   2.211677   0.000000
    16  S    3.321293   3.991610   5.049649   5.085570   2.918489
    17  H   12.876329  13.561085  14.843137  15.185818  13.111317
    18  H    9.043961   9.781300  11.013332  11.656882   9.701460
    19  H    6.982922   7.862027   8.960527   9.745174   7.807357
    20  H    6.302729   6.761501   8.148082   8.269561   6.298436
    21  H    4.739087   5.692623   6.705531   7.605605   5.772157
    22  H    3.241861   3.406977   4.887148   5.048643   3.380270
    23  H    2.410458   3.543092   4.313979   5.431441   3.884703
    24  H    2.322270   2.235748   3.535874   3.307992   1.638314
    25  H    1.027293   2.020826   1.973907   3.538317   2.943964
    26  H    2.846166   2.205666   1.018989   2.383822   3.645582
    27  H    2.727738   2.757830   1.318522   2.230705   3.038315
    28  H    4.362976   3.758632   2.925475   1.488481   3.368375
    29  H    4.208023   3.167312   2.630632   1.558957   3.703981
    30  H    2.563059   2.381365   1.864194   1.188214   1.625521
    31  H    2.382908   1.726832   1.610409   0.721086   1.638862
                   16         17         18         19         20
    16  S    0.000000
    17  H   10.220536   0.000000
    18  H    6.952854   4.275176   0.000000
    19  H    5.186387   6.361601   2.299047   0.000000
    20  H    3.619337   7.018200   4.133243   3.473965   0.000000
    21  H    3.536383   8.521382   4.491994   2.283193   3.554327
    22  H    2.051685  10.333729   6.835864   5.280052   3.405504
    23  H    2.921329  10.907884   6.933131   4.748407   5.004036
    24  H    2.194761  11.926497   8.505406   6.781934   4.968184
    25  H    4.089547  13.347748   9.407301   7.252653   7.018531
    26  H    5.984847  15.626825  11.728646   9.699730   8.930664
    27  H    5.481656  15.431605  11.668233   9.533876   8.850877
    28  H    6.281869  16.472941  13.013526  11.065163   9.596275
    29  H    6.481389  16.405632  12.816398  10.952652   9.434121
    30  H    4.455412  14.649769  11.125868   9.125725   7.881807
    31  H    4.446001  14.527584  10.959516   9.031593   7.640407
                   21         22         23         24         25
    21  H    0.000000
    22  H    3.646639   0.000000
    23  H    2.465843   3.074447   0.000000
    24  H    4.887153   1.833146   3.434761   0.000000
    25  H    4.969759   4.127780   2.507953   3.345017   0.000000
    26  H    7.447966   5.604643   5.067457   4.336742   2.699092
    27  H    7.274068   5.760700   4.848082   4.286434   2.477330
    28  H    8.916106   6.471517   6.690192   4.680262   4.634150
    29  H    8.805443   6.107374   6.605623   4.504052   4.540372
    30  H    6.970112   4.834812   4.765181   3.104457   2.943531
    31  H    6.885398   4.413731   4.718105   2.702352   2.930920
                   26         27         28         29         30
    26  H    0.000000
    27  H    1.843866   0.000000
    28  H    3.124232   2.598185   0.000000
    29  H    2.422155   3.041280   1.752725   0.000000
    30  H    2.672311   1.713852   1.989342   2.672042   0.000000
    31  H    2.299716   2.105997   2.137503   2.133420   0.955970
                   31
    31  H    0.000000
 Stoichiometry    C12H15NOS2
 Framework group  C1[X(C12H15NOS2)]
 Deg. of freedom    87
 Full point group                 C1      NOp   1
 Largest Abelian subgroup         C1      NOp   1
 Largest concise Abelian subgroup C1      NOp   1
                         Standard orientation:                         
 ---------------------------------------------------------------------
 Center     Atomic      Atomic             Coordinates (Angstroms)
 Number     Number       Type             X           Y           Z
 ---------------------------------------------------------------------
      1          7           0        7.989269    0.333683    0.469059
      2          6           0        6.531398    0.175564    0.169608
      3         16           0        4.341673   -0.005851   -0.023032
      4          6           0        1.717653    0.779336   -0.461815
      5          6           0        2.902921   -0.495890   -0.586506
      6          6           0        1.938723   -0.273517    0.441466
      7          6           0        0.840342   -1.045668   -0.072105
      8          6           0       -0.452684   -0.798390    0.572248
      9          6           0       -1.481907   -1.101971   -0.193592
     10          6           0       -2.490839   -0.268597    0.178574
     11          6           0       -3.480317   -0.791434   -0.386678
     12          8           0       -4.180339   -0.630508    0.743134
     13          6           0       -5.460857   -0.820663   -0.182754
     14          6           0       -5.860090    0.960688    0.469001
     15          6           0       -3.769412    1.305252   -0.164917
     16         16           0       -0.863709    1.253613   -0.432878
     17          1           0        9.316242    0.541642    0.133726
     18          1           0        5.534206   -1.442410   -0.058280
     19          1           0        3.430424   -1.604576   -0.971199
     20          1           0        2.382298    0.948478    1.138725
     21          1           0        1.147635   -1.596563   -1.013393
     22          1           0       -0.941442    0.236655    1.347337
     23          1           0       -1.315039   -1.547595   -1.128365
     24          1           0       -2.579830    0.923177    0.894794
     25          1           0       -3.821174   -1.504124   -1.043352
     26          1           0       -6.190410   -1.389443    0.244540
     27          1           0       -6.020460   -0.392425   -1.297185
     28          1           0       -7.123201    1.580859   -0.016295
     29          1           0       -7.040015    0.559219    1.405456
     30          1           0       -5.308992    0.993676   -0.583165
     31          1           0       -5.209429    0.689267    0.317557
 ---------------------------------------------------------------------
 Rotational constants (GHZ):           2.2644449           0.1223328           0.1187403
 Standard basis: 6-31G(2df,p) (6D, 7F)
 There are   579 symmetry adapted cartesian basis functions of A   symmetry.
 There are   531 symmetry adapted basis functions of A   symmetry.
   531 basis functions,   857 primitive gaussians,   579 cartesian basis functions
    67 alpha electrons       67 beta electrons
       nuclear repulsion energy      1214.1970406660 Hartrees.
 NAtoms=   31 NActive=   31 NUniq=   31 SFac= 1.00D+00 NAtFMM=   60 NAOKFM=F Big=F
 Integral buffers will be    131072 words long.
 Raffenetti 2 integral format.
 Two-electron integral symmetry is turned on.
 One-electron integrals computed using PRISM.
 PrsmSu:  requested number of processors reduced to:  12 ShMem   1 Linda.
 NBasis=   531 RedAO= T EigKep=  2.08D-04  NBF=   531
 NBsUse=   531 1.00D-06 EigRej= -1.00D+00 NBFU=   531
 ExpMin= 1.17D-01 ExpMax= 2.19D+04 ExpMxC= 3.30D+03 IAcc=3 IRadAn=         5 AccDes= 0.00D+00
 Harris functional with IExCor=  402 and IRadAn=       5 diagonalized for initial guess.
 HarFok:  IExCor=  402 AccDes= 0.00D+00 IRadAn=         5 IDoV= 1 UseB2=F ITyADJ=14
 ICtDFT=  3500011 ScaDFX=  1.000000  1.000000  1.000000  1.000000
 FoFCou: FMM=F IPFlag=           0 FMFlag=      100000 FMFlg1=           0
         NFxFlg=           0 DoJE=T BraDBF=F KetDBF=T FulRan=T
         wScrn=  0.000000 ICntrl=       500 IOpCl=  0 I1Cent=   200000004 NGrid=           0
         NMat0=    1 NMatS0=      1 NMatT0=    0 NMatD0=    1 NMtDS0=    0 NMtDT0=    0
 Petite list used in FoFCou.
 Requested convergence on RMS density matrix=1.00D-08 within 128 cycles.
 Requested convergence on MAX density matrix=1.00D-06.
 Requested convergence on             energy=1.00D-06.
 No special actions if energy rises.
 Integral accuracy reduced to 1.0D-05 until final iterations.
 EnCoef did     9 forward-backward iterations
 EnCoef did   100 forward-backward iterations
 EnCoef did   100 forward-backward iterations
 EnCoef did   100 forward-backward iterations
 EnCoef did     9 forward-backward iterations
 EnCoef did     3 forward-backward iterations
 EnCoef did     4 forward-backward iterations
 Initial convergence to 1.0D-05 achieved.  Increase integral accuracy.
 SCF Done:  E(RB3LYP) =  -1390.47455949     A.U. after   33 cycles
            NFock= 33  Conv=0.99D-08     -V/T= 2.0033

 **********************************************************************

            Population analysis using the SCF density.

 **********************************************************************

 Orbital symmetries:
       Occupied  (A) (A) (A) (A) (A) (A) (A) (A) (A) (A) (A) (A)
                 (A) (A) (A) (A) (A) (A) (A) (A) (A) (A) (A) (A)
                 (A) (A) (A) (A) (A) (A) (A) (A) (A) (A) (A) (A)
                 (A) (A) (A) (A) (A) (A) (A) (A) (A) (A) (A) (A)
                 (A) (A) (A) (A) (A) (A) (A) (A) (A) (A) (A) (A)
                 (A) (A) (A) (A) (A) (A) (A)
       Virtual   (A) (A) (A) (A) (A) (A) (A) (A) (A) (A) (A) (A)
                 (A) (A) (A) (A) (A) (A) (A) (A) (A) (A) (A) (A)
                 (A) (A) (A) (A) (A) (A) (A) (A) (A) (A) (A) (A)
                 (A) (A) (A) (A) (A) (A) (A) (A) (A) (A) (A) (A)
                 (A) (A) (A) (A) (A) (A) (A) (A) (A) (A) (A) (A)
                 (A) (A) (A) (A) (A) (A) (A) (A) (A) (A) (A) (A)
                 (A) (A) (A) (A) (A) (A) (A) (A) (A) (A) (A) (A)
                 (A) (A) (A) (A) (A) (A) (A) (A) (A) (A) (A) (A)
                 (A) (A) (A) (A) (A) (A) (A) (A) (A) (A) (A) (A)
                 (A) (A) (A) (A) (A) (A) (A) (A) (A) (A) (A) (A)
                 (A) (A) (A) (A) (A) (A) (A) (A) (A) (A) (A) (A)
                 (A) (A) (A) (A) (A) (A) (A) (A) (A) (A) (A) (A)
                 (A) (A) (A) (A) (A) (A) (A) (A) (A) (A) (A) (A)
                 (A) (A) (A) (A) (A) (A) (A) (A) (A) (A) (A) (A)
                 (A) (A) (A) (A) (A) (A) (A) (A) (A) (A) (A) (A)
                 (A) (A) (A) (A) (A) (A) (A) (A) (A) (A) (A) (A)
                 (A) (A) (A) (A) (A) (A) (A) (A) (A) (A) (A) (A)
                 (A) (A) (A) (A) (A) (A) (A) (A) (A) (A) (A) (A)
                 (A) (A) (A) (A) (A) (A) (A) (A) (A) (A) (A) (A)
                 (A) (A) (A) (A) (A) (A) (A) (A) (A) (A) (A) (A)
                 (A) (A) (A) (A) (A) (A) (A) (A) (A) (A) (A) (A)
                 (A) (A) (A) (A) (A) (A) (A) (A) (A) (A) (A) (A)
                 (A) (A) (A) (A) (A) (A) (A) (A) (A) (A) (A) (A)
                 (A) (A) (A) (A) (A) (A) (A) (A) (A) (A) (A) (A)
                 (A) (A) (A) (A) (A) (A) (A) (A) (A) (A) (A) (A)
                 (A) (A) (A) (A) (A) (A) (A) (A) (A) (A) (A) (A)
                 (A) (A) (A) (A) (A) (A) (A) (A) (A) (A) (A) (A)
                 (A) (A) (A) (A) (A) (A) (A) (A) (A) (A) (A) (A)
                 (A) (A) (A) (A) (A) (A) (A) (A) (A) (A) (A) (A)
                 (A) (A) (A) (A) (A) (A) (A) (A) (A) (A) (A) (A)
                 (A) (A) (A) (A) (A) (A) (A) (A) (A) (A) (A) (A)
                 (A) (A) (A) (A) (A) (A) (A) (A) (A) (A) (A) (A)
                 (A) (A) (A) (A) (A) (A) (A) (A) (A) (A) (A) (A)
                 (A) (A) (A) (A) (A) (A) (A) (A) (A) (A) (A) (A)
                 (A) (A) (A) (A) (A) (A) (A) (A) (A) (A) (A) (A)
                 (A) (A) (A) (A) (A) (A) (A) (A) (A) (A) (A) (A)
                 (A) (A) (A) (A) (A) (A) (A) (A) (A) (A) (A) (A)
                 (A) (A) (A) (A) (A) (A) (A) (A) (A) (A) (A) (A)
                 (A) (A) (A) (A) (A) (A) (A) (A)
 The electronic state is 1-A.
 Alpha  occ. eigenvalues --  -88.88299 -88.84044 -19.22502 -14.35382 -10.30815
 Alpha  occ. eigenvalues --  -10.27995 -10.26765 -10.26327 -10.26200 -10.24918
 Alpha  occ. eigenvalues --  -10.23243 -10.22923 -10.22757 -10.22243 -10.22235
 Alpha  occ. eigenvalues --  -10.21035  -7.94367  -7.90577  -5.90837  -5.90463
 Alpha  occ. eigenvalues --   -5.89948  -5.87070  -5.86556  -5.86121  -1.14454
 Alpha  occ. eigenvalues --   -0.93347  -0.91894  -0.89246  -0.80241  -0.77143
 Alpha  occ. eigenvalues --   -0.76268  -0.71396  -0.68149  -0.66242  -0.63051
 Alpha  occ. eigenvalues --   -0.59743  -0.58787  -0.57293  -0.55710  -0.52429
 Alpha  occ. eigenvalues --   -0.51264  -0.48904  -0.48422  -0.48148  -0.45951
 Alpha  occ. eigenvalues --   -0.45158  -0.44118  -0.42909  -0.41910  -0.39170
 Alpha  occ. eigenvalues --   -0.38280  -0.38075  -0.35320  -0.33721  -0.32235
 Alpha  occ. eigenvalues --   -0.29869  -0.29233  -0.28962  -0.27992  -0.25568
 Alpha  occ. eigenvalues --   -0.24239  -0.23200  -0.21753  -0.21275  -0.19462
 Alpha  occ. eigenvalues --   -0.17089  -0.15808
 Alpha virt. eigenvalues --   -0.11838  -0.11045  -0.09586  -0.08787  -0.08501
 Alpha virt. eigenvalues --   -0.06005  -0.05573  -0.05076  -0.04001  -0.02952
 Alpha virt. eigenvalues --   -0.00639   0.00330   0.00731   0.00841   0.03032
 Alpha virt. eigenvalues --    0.03232   0.04798   0.07105   0.08733   0.10786
 Alpha virt. eigenvalues --    0.12717   0.13793   0.14308   0.14350   0.16935
 Alpha virt. eigenvalues --    0.18339   0.19680   0.21558   0.23523   0.25478
 Alpha virt. eigenvalues --    0.27234   0.29500   0.30529   0.31036   0.31308
 Alpha virt. eigenvalues --    0.33448   0.35235   0.35754   0.37083   0.37402
 Alpha virt. eigenvalues --    0.37923   0.38833   0.38876   0.39560   0.40052
 Alpha virt. eigenvalues --    0.41021   0.41201   0.42229   0.43233   0.44431
 Alpha virt. eigenvalues --    0.44870   0.46226   0.47633   0.48938   0.49020
 Alpha virt. eigenvalues --    0.50150   0.51272   0.51501   0.51714   0.52353
 Alpha virt. eigenvalues --    0.53309   0.53963   0.54240   0.55753   0.56417
 Alpha virt. eigenvalues --    0.58257   0.58764   0.59130   0.59684   0.60253
 Alpha virt. eigenvalues --    0.60890   0.61292   0.62840   0.63050   0.63705
 Alpha virt. eigenvalues --    0.64135   0.64432   0.65117   0.65832   0.66096
 Alpha virt. eigenvalues --    0.67439   0.68055   0.68300   0.69922   0.70699
 Alpha virt. eigenvalues --    0.71225   0.72128   0.72592   0.73322   0.73840
 Alpha virt. eigenvalues --    0.74608   0.76007   0.76648   0.77237   0.77799
 Alpha virt. eigenvalues --    0.77883   0.78707   0.79568   0.79942   0.80247
 Alpha virt. eigenvalues --    0.80518   0.81298   0.82310   0.83076   0.84422
 Alpha virt. eigenvalues --    0.86172   0.86473   0.87356   0.87893   0.88852
 Alpha virt. eigenvalues --    0.89391   0.91085   0.92391   0.93124   0.94043
 Alpha virt. eigenvalues --    0.94252   0.94969   0.96311   0.96511   0.98064
 Alpha virt. eigenvalues --    0.99506   1.00077   1.00976   1.03762   1.05048
 Alpha virt. eigenvalues --    1.05238   1.06681   1.07185   1.08150   1.09461
 Alpha virt. eigenvalues --    1.10060   1.10525   1.12114   1.14184   1.15767
 Alpha virt. eigenvalues --    1.16949   1.19015   1.20042   1.20822   1.22838
 Alpha virt. eigenvalues --    1.23112   1.26155   1.26449   1.28030   1.29197
 Alpha virt. eigenvalues --    1.30124   1.32103   1.32549   1.34159   1.34577
 Alpha virt. eigenvalues --    1.35609   1.36769   1.37944   1.39339   1.40540
 Alpha virt. eigenvalues --    1.41470   1.42179   1.43531   1.45077   1.46607
 Alpha virt. eigenvalues --    1.47544   1.48217   1.50455   1.51119   1.51945
 Alpha virt. eigenvalues --    1.52686   1.53178   1.56048   1.56496   1.58429
 Alpha virt. eigenvalues --    1.59352   1.61546   1.62450   1.63615   1.65390
 Alpha virt. eigenvalues --    1.66199   1.67016   1.67668   1.67741   1.69793
 Alpha virt. eigenvalues --    1.72123   1.72660   1.73256   1.74813   1.75521
 Alpha virt. eigenvalues --    1.77379   1.77681   1.79532   1.80093   1.81031
 Alpha virt. eigenvalues --    1.82795   1.83384   1.84903   1.85359   1.86763
 Alpha virt. eigenvalues --    1.87084   1.88523   1.90884   1.93076   1.93523
 Alpha virt. eigenvalues --    1.94420   1.95317   1.97431   1.99052   2.00861
 Alpha virt. eigenvalues --    2.03941   2.04768   2.05607   2.07665   2.08615
 Alpha virt. eigenvalues --    2.08793   2.10713   2.11929   2.12794   2.13686
 Alpha virt. eigenvalues --    2.15272   2.16986   2.17998   2.19881   2.20239
 Alpha virt. eigenvalues --    2.21632   2.21826   2.23835   2.24450   2.25280
 Alpha virt. eigenvalues --    2.26249   2.27098   2.27615   2.32073   2.33928
 Alpha virt. eigenvalues --    2.36511   2.37506   2.38517   2.39900   2.41127
 Alpha virt. eigenvalues --    2.42166   2.43780   2.45209   2.46666   2.48074
 Alpha virt. eigenvalues --    2.50085   2.50444   2.52013   2.54095   2.55289
 Alpha virt. eigenvalues --    2.56355   2.57596   2.58319   2.59051   2.61631
 Alpha virt. eigenvalues --    2.63205   2.66023   2.67223   2.68044   2.70462
 Alpha virt. eigenvalues --    2.70944   2.73174   2.75048   2.75447   2.76324
 Alpha virt. eigenvalues --    2.77793   2.78719   2.80279   2.80332   2.82260
 Alpha virt. eigenvalues --    2.83185   2.83798   2.84642   2.84663   2.85543
 Alpha virt. eigenvalues --    2.86232   2.87937   2.88517   2.89304   2.90805
 Alpha virt. eigenvalues --    2.91674   2.94090   2.96207   2.97493   2.97849
 Alpha virt. eigenvalues --    2.98909   3.00494   3.03377   3.04647   3.05115
 Alpha virt. eigenvalues --    3.06102   3.07388   3.08283   3.09377   3.12041
 Alpha virt. eigenvalues --    3.13469   3.14474   3.15081   3.15528   3.18446
 Alpha virt. eigenvalues --    3.19849   3.20964   3.22019   3.23080   3.23861
 Alpha virt. eigenvalues --    3.25502   3.27568   3.29233   3.29594   3.31311
 Alpha virt. eigenvalues --    3.33087   3.33855   3.35432   3.36083   3.37826
 Alpha virt. eigenvalues --    3.38311   3.40892   3.41209   3.42913   3.43401
 Alpha virt. eigenvalues --    3.43869   3.47105   3.48290   3.49506   3.50847
 Alpha virt. eigenvalues --    3.54167   3.54729   3.55937   3.58739   3.59277
 Alpha virt. eigenvalues --    3.61991   3.62974   3.63287   3.64621   3.65763
 Alpha virt. eigenvalues --    3.67883   3.69641   3.71463   3.72828   3.74811
 Alpha virt. eigenvalues --    3.77375   3.79991   3.81293   3.84033   3.85552
 Alpha virt. eigenvalues --    3.87787   3.88534   3.89670   3.92532   3.93297
 Alpha virt. eigenvalues --    3.95448   3.97114   3.98999   3.99583   4.02067
 Alpha virt. eigenvalues --    4.02931   4.07152   4.08734   4.09625   4.12830
 Alpha virt. eigenvalues --    4.13210   4.15984   4.16119   4.17027   4.19040
 Alpha virt. eigenvalues --    4.22856   4.27456   4.27965   4.28216   4.29132
 Alpha virt. eigenvalues --    4.30862   4.31968   4.33128   4.34647   4.36098
 Alpha virt. eigenvalues --    4.37070   4.38643   4.41170   4.41485   4.43285
 Alpha virt. eigenvalues --    4.44264   4.46268   4.47932   4.48392   4.48749
 Alpha virt. eigenvalues --    4.50466   4.51130   4.51711   4.52703   4.53381
 Alpha virt. eigenvalues --    4.54656   4.55255   4.57749   4.57950   4.58946
 Alpha virt. eigenvalues --    4.59704   4.61005   4.63457   4.65551   4.66670
 Alpha virt. eigenvalues --    4.67684   4.69710   4.71648   4.73461   4.74436
 Alpha virt. eigenvalues --    4.76370   4.77232   4.77734   4.80157   4.81242
 Alpha virt. eigenvalues --    4.84472   4.85376   4.88102   4.88826   4.90206
 Alpha virt. eigenvalues --    4.94907   4.95428   4.97385   4.99274   5.01289
 Alpha virt. eigenvalues --    5.02230   5.05395   5.07001   5.08477   5.12518
 Alpha virt. eigenvalues --    5.14639   5.15899   5.17857   5.19824   5.25177
 Alpha virt. eigenvalues --    5.25829   5.32856   5.35061   5.40252   5.44784
 Alpha virt. eigenvalues --    5.47977   5.51235   5.54544   5.57966   5.61235
 Alpha virt. eigenvalues --    5.62588   5.67571   5.73080   5.73872   5.83609
 Alpha virt. eigenvalues --    5.94505   5.97400   6.03994   6.06357   6.18370
 Alpha virt. eigenvalues --    6.33200   6.64024   6.71521   6.73453   7.19820
 Alpha virt. eigenvalues --   10.41436  10.46294  10.66606  10.72616  10.85802
 Alpha virt. eigenvalues --   11.03685  11.31083  11.36975  11.55080  11.88664
 Alpha virt. eigenvalues --   11.98978  12.15368  12.33380  13.78314
          Condensed to atoms (all electrons):
               1          2          3          4          5          6
     1  N    6.813066   0.451096  -0.001897   0.000000  -0.000075  -0.000001
     2  C    0.451096   5.588210  -0.090941   0.000024   0.009922   0.000016
     3  S   -0.001897  -0.090941  15.913364  -0.011574   0.170201  -0.072699
     4  C    0.000000   0.000024  -0.011574   5.792755   0.127989   0.292327
     5  C   -0.000075   0.009922   0.170201   0.127989   5.232815   0.311613
     6  C   -0.000001   0.000016  -0.072699   0.292327   0.311613   4.925311
     7  C   -0.000000  -0.000002   0.006577  -0.028609  -0.023579   0.386198
     8  C    0.000000   0.000000  -0.000128  -0.016697   0.002859  -0.015259
     9  C   -0.000000  -0.000000   0.000020  -0.001432   0.000160  -0.002472
    10  C    0.000000   0.000000  -0.000000   0.000179  -0.000049   0.000566
    11  C    0.000000   0.000000   0.000000  -0.000034  -0.000001   0.000025
    12  O    0.000000   0.000000  -0.000000   0.000000   0.000000   0.000000
    13  C    0.000000  -0.000000  -0.000000  -0.000000   0.000000  -0.000000
    14  C    0.000000  -0.000000   0.000000  -0.000000  -0.000000   0.000000
    15  C   -0.000000   0.000000  -0.000000   0.000058   0.000000  -0.000007
    16  S    0.000000  -0.000000   0.000013   0.015175   0.000280  -0.006008
    17  H    0.189616  -0.003271  -0.000478   0.000000   0.000001  -0.000000
    18  H   -0.000230  -0.012044   0.221922   0.000463  -0.024046   0.000462
    19  H    0.000015  -0.001354  -0.040449  -0.002659   0.331655  -0.027532
    20  H    0.000000  -0.000327   0.036595  -0.082541  -0.034724   0.260424
    21  H   -0.000000   0.000001  -0.000601  -0.004576  -0.000984  -0.038667
    22  H    0.000000  -0.000000  -0.000028   0.000434   0.000274  -0.000963
    23  H   -0.000000   0.000000   0.000004   0.000388   0.000039  -0.000459
    24  H    0.000000  -0.000000  -0.000000   0.000039  -0.000000  -0.000013
    25  H    0.000000   0.000000   0.000000  -0.000000  -0.000000   0.000000
    26  H    0.000000   0.000000   0.000000  -0.000000  -0.000000   0.000000
    27  H    0.000000   0.000000   0.000000  -0.000000  -0.000000   0.000000
    28  H    0.000000   0.000000   0.000000  -0.000000   0.000000  -0.000000
    29  H    0.000000   0.000000   0.000000  -0.000000  -0.000000   0.000000
    30  H    0.000000   0.000000   0.000000  -0.000000  -0.000000   0.000000
    31  H    0.000000   0.000000  -0.000000   0.000000   0.000000  -0.000000
               7          8          9         10         11         12
     1  N   -0.000000   0.000000  -0.000000   0.000000   0.000000   0.000000
     2  C   -0.000002   0.000000  -0.000000   0.000000   0.000000   0.000000
     3  S    0.006577  -0.000128   0.000020  -0.000000   0.000000  -0.000000
     4  C   -0.028609  -0.016697  -0.001432   0.000179  -0.000034   0.000000
     5  C   -0.023579   0.002859   0.000160  -0.000049  -0.000001   0.000000
     6  C    0.386198  -0.015259  -0.002472   0.000566   0.000025   0.000000
     7  C    5.125618   0.454765   0.000640  -0.008736  -0.000154  -0.000004
     8  C    0.454765   5.184687   0.475413  -0.034941  -0.015565   0.000689
     9  C    0.000640   0.475413   4.967628   0.419010  -0.113823   0.007821
    10  C   -0.008736  -0.034941   0.419010   5.015381   0.476617  -0.039485
    11  C   -0.000154  -0.015565  -0.113823   0.476617   5.139663   0.195712
    12  O   -0.000004   0.000689   0.007821  -0.039485   0.195712   8.024510
    13  C    0.000005  -0.000212  -0.003570   0.003114  -0.118789   0.156281
    14  C   -0.000000   0.000005  -0.000170  -0.007530   0.014597  -0.032338
    15  C    0.000087   0.001871   0.011594  -0.021512   0.030172  -0.060040
    16  S   -0.116793  -0.033973  -0.088499   0.018706   0.022008   0.003031
    17  H    0.000000  -0.000000  -0.000000   0.000000   0.000000   0.000000
    18  H    0.000017   0.000000   0.000000  -0.000000  -0.000000  -0.000000
    19  H   -0.007768   0.000544  -0.000014   0.000001   0.000000  -0.000000
    20  H    0.010628   0.001605   0.000418  -0.000062  -0.000000  -0.000000
    21  H    0.374239  -0.038583  -0.000843  -0.000167  -0.000046   0.000000
    22  H   -0.006900   0.305951  -0.027085  -0.015092   0.005955   0.000303
    23  H    0.004018  -0.062676   0.378539  -0.046593   0.003520   0.000284
    24  H    0.000102  -0.010255  -0.021098   0.215551   0.025317  -0.015102
    25  H    0.000049   0.000586  -0.004411  -0.037334   0.389136  -0.036046
    26  H    0.000000  -0.000001   0.000056  -0.000582   0.003981  -0.017447
    27  H   -0.000000   0.000001  -0.000016   0.000936  -0.008089  -0.003124
    28  H   -0.000000   0.000000   0.000002   0.000058  -0.000164   0.001308
    29  H   -0.000000  -0.000000  -0.000005   0.000053   0.000314  -0.003214
    30  H    0.000000  -0.000019  -0.000701  -0.005868  -0.000317  -0.012302
    31  H    0.000002   0.000008   0.001261   0.013918  -0.006002   0.013998
              13         14         15         16         17         18
     1  N    0.000000   0.000000  -0.000000   0.000000   0.189616  -0.000230
     2  C   -0.000000  -0.000000   0.000000  -0.000000  -0.003271  -0.012044
     3  S   -0.000000   0.000000  -0.000000   0.000013  -0.000478   0.221922
     4  C   -0.000000  -0.000000   0.000058   0.015175   0.000000   0.000463
     5  C    0.000000  -0.000000   0.000000   0.000280   0.000001  -0.024046
     6  C   -0.000000   0.000000  -0.000007  -0.006008  -0.000000   0.000462
     7  C    0.000005  -0.000000   0.000087  -0.116793   0.000000   0.000017
     8  C   -0.000212   0.000005   0.001871  -0.033973  -0.000000   0.000000
     9  C   -0.003570  -0.000170   0.011594  -0.088499  -0.000000   0.000000
    10  C    0.003114  -0.007530  -0.021512   0.018706   0.000000  -0.000000
    11  C   -0.118789   0.014597   0.030172   0.022008   0.000000  -0.000000
    12  O    0.156281  -0.032338  -0.060040   0.003031   0.000000  -0.000000
    13  C    5.533728   0.144649  -0.013292  -0.000363   0.000000   0.000000
    14  C    0.144649   5.855472  -0.003823  -0.000014   0.000000   0.000000
    15  C   -0.013292  -0.003823   6.279212   0.002223  -0.000000   0.000000
    16  S   -0.000363  -0.000014   0.002223  16.556217  -0.000000   0.000001
    17  H    0.000000   0.000000  -0.000000  -0.000000   0.582057  -0.000102
    18  H    0.000000   0.000000   0.000000   0.000001  -0.000102   0.760761
    19  H   -0.000000   0.000000  -0.000000  -0.000016  -0.000000  -0.013166
    20  H    0.000000  -0.000000   0.000001  -0.000382  -0.000000   0.000494
    21  H   -0.000000   0.000000   0.000004   0.003415   0.000000   0.000006
    22  H    0.000080  -0.000043  -0.004546  -0.029045  -0.000000  -0.000000
    23  H    0.000459  -0.000014  -0.000099   0.000987  -0.000000  -0.000000
    24  H    0.003017   0.004024   0.072500  -0.003776  -0.000000  -0.000000
    25  H   -0.000268  -0.001668  -0.011130   0.002265   0.000000  -0.000000
    26  H    0.357763   0.003664   0.003503  -0.000003   0.000000   0.000000
    27  H    0.340529  -0.030804  -0.008419  -0.000017   0.000000  -0.000000
    28  H   -0.001751   0.306053  -0.005061  -0.000020   0.000000   0.000000
    29  H   -0.002635   0.161984   0.003588   0.000005   0.000000  -0.000000
    30  H    0.035371  -0.003387   0.153651   0.001673   0.000000  -0.000000
    31  H   -0.102874   0.189218  -0.102054   0.000326   0.000000  -0.000000
              19         20         21         22         23         24
     1  N    0.000015   0.000000  -0.000000   0.000000  -0.000000   0.000000
     2  C   -0.001354  -0.000327   0.000001  -0.000000   0.000000  -0.000000
     3  S   -0.040449   0.036595  -0.000601  -0.000028   0.000004  -0.000000
     4  C   -0.002659  -0.082541  -0.004576   0.000434   0.000388   0.000039
     5  C    0.331655  -0.034724  -0.000984   0.000274   0.000039  -0.000000
     6  C   -0.027532   0.260424  -0.038667  -0.000963  -0.000459  -0.000013
     7  C   -0.007768   0.010628   0.374239  -0.006900   0.004018   0.000102
     8  C    0.000544   0.001605  -0.038583   0.305951  -0.062676  -0.010255
     9  C   -0.000014   0.000418  -0.000843  -0.027085   0.378539  -0.021098
    10  C    0.000001  -0.000062  -0.000167  -0.015092  -0.046593   0.215551
    11  C    0.000000  -0.000000  -0.000046   0.005955   0.003520   0.025317
    12  O   -0.000000  -0.000000   0.000000   0.000303   0.000284  -0.015102
    13  C   -0.000000   0.000000  -0.000000   0.000080   0.000459   0.003017
    14  C    0.000000  -0.000000   0.000000  -0.000043  -0.000014   0.004024
    15  C   -0.000000   0.000001   0.000004  -0.004546  -0.000099   0.072500
    16  S   -0.000016  -0.000382   0.003415  -0.029045   0.000987  -0.003776
    17  H   -0.000000  -0.000000   0.000000  -0.000000  -0.000000  -0.000000
    18  H   -0.013166   0.000494   0.000006  -0.000000  -0.000000  -0.000000
    19  H    0.607257   0.001450   0.002919  -0.000004  -0.000022  -0.000000
    20  H    0.001450   0.635442   0.001806   0.000574   0.000010  -0.000003
    21  H    0.002919   0.001806   0.532711   0.001045   0.004328  -0.000015
    22  H   -0.000004   0.000574   0.001045   0.593265   0.007128  -0.000307
    23  H   -0.000022   0.000010   0.004328   0.007128   0.565181   0.000452
    24  H   -0.000000  -0.000003  -0.000015  -0.000307   0.000452   0.440020
    25  H    0.000000  -0.000000  -0.000007   0.000007   0.000731   0.002017
    26  H    0.000000  -0.000000  -0.000000  -0.000001   0.000003  -0.000122
    27  H    0.000000  -0.000000   0.000000  -0.000001  -0.000023   0.000018
    28  H   -0.000000   0.000000   0.000000  -0.000000  -0.000000   0.000056
    29  H    0.000000  -0.000000  -0.000000   0.000000   0.000000  -0.000097
    30  H    0.000000  -0.000000  -0.000000   0.000034   0.000037  -0.001608
    31  H   -0.000000   0.000000   0.000000   0.000166   0.000043  -0.006473
              25         26         27         28         29         30
     1  N    0.000000   0.000000   0.000000   0.000000   0.000000   0.000000
     2  C    0.000000   0.000000   0.000000   0.000000   0.000000   0.000000
     3  S    0.000000   0.000000   0.000000   0.000000   0.000000   0.000000
     4  C   -0.000000  -0.000000  -0.000000  -0.000000  -0.000000  -0.000000
     5  C   -0.000000  -0.000000  -0.000000   0.000000  -0.000000  -0.000000
     6  C    0.000000   0.000000   0.000000  -0.000000   0.000000   0.000000
     7  C    0.000049   0.000000  -0.000000  -0.000000  -0.000000   0.000000
     8  C    0.000586  -0.000001   0.000001   0.000000  -0.000000  -0.000019
     9  C   -0.004411   0.000056  -0.000016   0.000002  -0.000005  -0.000701
    10  C   -0.037334  -0.000582   0.000936   0.000058   0.000053  -0.005868
    11  C    0.389136   0.003981  -0.008089  -0.000164   0.000314  -0.000317
    12  O   -0.036046  -0.017447  -0.003124   0.001308  -0.003214  -0.012302
    13  C   -0.000268   0.357763   0.340529  -0.001751  -0.002635   0.035371
    14  C   -0.001668   0.003664  -0.030804   0.306053   0.161984  -0.003387
    15  C   -0.011130   0.003503  -0.008419  -0.005061   0.003588   0.153651
    16  S    0.002265  -0.000003  -0.000017  -0.000020   0.000005   0.001673
    17  H    0.000000   0.000000   0.000000   0.000000   0.000000   0.000000
    18  H   -0.000000   0.000000  -0.000000   0.000000  -0.000000  -0.000000
    19  H    0.000000   0.000000   0.000000  -0.000000   0.000000   0.000000
    20  H   -0.000000  -0.000000  -0.000000   0.000000  -0.000000  -0.000000
    21  H   -0.000007  -0.000000   0.000000   0.000000  -0.000000  -0.000000
    22  H    0.000007  -0.000001  -0.000001  -0.000000   0.000000   0.000034
    23  H    0.000731   0.000003  -0.000023  -0.000000   0.000000   0.000037
    24  H    0.002017  -0.000122   0.000018   0.000056  -0.000097  -0.001608
    25  H    0.521952   0.002340  -0.004433  -0.000038   0.000070   0.003161
    26  H    0.002340   0.547550  -0.054555  -0.000958   0.004242   0.004587
    27  H   -0.004433  -0.054555   0.584812   0.003291  -0.001670  -0.028027
    28  H   -0.000038  -0.000958   0.003291   0.642011  -0.085402  -0.020403
    29  H    0.000070   0.004242  -0.001670  -0.085402   0.845089   0.017287
    30  H    0.003161   0.004587  -0.028027  -0.020403   0.017287   0.756156
    31  H    0.002054  -0.007816   0.019663  -0.018719   0.011068  -0.075212
              31
     1  N    0.000000
     2  C    0.000000
     3  S   -0.000000
     4  C    0.000000
     5  C    0.000000
     6  C   -0.000000
     7  C    0.000002
     8  C    0.000008
     9  C    0.001261
    10  C    0.013918
    11  C   -0.006002
    12  O    0.013998
    13  C   -0.102874
    14  C    0.189218
    15  C   -0.102054
    16  S    0.000326
    17  H    0.000000
    18  H   -0.000000
    19  H   -0.000000
    20  H    0.000000
    21  H    0.000000
    22  H    0.000166
    23  H    0.000043
    24  H   -0.006473
    25  H    0.002054
    26  H   -0.007816
    27  H    0.019663
    28  H   -0.018719
    29  H    0.011068
    30  H   -0.075212
    31  H    0.501488
 Mulliken charges:
               1
     1  N   -0.451591
     2  C    0.058669
     3  S   -0.129901
     4  C   -0.081707
     5  C   -0.104350
     6  C   -0.012861
     7  C   -0.170399
     8  C   -0.200676
     9  C    0.001576
    10  C    0.053863
    11  C   -0.044032
    12  O   -0.184836
    13  C   -0.331241
    14  C   -0.599877
    15  C   -0.328480
    16  S   -0.347414
    17  H    0.232177
    18  H    0.065462
    19  H    0.149143
    20  H    0.168592
    21  H    0.164015
    22  H    0.168799
    23  H    0.143738
    24  H    0.295756
    25  H    0.170967
    26  H    0.153796
    27  H    0.189927
    28  H    0.179739
    29  H    0.049323
    30  H    0.175888
    31  H    0.565936
 Sum of Mulliken charges =  -0.00000
 Mulliken charges with hydrogens summed into heavy atoms:
               1
     1  N   -0.219413
     2  C    0.058669
     3  S   -0.064439
     4  C   -0.081707
     5  C    0.044793
     6  C    0.155732
     7  C   -0.006384
     8  C   -0.031877
     9  C    0.145314
    10  C    0.349619
    11  C    0.126935
    12  O   -0.184836
    13  C    0.012482
    14  C    0.371009
    15  C   -0.328480
    16  S   -0.347414
 Electronic spatial extent (au):  <R**2>=           8671.1004
 Charge=             -0.0000 electrons
 Dipole moment (field-independent basis, Debye):
    X=            -10.6913    Y=             -5.0134    Z=             -1.5771  Tot=             11.9132
 Quadrupole moment (field-independent basis, Debye-Ang):
   XX=            -77.3826   YY=           -114.1925   ZZ=           -117.3940
   XY=              2.4107   XZ=              1.6747   YZ=              8.0216
 Traceless Quadrupole moment (field-independent basis, Debye-Ang):
   XX=             25.6071   YY=            -11.2028   ZZ=            -14.4043
   XY=              2.4107   XZ=              1.6747   YZ=              8.0216
 Octapole moment (field-independent basis, Debye-Ang**2):
  XXX=           -365.4197  YYY=            -28.3760  ZZZ=              0.0928  XYY=             -3.0331
  XXY=             -7.2408  XXZ=            -91.1746  XZZ=            -16.0670  YZZ=             -8.5036
  YYZ=             -4.2716  XYZ=             -0.2784
 Hexadecapole moment (field-independent basis, Debye-Ang**3):
 XXXX=          -7435.3110 YYYY=           -634.2976 ZZZZ=           -292.1366 XXXY=             28.1403
 XXXZ=           -164.2698 YYYX=             53.5953 YYYZ=             14.7748 ZZZX=              3.0644
 ZZZY=             12.0992 XXYY=          -1945.3653 XXZZ=          -2068.7013 YYZZ=           -150.3162
 XXYZ=             31.7760 YYXZ=             -2.4935 ZZXY=             20.4202
 N-N= 1.214197040666D+03 E-N=-5.703437240583D+03  KE= 1.385911191334D+03
 PrsmSu:  requested number of processors reduced to:  13 ShMem   1 Linda.
 Calling FoFJK, ICntrl=      2127 FMM=F ISym2X=0 I1Cent= 0 IOpClX= 0 NMat=1 NMatS=1 NMatT=0.
 ***** Axes restored to original set *****
 -------------------------------------------------------------------
 Center     Atomic                   Forces (Hartrees/Bohr)
 Number     Number              X              Y              Z
 -------------------------------------------------------------------
      1        7           0.107450792    0.043701899    0.031687727
      2        6          -0.227355899   -0.112457389    0.002476739
      3       16          -0.086303421   -0.075227674    0.014227045
      4        6           0.020214519   -0.017301461    0.060989902
      5        6           0.001902982   -0.066416650    0.010124160
      6        6          -0.030020631    0.028574200   -0.008894671
      7        6           0.028630109    0.049175507   -0.081793222
      8        6          -0.103384136   -0.053100567   -0.011916201
      9        6          -0.058275939    0.009191550    0.024828424
     10        6          -0.118955289   -0.062933155    0.046483811
     11        6           0.042144685    0.091234841   -0.006746780
     12        8           0.209609803    0.038013971   -0.059164156
     13        6           0.030279807    0.100910293    0.025676063
     14        6           0.496589638    0.823546605   -0.181643618
     15        6          -0.016099593   -0.003555380    0.051036372
     16       16          -0.008782131    0.034559064    0.041244843
     17        1           0.075750614    0.052807853   -0.035929004
     18        1           0.007790252    0.058957409    0.008767400
     19        1           0.020994478    0.080048533    0.009097081
     20        1           0.043956717   -0.041803105   -0.035622505
     21        1           0.006756717    0.030489823   -0.024837702
     22        1          -0.001985014   -0.089427358    0.003864794
     23        1           0.030276362   -0.016393787    0.008953210
     24        1           0.050824872   -0.036174222    0.012389285
     25        1           0.019178575   -0.036240671    0.023995967
     26        1           0.032097154   -0.004435427   -0.049098141
     27        1          -0.044934513   -0.051834305   -0.051984265
     28        1          -0.059176472   -0.072928989   -0.000368097
     29        1          -0.049783174   -0.039574539    0.028174777
     30        1          -0.023889659   -0.003845449    0.098155674
     31        1          -0.395502206   -0.657561423    0.045825089
 -------------------------------------------------------------------
 Cartesian Forces:  Max     0.823546605 RMS     0.141170443

 GradGradGradGradGradGradGradGradGradGradGradGradGradGradGradGradGradGrad
 Berny optimization.
 FormGI is forming the generalized inverse of G from B-inverse, IUseBI=4.
 Internal  Forces:  Max     0.505411759 RMS     0.065328404
 Search for a local minimum.
 Step number   1 out of a maximum of  186
 All quantities printed in internal units (Hartrees-Bohrs-Radians)
 Mixed Optimization -- RFO/linear search
 Second derivative matrix not updated -- first step.
 ITU=  0
     Eigenvalues ---    0.00230   0.00230   0.00413   0.00843   0.01220
     Eigenvalues ---    0.01460   0.01474   0.01593   0.01754   0.01823
     Eigenvalues ---    0.01990   0.02143   0.02738   0.02838   0.03146
     Eigenvalues ---    0.03247   0.03502   0.03590   0.03744   0.03894
     Eigenvalues ---    0.03943   0.04146   0.04365   0.04680   0.04768
     Eigenvalues ---    0.04981   0.05477   0.05825   0.06164   0.06674
     Eigenvalues ---    0.06713   0.07344   0.07711   0.08183   0.08564
     Eigenvalues ---    0.08880   0.09401   0.09934   0.10132   0.10571
     Eigenvalues ---    0.11530   0.11636   0.11902   0.12000   0.12374
     Eigenvalues ---    0.12671   0.12676   0.13294   0.13896   0.14006
     Eigenvalues ---    0.14940   0.14970   0.15198   0.15736   0.15850
     Eigenvalues ---    0.16000   0.16000   0.16000   0.16110   0.16235
     Eigenvalues ---    0.17033   0.17425   0.18204   0.19058   0.19286
     Eigenvalues ---    0.20536   0.20669   0.20945   0.21596   0.22010
     Eigenvalues ---    0.22608   0.25000   0.30271   0.32728   0.36261
     Eigenvalues ---    0.37900   0.39930   0.40027   0.40589   0.43195
     Eigenvalues ---    0.44500   0.47362   0.50150   0.51970   0.58400
     Eigenvalues ---    0.72997   1.10908
 RFO step:  Lambda=-6.37778258D-01 EMin= 2.30000000D-03
 Linear search not attempted -- first point.
 Maximum step size (   0.300) exceeded in Quadratic search.
    -- Step size scaled by   0.426
 Iteration  1 RMS(Cart)=  0.08649404 RMS(Int)=  0.00127905
 Iteration  2 RMS(Cart)=  0.00149531 RMS(Int)=  0.00014557
 Iteration  3 RMS(Cart)=  0.00000245 RMS(Int)=  0.00014556
 Iteration  4 RMS(Cart)=  0.00000000 RMS(Int)=  0.00014556
 Variable       Old X    -DE/DX   Delta X   Delta X   Delta X     New X
                                 (Linear)    (Quad)   (Total)
    R1        2.82832  -0.20711   0.00000  -0.09147  -0.09147   2.73685
    R2        2.61613  -0.09878   0.00000  -0.05348  -0.05348   2.56265
    R3        3.61732   0.03279   0.00000   0.02033   0.02033   3.63764
    R4        3.06325   0.12578   0.00000   0.04823   0.04823   3.11148
    R5        3.52882  -0.03996   0.00000  -0.02395  -0.02395   3.50487
    R6        3.29843  -0.01125   0.00000  -0.00924  -0.00918   3.28925
    R7        2.65457   0.04685   0.00000   0.02005   0.01999   2.67456
    R8        2.69632   0.06854   0.00000   0.02906   0.02905   2.72537
    R9        2.43139  -0.07306   0.00000  -0.03749  -0.03749   2.39390
   R10        2.71649   0.06626   0.00000   0.02723   0.02723   2.74372
   R11        2.78772  -0.05885   0.00000  -0.03310  -0.03310   2.75462
   R12        2.76976  -0.03364   0.00000  -0.01433  -0.01433   2.75542
   R13        2.14127  -0.03440   0.00000  -0.01559  -0.01559   2.12568
   R14        2.49127   0.11250   0.00000   0.04052   0.04049   2.53176
   R15        2.61231  -0.07168   0.00000  -0.03862  -0.03873   2.57359
   R16        2.57097   0.10491   0.00000   0.03960   0.03969   2.61067
   R17        1.98216   0.02921   0.00000   0.01199   0.01199   1.99416
   R18        2.36928   0.20747   0.00000   0.06494   0.06483   2.43411
   R19        2.63291   0.00021   0.00000  -0.00379  -0.00374   2.62917
   R20        2.52998   0.10703   0.00000   0.04294   0.04305   2.57303
   R21        1.94130   0.03885   0.00000   0.01548   0.01548   1.95678
   R22        3.00767   0.00999   0.00000   0.00091   0.00085   3.00852
   R23        3.26324  -0.03626   0.00000  -0.00693  -0.00706   3.25618
   R24        1.92561   0.05673   0.00000   0.02233   0.02233   1.94794
   R25        2.49165  -0.03279   0.00000  -0.02305  -0.02323   2.46841
   R26        3.04323   0.01373   0.00000   0.00696   0.00687   3.05010
   R27        2.81282  -0.08858   0.00000  -0.05006  -0.05006   2.76276
   R28        2.94600  -0.06253   0.00000  -0.03616  -0.03616   2.90984
   R29        2.24540   0.20789   0.00000   0.05651   0.05660   2.30200
   R30        1.36265   0.50541   0.00000   0.12330   0.12360   1.48626
   R31        3.09597   0.04390   0.00000   0.01830   0.01851   3.11447
   R32        3.07179   0.11925   0.00000   0.03501   0.03484   3.10663
   R33        3.09700  -0.00287   0.00000   0.01737   0.01741   3.11441
   R34        3.87712   0.03749   0.00000   0.02306   0.02324   3.90037
   R35        4.14750   0.02741   0.00000   0.01409   0.01391   4.16140
   R36        3.23871  -0.00453   0.00000   0.00038   0.00052   3.23923
    A1        2.69303  -0.02031   0.00000  -0.01085  -0.01085   2.68218
    A2        2.24024  -0.00166   0.00000  -0.00089  -0.00089   2.23935
    A3        1.90466   0.02028   0.00000   0.01084   0.01084   1.91549
    A4        1.93587   0.01716   0.00000   0.00767   0.00783   1.94369
    A5        1.87783   0.03385   0.00000   0.01802   0.01796   1.89579
    A6        1.57133   0.01701   0.00000   0.01089   0.01097   1.58230
    A7        2.76335  -0.03772   0.00000  -0.02063  -0.02094   2.74241
    A8        2.24818  -0.02147   0.00000  -0.01090  -0.01098   2.23720
    A9        1.62343   0.00067   0.00000   0.00023   0.00073   1.62417
   A10        1.29781   0.02083   0.00000   0.01250   0.01263   1.31044
   A11        1.74694   0.09060   0.00000   0.04596   0.04596   1.79290
   A12        1.84049  -0.05025   0.00000  -0.02374  -0.02361   1.81688
   A13        2.57469  -0.03347   0.00000  -0.01711  -0.01720   2.55749
   A14        2.01130   0.03850   0.00000   0.01916   0.01917   2.03046
   A15        1.92914   0.00221   0.00000   0.00198   0.00198   1.93112
   A16        2.32742  -0.03971   0.00000  -0.02054  -0.02055   2.30687
   A17        1.97632   0.04014   0.00000   0.02071   0.02091   1.99723
   A18        2.32502  -0.00138   0.00000  -0.00195  -0.00191   2.32312
   A19        1.79477  -0.03680   0.00000  -0.01652  -0.01671   1.77806
   A20        1.85354   0.06145   0.00000   0.03473   0.03467   1.88822
   A21        2.08442  -0.02213   0.00000  -0.01152  -0.01153   2.07289
   A22        2.24209  -0.03145   0.00000  -0.01722  -0.01721   2.22488
   A23        1.77879   0.13129   0.00000   0.06509   0.06516   1.84395
   A24        2.36306  -0.04150   0.00000  -0.02338  -0.02325   2.33981
   A25        2.13892  -0.09056   0.00000  -0.04203  -0.04224   2.09668
   A26        1.55286   0.11714   0.00000   0.06642   0.06641   1.61927
   A27        2.56689  -0.04531   0.00000  -0.02899  -0.02907   2.53782
   A28        2.03682  -0.05398   0.00000  -0.02855  -0.02825   2.00858
   A29        1.48609   0.07181   0.00000   0.04358   0.04363   1.52971
   A30        1.76755   0.00437   0.00000   0.00837   0.00790   1.77545
   A31        1.98098   0.00338   0.00000   0.00053   0.00075   1.98173
   A32        2.48874  -0.01491   0.00000  -0.00770  -0.00793   2.48081
   A33        1.80477   0.01373   0.00000   0.00855   0.00850   1.81327
   A34        2.10002   0.03714   0.00000   0.01245   0.01244   2.11246
   A35        1.59512   0.00139   0.00000  -0.00030  -0.00046   1.59466
   A36        1.22481   0.01816   0.00000   0.01501   0.01502   1.23983
   A37        1.66424   0.01675   0.00000  -0.00321  -0.00337   1.66087
   A38        2.59455  -0.08086   0.00000  -0.02609  -0.02596   2.56859
   A39        2.66837   0.03951   0.00000   0.01310   0.01292   2.68128
   A40        2.36339   0.05783   0.00000   0.00962   0.00962   2.37300
   A41        0.93473  -0.09800   0.00000  -0.02284  -0.02256   0.91218
   A42        2.51400   0.05923   0.00000   0.02286   0.02288   2.53688
   A43        1.93898   0.04910   0.00000   0.02119   0.02130   1.96028
   A44        0.59435   0.00246   0.00000   0.00022   0.00016   0.59451
   A45        0.89035   0.06339   0.00000   0.02881   0.02879   0.91914
   A46        1.24527   0.11986   0.00000   0.05754   0.05754   1.30281
   A47        1.44167   0.05641   0.00000   0.02849   0.02859   1.47026
   A48        1.48404   0.05883   0.00000   0.02673   0.02699   1.51103
   A49        1.33653   0.02025   0.00000   0.01253   0.01240   1.34893
   A50        1.71262   0.02497   0.00000   0.00624   0.00605   1.71868
   A51        1.30193   0.04048   0.00000   0.01725   0.01719   1.31912
   A52        1.78929   0.09611   0.00000   0.02761   0.02747   1.81677
   A53        1.72533  -0.00400   0.00000  -0.00885  -0.00868   1.71665
   A54        2.28551  -0.04202   0.00000  -0.00989  -0.00984   2.27567
   A55        2.45539  -0.00719   0.00000  -0.00156  -0.00142   2.45397
   A56        1.40624   0.05397   0.00000   0.01782   0.01744   1.42367
   A57        1.85177  -0.03465   0.00000  -0.01211  -0.01218   1.83958
   A58        1.98028   0.06075   0.00000   0.01913   0.01896   1.99924
   A59        2.36486  -0.03945   0.00000  -0.01217  -0.01196   2.35290
    D1        1.68368  -0.00010   0.00000  -0.00007  -0.00007   1.68361
    D2        2.99920   0.01642   0.00000   0.01093   0.01093   3.01013
    D3        3.06690   0.01096   0.00000   0.00544   0.00549   3.07239
    D4        2.11465  -0.01462   0.00000  -0.00753  -0.00740   2.10725
    D5       -0.17388  -0.00788   0.00000  -0.00530  -0.00548  -0.17936
    D6        2.87728   0.01644   0.00000   0.01095   0.01095   2.88823
    D7       -2.90253  -0.02959   0.00000  -0.01690  -0.01687  -2.91940
    D8        0.59259  -0.02745   0.00000  -0.01781  -0.01785   0.57474
    D9       -1.07311   0.01350   0.00000   0.00888   0.00873  -1.06437
   D10        2.42200   0.01564   0.00000   0.00797   0.00776   2.42976
   D11       -1.56523  -0.03596   0.00000  -0.01953  -0.01952  -1.58475
   D12        1.41452  -0.03535   0.00000  -0.01875  -0.01868   1.39584
   D13       -2.89896   0.00271   0.00000  -0.00100  -0.00095  -2.89992
   D14        0.08079   0.00332   0.00000  -0.00022  -0.00012   0.08067
   D15       -0.42786   0.02879   0.00000   0.01705   0.01691  -0.41095
   D16        2.55190   0.02940   0.00000   0.01782   0.01774   2.56964
   D17        2.72342   0.00147   0.00000   0.00279   0.00276   2.72618
   D18        0.32694   0.00846   0.00000   0.00315   0.00311   0.33004
   D19       -0.20914  -0.00745   0.00000  -0.00248  -0.00244  -0.21158
   D20       -2.60562  -0.00046   0.00000  -0.00213  -0.00210  -2.60772
   D21       -2.62616  -0.01060   0.00000  -0.00911  -0.00925  -2.63540
   D22        0.08209  -0.00188   0.00000  -0.00107  -0.00107   0.08102
   D23       -0.01606  -0.01089   0.00000  -0.00820  -0.00836  -0.02443
   D24        2.69219  -0.00217   0.00000  -0.00015  -0.00019   2.69200
   D25        1.22777   0.05428   0.00000   0.02986   0.02968   1.25745
   D26       -1.22059   0.03930   0.00000   0.01967   0.01938  -1.20121
   D27       -2.91921  -0.01109   0.00000  -0.00262  -0.00272  -2.92193
   D28        0.29933   0.00287   0.00000   0.00325   0.00322   0.30255
   D29        0.70836  -0.02764   0.00000  -0.01560  -0.01565   0.69271
   D30       -2.35629  -0.01369   0.00000  -0.00973  -0.00971  -2.36600
   D31        2.36226   0.03536   0.00000   0.01838   0.01829   2.38054
   D32       -0.13426  -0.02349   0.00000  -0.01394  -0.01374  -0.14800
   D33       -0.84342   0.02475   0.00000   0.01369   0.01353  -0.82989
   D34        2.94324  -0.03409   0.00000  -0.01862  -0.01850   2.92475
[...]
    14  C    8.449532   7.283532   6.391751   5.422779   4.199185
    15  C    7.473282   6.201352   5.039539   3.849871   2.465301
    16  S    5.210582   3.983481   2.825419   1.833052   1.812867
    17  H    7.456262   8.047208   8.900408   9.742212  10.325424
    18  H    3.519874   4.525094   5.608620   6.781937   7.747374
    19  H    2.221380   2.714964   4.028669   5.013969   6.261868
    20  H    1.081605   2.191747   2.736078   4.195992   5.143873
    21  H    2.187182   1.089544   2.102846   2.715762   4.074982
    22  H    2.750669   2.110238   1.084308   2.154823   2.805884
    23  H    4.151225   2.668831   2.156691   1.090138   2.171300
    24  H    5.162459   4.103640   2.856937   2.249964   1.074978
    25  H    6.657375   5.217687   4.315968   2.881068   2.186467
    26  H    7.833345   6.625605   6.092433   5.149197   4.446845
    27  H    8.228650   6.865269   6.127308   4.882071   4.018839
    28  H    9.401570   8.179403   7.250907   6.166747   4.908240
    29  H    8.560402   7.502837   6.715819   5.917607   4.788690
    30  H    8.343166   7.024804   5.945774   4.685784   3.391149
    31  H    7.683139   6.486228   5.512947   4.504252   3.216008
                   11         12         13         14         15
    11  C    0.000000
    12  O    1.472412   0.000000
    13  C    2.442723   1.435459   0.000000
    14  C    3.047389   2.430417   1.608380   0.000000
    15  C    1.490475   2.539294   2.940755   2.806676   0.000000
    16  S    2.794315   3.999704   5.207634   5.727298   3.355971
    17  H   10.903749   9.860122  10.514906  11.137009  12.056476
    18  H    8.765608   8.216655   9.339060  10.098585   9.990403
    19  H    7.253716   6.924615   8.137284   9.151036   8.602633
    20  H    6.543279   6.585547   7.969765   8.520347   7.533182
    21  H    5.052718   4.990982   6.295599   7.350322   6.409191
    22  H    4.323743   4.755540   6.175754   6.608230   5.142266
    23  H    2.829743   3.166355   4.459438   5.533190   4.196521
    24  H    2.142903   2.796031   4.023124   4.119826   2.574980
    25  H    1.106384   2.098036   2.809566   3.718334   2.088815
    26  H    3.341765   2.047435   1.090675   2.275367   4.009358
    27  H    2.548432   2.049266   1.091410   2.248927   2.938091
    28  H    3.592411   3.224264   2.169076   1.086304   3.060660
    29  H    3.824886   2.900473   2.111100   1.071654   3.757888
    30  H    2.061087   2.712994   2.548319   2.359935   1.106030
    31  H    2.108926   1.807395   1.611574   1.023508   1.894030
                   16         17         18         19         20
    16  S    0.000000
    17  H   11.516599   0.000000
    18  H    8.421524   4.290174   0.000000
    19  H    6.628027   6.263626   2.571756   0.000000
    20  H    5.374042   7.594277   3.747521   3.131790   0.000000
    21  H    4.326660   7.943290   4.614453   2.408238   3.112254
    22  H    2.962356   9.232829   5.897349   4.666196   2.559574
    23  H    2.489713   9.640479   6.815949   4.822842   4.714552
    24  H    2.431160  10.261291   7.781930   6.606173   5.060231
    25  H    2.825071  11.414071   9.173817   7.412377   7.008991
    26  H    5.997438   9.872855   9.072321   7.995007   8.154397
    27  H    5.217153  11.370870  10.048192   8.625776   8.566917
    28  H    6.248005  12.152239  11.140292  10.096999   9.495710
    29  H    6.453563  10.521798   9.856729   9.154523   8.596373
    30  H    4.290463  12.491951  10.693194   9.290979   8.466859
    31  H    4.717366  11.024068   9.603192   8.529409   7.746354
                   21         22         23         24         25
    21  H    0.000000
    22  H    3.074424   0.000000
    23  H    2.448355   3.084472   0.000000
    24  H    4.628208   2.712118   3.110510   0.000000
    25  H    5.111747   4.834521   2.702754   3.045094   0.000000
    26  H    6.381528   6.642196   4.848071   4.757114   3.640719
    27  H    6.642401   6.653005   4.585005   4.501908   2.499607
    28  H    8.206979   7.474295   6.226590   4.897500   4.055709
    29  H    7.574522   6.919692   6.027234   4.604767   4.561183
    30  H    7.110837   6.146952   4.836707   3.588986   2.353090
    31  H    6.610872   5.703272   4.702250   3.156749   2.910827
                   26         27         28         29         30
    26  H    0.000000
    27  H    1.794300   0.000000
    28  H    2.841224   2.329033   0.000000
    29  H    2.292445   2.972117   1.841845   0.000000
    30  H    3.631005   2.295619   2.267063   3.421604   0.000000
    31  H    2.546538   2.193533   1.775013   1.879237   1.759553
                   31
    31  H    0.000000
 Stoichiometry    C12H15NOS2
 Framework group  C1[X(C12H15NOS2)]
 Deg. of freedom    87
 Full point group                 C1      NOp   1
 Largest Abelian subgroup         C1      NOp   1
 Largest concise Abelian subgroup C1      NOp   1
                         Standard orientation:                         
 ---------------------------------------------------------------------
 Center     Atomic      Atomic             Coordinates (Angstroms)
 Number     Number       Type             X           Y           Z
 ---------------------------------------------------------------------
      1          7           0        6.259915   -3.828337    0.069317
      2          6           0        6.389789   -2.699829    0.336871
      3         16           0        5.075258    0.659674    0.216958
      4          6           0        3.182345    2.575146   -0.480182
      5          6           0        3.480874    1.116923   -0.538834
      6          6           0        2.284194    1.556552    0.233807
      7          6           0        0.949711    1.331409   -0.372786
      8          6           0       -0.206272    1.407778    0.292454
      9          6           0       -1.521677    1.197775   -0.314957
     10          6           0       -2.641067    0.579128    0.431917
     11          6           0       -3.765145   -0.265782   -0.198874
     12          8           0       -3.166276   -1.584797   -0.462601
     13          6           0       -4.117347   -2.612203   -0.779530
     14          6           0       -4.815928   -3.008347    0.614006
     15          6           0       -4.964153   -0.206474    0.684517
     16         16           0       -2.864006    2.356076    0.150415
     17          1           0        6.147092   -4.808690   -0.163111
     18          1           0        4.989130   -0.679762   -0.034027
     19          1           0        3.316960    0.618147   -1.494579
     20          1           0        2.325620    1.585593    1.314229
     21          1           0        0.951405    1.064784   -1.429202
     22          1           0       -0.231478    1.695697    1.337533
     23          1           0       -1.493366    0.944057   -1.374780
     24          1           0       -2.576123    0.339777    1.477895
     25          1           0       -4.074633    0.170114   -1.167532
     26          1           0       -3.570022   -3.434704   -1.241589
     27          1           0       -4.839232   -2.189046   -1.480242
     28          1           0       -5.873673   -3.114020    0.390253
     29          1           0       -4.282251   -3.896373    0.887940
     30          1           0       -5.700268   -0.863016    0.184128
     31          1           0       -4.490328   -2.040275    0.680248
 ---------------------------------------------------------------------
 Rotational constants (GHZ):           0.4860976           0.1266735           0.1027998
 Standard basis: 6-31G(2df,p) (6D, 7F)
 There are   579 symmetry adapted cartesian basis functions of A   symmetry.
 There are   531 symmetry adapted basis functions of A   symmetry.
   531 basis functions,   857 primitive gaussians,   579 cartesian basis functions
    67 alpha electrons       67 beta electrons
       nuclear repulsion energy      1119.1178464210 Hartrees.
 NAtoms=   31 NActive=   31 NUniq=   31 SFac= 1.00D+00 NAtFMM=   60 NAOKFM=F Big=F
 Integral buffers will be    131072 words long.
 Raffenetti 2 integral format.
 Two-electron integral symmetry is turned on.
 One-electron integrals computed using PRISM.
 PrsmSu:  requested number of processors reduced to:  12 ShMem   1 Linda.
 NBasis=   531 RedAO= T EigKep=  5.05D-04  NBF=   531
 NBsUse=   531 1.00D-06 EigRej= -1.00D+00 NBFU=   531
 Initial guess from the checkpoint file:  "NdCd[SH]C1dCCdCCdCCdCOCCCS1.chk"
 B after Tr=     0.000000    0.000000   -0.000000
         Rot=    0.999992   -0.001936    0.000536   -0.003572 Ang=  -0.47 deg.
 ExpMin= 1.17D-01 ExpMax= 2.19D+04 ExpMxC= 3.30D+03 IAcc=2 IRadAn=         4 AccDes= 0.00D+00
 Harris functional with IExCor=  402 and IRadAn=       4 diagonalized for initial guess.
 HarFok:  IExCor=  402 AccDes= 0.00D+00 IRadAn=         4 IDoV= 1 UseB2=F ITyADJ=14
 ICtDFT=  3500011 ScaDFX=  1.000000  1.000000  1.000000  1.000000
 FoFCou: FMM=F IPFlag=           0 FMFlag=      100000 FMFlg1=           0
         NFxFlg=           0 DoJE=T BraDBF=F KetDBF=T FulRan=T
         wScrn=  0.000000 ICntrl=       500 IOpCl=  0 I1Cent=   200000004 NGrid=           0
         NMat0=    1 NMatS0=      1 NMatT0=    0 NMatD0=    1 NMtDS0=    0 NMtDT0=    0
 Petite list used in FoFCou.
 Requested convergence on RMS density matrix=1.00D-08 within 128 cycles.
 Requested convergence on MAX density matrix=1.00D-06.
 Requested convergence on             energy=1.00D-06.
 No special actions if energy rises.
 Integral accuracy reduced to 1.0D-05 until final iterations.
 Initial convergence to 1.0D-05 achieved.  Increase integral accuracy.
 SCF Done:  E(RB3LYP) =  -1392.19109518     A.U. after   13 cycles
            NFock= 13  Conv=0.74D-08     -V/T= 2.0048
 PrsmSu:  requested number of processors reduced to:  13 ShMem   1 Linda.
 Calling FoFJK, ICntrl=      2127 FMM=F ISym2X=0 I1Cent= 0 IOpClX= 0 NMat=1 NMatS=1 NMatT=0.
 ***** Axes restored to original set *****
 -------------------------------------------------------------------
 Center     Atomic                   Forces (Hartrees/Bohr)
 Number     Number              X              Y              Z
 -------------------------------------------------------------------
      1        7           0.003255452   -0.002049800   -0.019550476
      2        6          -0.000092944    0.000313274    0.002215442
      3       16           0.005324588   -0.001334300   -0.008492900
      4        6          -0.000416675    0.002979945   -0.001547448
      5        6          -0.006951051   -0.004730277   -0.002177032
      6        6           0.008496549   -0.005557026   -0.000980041
      7        6          -0.003275169    0.002014297   -0.002521733
      8        6          -0.002436496    0.000485683    0.003216278
      9        6           0.003033383   -0.008604037   -0.015133197
     10        6           0.018522288    0.008679128   -0.002877172
     11        6          -0.025733550   -0.018656829   -0.003414173
     12        8           0.007601491   -0.007994846    0.002760463
     13        6           0.006739907   -0.010724156   -0.001749251
     14        6           0.053322725   -0.057382284   -0.038219153
     15        6           0.013494403    0.000202744   -0.004902784
     16       16           0.004261767    0.003023622    0.012966437
     17        1          -0.003119831    0.001546985    0.015827902
     18        1          -0.002124186    0.002557976    0.009332089
     19        1           0.000113127   -0.000242782    0.002712683
     20        1          -0.002767321    0.003668302    0.003167916
     21        1           0.000813937    0.000844819    0.001643811
     22        1          -0.003783762    0.000585513   -0.000558877
     23        1           0.000548321    0.000651934    0.002096003
     24        1          -0.013279885   -0.001308073   -0.001001592
     25        1           0.002570624    0.001997544    0.003414928
     26        1          -0.000819084   -0.002512534    0.001874644
     27        1           0.005745671   -0.001780570   -0.005236572
     28        1          -0.006513571    0.011419134   -0.003296665
     29        1          -0.018042126    0.018509073    0.002498267
     30        1           0.004292842    0.004411239    0.005319538
     31        1          -0.048781424    0.058986301    0.042612664
 -------------------------------------------------------------------
 Cartesian Forces:  Max     0.058986301 RMS     0.014695094

 GradGradGradGradGradGradGradGradGradGradGradGradGradGradGradGradGradGrad
 Berny optimization.
 Using GEDIIS/GDIIS optimizer.
 FormGI is forming the generalized inverse of G from B-inverse, IUseBI=4.
 Internal  Forces:  Max     0.028323004 RMS     0.004854406
 Search for a local minimum.
 Step number  16 out of a maximum of  186
 All quantities printed in internal units (Hartrees-Bohrs-Radians)
 Mixed Optimization -- RFO/linear search
 Update second derivatives using D2CorX and points   15   16
 DE= -1.25D-02 DEPred=-1.22D-02 R= 1.02D+00
 TightC=F SS=  1.41D+00  RLast= 2.72D+00 DXNew= 5.0454D+00 8.1573D+00
 Trust test= 1.02D+00 RLast= 2.72D+00 DXMaxT set to 3.00D+00
 ITU=  1  1  1  1  1  1  1  1  1  1  1  1  0  0  1  0
 Use linear search instead of GDIIS.
     Eigenvalues ---    0.00011   0.00230   0.00231   0.00552   0.00711
     Eigenvalues ---    0.01222   0.01441   0.01591   0.01768   0.01856
     Eigenvalues ---    0.01972   0.02151   0.02515   0.02713   0.02745
     Eigenvalues ---    0.02852   0.03102   0.03407   0.03422   0.03667
     Eigenvalues ---    0.03914   0.04183   0.04339   0.04527   0.04960
     Eigenvalues ---    0.05114   0.05242   0.05563   0.06115   0.06424
     Eigenvalues ---    0.07780   0.08208   0.08940   0.09661   0.10290
     Eigenvalues ---    0.10374   0.11213   0.11363   0.11653   0.11937
     Eigenvalues ---    0.12189   0.12631   0.12713   0.13199   0.14345
     Eigenvalues ---    0.14610   0.14868   0.15045   0.15339   0.15500
     Eigenvalues ---    0.15688   0.15924   0.15988   0.16047   0.16126
     Eigenvalues ---    0.16427   0.16925   0.18615   0.19172   0.19251
     Eigenvalues ---    0.19912   0.20368   0.20966   0.21452   0.21821
     Eigenvalues ---    0.21950   0.22335   0.23781   0.25065   0.28633
     Eigenvalues ---    0.30153   0.34114   0.37924   0.38965   0.39556
     Eigenvalues ---    0.40011   0.41461   0.43158   0.44304   0.45968
     Eigenvalues ---    0.47426   0.51508   0.57746   0.60603   0.69180
     Eigenvalues ---    0.74550   0.92848
 RFO step:  Lambda=-2.39432042D-02 EMin= 1.13653335D-04
 Quartic linear search produced a step of  2.00000.
 Iteration  1 RMS(Cart)=  0.00689955 RMS(Int)=  0.10179636
 Iteration  2 RMS(Cart)=  0.05398247 RMS(Int)=  0.05285557
 Iteration  3 RMS(Cart)=  0.00227329 RMS(Int)=  0.04487329
 Iteration  4 RMS(Cart)=  0.00520787 RMS(Int)=  0.03927692
 Iteration  5 RMS(Cart)=  0.00331957 RMS(Int)=  0.03560689
 Iteration  6 RMS(Cart)=  0.18115012 RMS(Int)=  0.01946302
 New curvilinear step failed:  FormB failed.
 Iteration  1 RMS(Cart)=  0.00674205 RMS(Int)=  0.09850783
 Iteration  2 RMS(Cart)=  0.05740484 RMS(Int)=  0.04726109
 Iteration  3 RMS(Cart)=  0.00164766 RMS(Int)=  0.03891105
 Iteration  4 RMS(Cart)=  0.00415677 RMS(Int)=  0.03421644
 Iteration  5 RMS(Cart)=  0.00458209 RMS(Int)=  0.03102512
 Iteration  6 RMS(Cart)=  0.12774239 RMS(Int)=  0.01866257
 Iteration  7 RMS(Cart)=  0.01248945 RMS(Int)=  0.01739158
 SLEqS3 Cycle:    60 Max:0.509180E-01 RMS: 1351.20     Conv:0.103605E-01
 New curvilinear step failed:  FormB failed.
 ITry= 2 IFail=2 DXMaxC= 9.82D-01 DCOld= 1.00D+10 DXMaxT= 3.00D+00 DXLimC= 3.00D+00 Rises=F
 Iteration  1 RMS(Cart)=  0.00658235 RMS(Int)=  0.09530598
 Iteration  2 RMS(Cart)=  0.05689606 RMS(Int)=  0.04465451
 Iteration  3 RMS(Cart)=  0.00172776 RMS(Int)=  0.03684733
 Iteration  4 RMS(Cart)=  0.00428766 RMS(Int)=  0.03124938
 Iteration  5 RMS(Cart)=  0.00438804 RMS(Int)=  0.02878889
 SLEqS3 Cycle:   931 Max:0.478881E-01 RMS:0.621773E-02 Conv:0.439707E-01
 SLEqS3 Cycle:   104 Max:0.461085E-01 RMS: 5761.92     Conv:0.439707E-01
 Iteration  6 RMS(Cart)=  0.16609235 RMS(Int)=  0.01635973
 New curvilinear step failed:  FormB failed.
 ITry= 3 IFail=2 DXMaxC= 8.06D-01 DCOld= 1.00D+10 DXMaxT= 3.00D+00 DXLimC= 3.00D+00 Rises=F
 Iteration  1 RMS(Cart)=  0.00642501 RMS(Int)=  0.09218580
 Iteration  2 RMS(Cart)=  0.05292579 RMS(Int)=  0.04432817
 Iteration  3 RMS(Cart)=  0.00144054 RMS(Int)=  0.03677460
 Iteration  4 RMS(Cart)=  0.00367845 RMS(Int)=  0.03090453
 Iteration  5 RMS(Cart)=  0.01214006 RMS(Int)=  0.02870922
 New curvilinear step failed:  FormB failed.
 ITry= 4 IFail=2 DXMaxC= 4.21D-01 DCOld= 1.00D+10 DXMaxT= 3.00D+00 DXLimC= 3.00D+00 Rises=F
 Iteration  1 RMS(Cart)=  0.00626605 RMS(Int)=  0.08917155
 Iteration  2 RMS(Cart)=  0.05105696 RMS(Int)=  0.04257988
 Iteration  3 RMS(Cart)=  0.00210073 RMS(Int)=  0.03479927
 New curvilinear step failed:  FormB failed.
 ITry= 5 IFail=2 DXMaxC= 2.76D-01 DCOld= 1.00D+10 DXMaxT= 3.00D+00 DXLimC= 3.00D+00 Rises=F
 Iteration  1 RMS(Cart)=  0.00607433 RMS(Int)=  0.08634892
 Iteration  2 RMS(Cart)=  0.02188532 RMS(Int)=  0.05787470
 Iteration  3 RMS(Cart)=  0.00054709 RMS(Int)=  0.04855272
 Iteration  4 RMS(Cart)=  0.00149049 RMS(Int)=  0.04189294
 Iteration  5 RMS(Cart)=  0.00123688 RMS(Int)=  0.03813113
 Iteration  6 RMS(Cart)=  0.00151598 RMS(Int)=  0.03512035
 Iteration  7 RMS(Cart)=  0.00756768 RMS(Int)=  0.03140261
 Iteration  8 RMS(Cart)=  0.00182458 RMS(Int)=  0.03195023
 Iteration  9 RMS(Cart)=  0.00584396 RMS(Int)=  0.02983520
 New curvilinear step failed:  FormB failed.
 ITry= 6 IFail=2 DXMaxC= 1.15D-01 DCOld= 1.00D+10 DXMaxT= 3.00D+00 DXLimC= 3.00D+00 Rises=F
 Iteration  1 RMS(Cart)=  0.00585924 RMS(Int)=  0.08370074
 Iteration  2 RMS(Cart)=  0.02478636 RMS(Int)=  0.05078084
 Iteration  3 RMS(Cart)=  0.00033015 RMS(Int)=  0.04379331
 Iteration  4 RMS(Cart)=  0.00162956 RMS(Int)=  0.03826089
 Iteration  5 RMS(Cart)=  0.00112280 RMS(Int)=  0.03495535
 Iteration  6 RMS(Cart)=  0.00328294 RMS(Int)=  0.03199031
 Iteration  7 RMS(Cart)=  0.00758835 RMS(Int)=  0.04068988
 New curvilinear step failed:  FormB failed.
 ITry= 7 IFail=2 DXMaxC= 1.08D-01 DCOld= 1.00D+10 DXMaxT= 3.00D+00 DXLimC= 3.00D+00 Rises=F
 Iteration  1 RMS(Cart)=  0.00562987 RMS(Int)=  0.08118940
 Iteration  2 RMS(Cart)=  0.02890146 RMS(Int)=  0.05372171
 Iteration  3 RMS(Cart)=  0.00035984 RMS(Int)=  0.04537321
 Iteration  4 RMS(Cart)=  0.00104188 RMS(Int)=  0.04125438
 Iteration  5 RMS(Cart)=  0.00095105 RMS(Int)=  0.03820086
 Iteration  6 RMS(Cart)=  0.00058524 RMS(Int)=  0.03596844
 Iteration  7 RMS(Cart)=  0.00143156 RMS(Int)=  0.03357546
 Iteration  8 RMS(Cart)=  0.00069356 RMS(Int)=  0.03280520
 Iteration  9 RMS(Cart)=  0.14636245 RMS(Int)=  0.01551184
 Iteration 10 RMS(Cart)=  0.01575859 RMS(Int)=  0.01445002
 SLEqS3 Cycle:   931 Max:0.498569E-01 RMS:0.738101E-02 Conv:0.305567E-01
 SLEqS3 Cycle:    90 Max:0.375565E-01 RMS: 4010.39     Conv:0.305567E-01
 Iteration 11 RMS(Cart)=  0.00012499 RMS(Int)=  0.01442827
 SLEqS3 Cycle:    35 Max:0.373981E-01 RMS:0.539877E-02 Conv:0.215955E-02
 Iteration 12 RMS(Cart)=  0.00112425 RMS(Int)=  0.01436304
 SLEqS3 Cycle:    30 Max:0.374031E-01 RMS: 183.760     Conv:0.140047E-02
 Iteration 13 RMS(Cart)=  0.00120370 RMS(Int)=  0.01443307
 SLEqS3 Cycle:    35 Max:0.372415E-01 RMS:0.539985E-02 Conv:0.469217E-03
 Iteration 14 RMS(Cart)=  0.00050420 RMS(Int)=  0.01446256
 SLEqS3 Cycle:    33 Max:0.371835E-01 RMS:0.543054E-02 Conv:0.723217E-03
 Iteration 15 RMS(Cart)=  0.01031380 RMS(Int)=  0.01388671
 SLEqS3 Cycle:    30 Max:0.383535E-01 RMS: 372.777     Conv:0.284006E-02
 Iteration 16 RMS(Cart)=  0.00239395 RMS(Int)=  0.01375725
 SLEqS3 Cycle:    19 Max:0.385063E-01 RMS: 604.471     Conv:0.460466E-02
 Iteration 17 RMS(Cart)=  0.00142833 RMS(Int)=  0.01383505
slurmstepd: error: *** JOB 27446890 ON lewis4-r630-hpc4-node301 CANCELLED AT 2023-05-16T13:56:08 DUE TO TIME LIMIT ***
