### Starting Gaussian ###
 Entering Gaussian System, Link 0=g16
 Initial command:
 /cluster/software/gaussian/gaussian-16-A.03/avx2/g16/l1.exe "/local/scratch/linjian/Gau-11757.inp" -scrdir="/local/scratch/linjian/"
 Entering Link 1 = /cluster/software/gaussian/gaussian-16-A.03/avx2/g16/l1.exe PID=     11766.
  
 Copyright (c) 1988,1990,1992,1993,1995,1998,2003,2009,2016,
            Gaussian, Inc.  All Rights Reserved.
  
 This is part of the Gaussian(R) 16 program.  It is based on
 the Gaussian(R) 09 system (copyright 2009, Gaussian, Inc.),
 the Gaussian(R) 03 system (copyright 2003, Gaussian, Inc.),
 the Gaussian(R) 98 system (copyright 1998, Gaussian, Inc.),
 the Gaussian(R) 94 system (copyright 1995, Gaussian, Inc.),
 the Gaussian 92(TM) system (copyright 1992, Gaussian, Inc.),
 the Gaussian 90(TM) system (copyright 1990, Gaussian, Inc.),
 the Gaussian 88(TM) system (copyright 1988, Gaussian, Inc.),
 the Gaussian 86(TM) system (copyright 1986, Carnegie Mellon
 University), and the Gaussian 82(TM) system (copyright 1983,
 Carnegie Mellon University). Gaussian is a federally registered
 trademark of Gaussian, Inc.
  
 This software contains proprietary and confidential information,
 including trade secrets, belonging to Gaussian, Inc.
  
 This software is provided under written license and may be
 used, copied, transmitted, or stored only in accord with that
 written license.
  
 The following legend is applicable only to US Government
 contracts under FAR:
  
                    RESTRICTED RIGHTS LEGEND
  
 Use, reproduction and disclosure by the US Government is
 subject to restrictions as set forth in subparagraphs (a)
 and (c) of the Commercial Computer Software - Restricted
 Rights clause in FAR 52.227-19.
  
 Gaussian, Inc.
 340 Quinnipiac St., Bldg. 40, Wallingford CT 06492
  
  
 ---------------------------------------------------------------
 Warning -- This program may not be used in any manner that
 competes with the business of Gaussian, Inc. or will provide
 assistance to any competitor of Gaussian, Inc.  The licensee
 of this program is prohibited from giving any competitor of
 Gaussian, Inc. access to this program.  By using this program,
 the user acknowledges that Gaussian, Inc. is engaged in the
 business of creating and licensing software in the field of
 computational chemistry and represents and warrants to the
 licensee that it is not a competitor of Gaussian, Inc. and that
 it will not use this program in any manner prohibited above.
 ---------------------------------------------------------------
  

 Cite this work as:
 Gaussian 16, Revision A.03,
 M. J. Frisch, G. W. Trucks, H. B. Schlegel, G. E. Scuseria, 
 M. A. Robb, J. R. Cheeseman, G. Scalmani, V. Barone, 
 G. A. Petersson, H. Nakatsuji, X. Li, M. Caricato, A. V. Marenich, 
 J. Bloino, B. G. Janesko, R. Gomperts, B. Mennucci, H. P. Hratchian, 
 J. V. Ortiz, A. F. Izmaylov, J. L. Sonnenberg, D. Williams-Young, 
 F. Ding, F. Lipparini, F. Egidi, J. Goings, B. Peng, A. Petrone, 
 T. Henderson, D. Ranasinghe, V. G. Zakrzewski, J. Gao, N. Rega, 
 G. Zheng, W. Liang, M. Hada, M. Ehara, K. Toyota, R. Fukuda, 
 J. Hasegawa, M. Ishida, T. Nakajima, Y. Honda, O. Kitao, H. Nakai, 
 T. Vreven, K. Throssell, J. A. Montgomery, Jr., J. E. Peralta, 
 F. Ogliaro, M. J. Bearpark, J. J. Heyd, E. N. Brothers, K. N. Kudin, 
 V. N. Staroverov, T. A. Keith, R. Kobayashi, J. Normand, 
 K. Raghavachari, A. P. Rendell, J. C. Burant, S. S. Iyengar, 
 J. Tomasi, M. Cossi, J. M. Millam, M. Klene, C. Adamo, R. Cammi, 
 J. W. Ochterski, R. L. Martin, K. Morokuma, O. Farkas, 
 J. B. Foresman, and D. J. Fox, Gaussian, Inc., Wallingford CT, 2016.
 
 ******************************************
 Gaussian 16:  ES64L-G16RevA.03 25-Dec-2016
                17-May-2023 
 ******************************************
 %chk=NdNC1dC2CqCdSrdCdCdC2S1.chk
 %NProcShared=20
 Will use up to   20 processors via shared memory.
 -----------------------------
 # opt freq b3lyp/6-31g(2df,p)
 -----------------------------
 1/18=20,19=15,26=3,38=1/1,3;
 2/9=110,12=2,17=6,18=5,40=1/2;
 3/5=1,6=6,7=104,11=2,25=1,30=1,71=1,74=-5/1,2,3;
 4//1;
 5/5=2,38=5/2;
 6/7=2,8=2,9=2,10=2,28=1/1;
 7//1,2,3,16;
 1/18=20,19=15,26=3/3(2);
 2/9=110/2;
 99//99;
 2/9=110/2;
 3/5=1,6=6,7=104,11=2,25=1,30=1,71=1,74=-5/1,2,3;
 4/5=5,16=3,69=1/1;
 5/5=2,38=5/2;
 7//1,2,3,16;
 1/18=20,19=15,26=3/3(-5);
 2/9=110/2;
 6/7=2,8=2,9=2,10=2,19=2,28=1/1;
 99/9=1/99;
 -------------------
 Title Card Required
 -------------------
 Symbolic Z-matrix:
 Charge =  0 Multiplicity = 1
 N                     0.84084   0.29052  -0.27097 
 N                     1.98606  -0.14984  -0.1414 
 C                     2.78184  -0.34308  -1.2675 
 C                     3.91196  -1.01233  -1.35008 
 C                     4.82934  -1.75668  -0.722 
 C                     4.91802  -2.0896    0.66717 
 S                     3.90956  -1.60996   1.9254 
 C                     5.65953  -2.1724   -1.75769 
 C                     5.18541  -1.6914   -2.9766 
 C                     4.10422  -0.98509  -2.65583 
 S                     2.71562  -0.08426  -2.99154 
 H                     0.39194   0.29064   0.65704 
 H                     5.76125  -2.7471    0.92332 
 

 GradGradGradGradGradGradGradGradGradGradGradGradGradGradGradGradGradGrad
 Berny optimization.
 Initialization pass.
                           ----------------------------
                           !    Initial Parameters    !
                           ! (Angstroms and Degrees)  !
 --------------------------                            --------------------------
 ! Name  Definition              Value          Derivative Info.                !
 --------------------------------------------------------------------------------
 ! R1    R(1,2)                  1.2338         estimate D2E/DX2                !
 ! R2    R(1,12)                 1.0309         estimate D2E/DX2                !
 ! R3    R(2,3)                  1.3924         estimate D2E/DX2                !
 ! R4    R(3,4)                  1.316          estimate D2E/DX2                !
 ! R5    R(3,11)                 1.7446         estimate D2E/DX2                !
 ! R6    R(4,5)                  1.338          estimate D2E/DX2                !
 ! R7    R(4,10)                 1.3201         estimate D2E/DX2                !
 ! R8    R(5,6)                  1.4313         estimate D2E/DX2                !
 ! R9    R(5,8)                  1.3909         estimate D2E/DX2                !
 ! R10   R(6,7)                  1.6823         estimate D2E/DX2                !
 ! R11   R(6,13)                 1.0995         estimate D2E/DX2                !
 ! R12   R(8,9)                  1.3935         estimate D2E/DX2                !
 ! R13   R(9,10)                 1.3307         estimate D2E/DX2                !
 ! R14   R(10,11)                1.6889         estimate D2E/DX2                !
 ! A1    A(2,1,12)             108.041          estimate D2E/DX2                !
 ! A2    A(1,2,3)              119.6763         estimate D2E/DX2                !
 ! A3    A(2,3,4)              127.7433         estimate D2E/DX2                !
 ! A4    A(2,3,11)             139.1952         estimate D2E/DX2                !
 ! A5    A(4,3,11)              92.6382         estimate D2E/DX2                !
 ! A6    A(3,4,5)              147.3805         estimate D2E/DX2                !
 ! A7    A(3,4,10)             100.1742         estimate D2E/DX2                !
 ! A8    A(5,4,10)             112.0829         estimate D2E/DX2                !
 ! A9    A(4,5,6)              128.8673         estimate D2E/DX2                !
 ! A10   A(4,5,8)              103.0603         estimate D2E/DX2                !
 ! A11   A(6,5,8)              128.0395         estimate D2E/DX2                !
 ! A12   A(5,6,7)              128.4963         estimate D2E/DX2                !
 ! A13   A(5,6,13)             114.3762         estimate D2E/DX2                !
 ! A14   A(7,6,13)             117.1274         estimate D2E/DX2                !
 ! A15   A(5,8,9)              110.186          estimate D2E/DX2                !
 ! A16   A(8,9,10)             104.4065         estimate D2E/DX2                !
 ! A17   A(4,10,9)             110.2314         estimate D2E/DX2                !
 ! A18   A(4,10,11)             95.0413         estimate D2E/DX2                !
 ! A19   A(9,10,11)            154.5853         estimate D2E/DX2                !
 ! A20   A(3,11,10)             72.1356         estimate D2E/DX2                !
 ! D1    D(12,1,2,3)           175.537          estimate D2E/DX2                !
 ! D2    D(1,2,3,4)           -166.8242         estimate D2E/DX2                !
 ! D3    D(1,2,3,11)             3.4821         estimate D2E/DX2                !
 ! D4    D(2,3,4,5)              1.3319         estimate D2E/DX2                !
 ! D5    D(2,3,4,10)           172.8128         estimate D2E/DX2                !
 ! D6    D(11,3,4,5)          -172.3441         estimate D2E/DX2                !
 ! D7    D(11,3,4,10)           -0.8632         estimate D2E/DX2                !
 ! D8    D(2,3,11,10)         -171.6425         estimate D2E/DX2                !
 ! D9    D(4,3,11,10)            0.6978         estimate D2E/DX2                !
 ! D10   D(3,4,5,6)             -5.2555         estimate D2E/DX2                !
 ! D11   D(3,4,5,8)            172.7662         estimate D2E/DX2                !
 ! D12   D(10,4,5,6)          -176.2022         estimate D2E/DX2                !
 ! D13   D(10,4,5,8)             1.8195         estimate D2E/DX2                !
 ! D14   D(3,4,10,9)          -176.3761         estimate D2E/DX2                !
 ! D15   D(3,4,10,11)            0.8942         estimate D2E/DX2                !
 ! D16   D(5,4,10,9)            -1.3199         estimate D2E/DX2                !
 ! D17   D(5,4,10,11)          175.9505         estimate D2E/DX2                !
 ! D18   D(4,5,6,7)             -1.572          estimate D2E/DX2                !
 ! D19   D(4,5,6,13)           178.2974         estimate D2E/DX2                !
 ! D20   D(8,5,6,7)           -179.1249         estimate D2E/DX2                !
 ! D21   D(8,5,6,13)             0.7445         estimate D2E/DX2                !
 ! D22   D(4,5,8,9)             -1.6883         estimate D2E/DX2                !
 ! D23   D(6,5,8,9)            176.356          estimate D2E/DX2                !
 ! D24   D(5,8,9,10)             0.9762         estimate D2E/DX2                !
 ! D25   D(8,9,10,4)             0.1691         estimate D2E/DX2                !
 ! D26   D(8,9,10,11)         -173.4846         estimate D2E/DX2                !
 ! D27   D(4,10,11,3)           -0.6976         estimate D2E/DX2                !
 ! D28   D(9,10,11,3)          173.3259         estimate D2E/DX2                !
 --------------------------------------------------------------------------------
 Trust Radius=3.00D-01 FncErr=1.00D-07 GrdErr=1.00D-06 EigMax=2.50D+02 EigMin=1.00D-04
 Number of steps in this run=     72 maximum allowed number of steps=    100.
 GradGradGradGradGradGradGradGradGradGradGradGradGradGradGradGradGradGrad

                          Input orientation:                          
 ---------------------------------------------------------------------
 Center     Atomic      Atomic             Coordinates (Angstroms)
 Number     Number       Type             X           Y           Z
 ---------------------------------------------------------------------
      1          7           0        0.840840    0.290520   -0.270970
      2          7           0        1.986060   -0.149840   -0.141400
      3          6           0        2.781840   -0.343080   -1.267500
      4          6           0        3.911960   -1.012330   -1.350080
      5          6           0        4.829340   -1.756680   -0.722000
      6          6           0        4.918020   -2.089600    0.667170
      7         16           0        3.909560   -1.609960    1.925400
      8          6           0        5.659530   -2.172400   -1.757690
      9          6           0        5.185410   -1.691400   -2.976600
     10          6           0        4.104220   -0.985090   -2.655830
     11         16           0        2.715620   -0.084260   -2.991540
     12          1           0        0.391940    0.290640    0.657040
     13          1           0        5.761250   -2.747100    0.923320
 ---------------------------------------------------------------------
                    Distance matrix (angstroms):
                    1          2          3          4          5
     1  N    0.000000
     2  N    1.233789   0.000000
     3  C    2.272004   1.392375   0.000000
     4  C    3.506234   2.431849   1.316011   0.000000
     5  C    4.505839   3.317118   2.547173   1.337956   0.000000
     6  C    4.813364   3.607332   3.369947   2.498392   1.431256
     7  S    4.225270   3.178595   3.615432   3.329555   2.806466
     8  C    5.612137   4.494166   3.444967   2.136799   1.390932
     9  C    5.488509   4.544294   3.242860   2.174483   2.283477
    10  C    4.238442   3.392138   2.021961   1.320109   2.204733
    11  S    3.325171   2.942763   1.744617   2.233144   3.523580
    12  H    1.030880   1.836504   3.133222   4.256384   5.077774
    13  H    5.904566   4.704407   4.410883   3.405532   2.134588
                    6          7          8          9         10
     6  C    0.000000
     7  S    1.682317   0.000000
     8  C    2.537053   4.116295   0.000000
     9  C    3.675203   5.065968   1.393518   0.000000
    10  C    3.595072   4.627745   2.152986   1.330691   0.000000
    11  S    4.717850   5.284842   3.814357   2.946690   1.688907
    12  H    5.113809   4.194600   6.296427   6.333181   5.136499
    13  H    1.099525   2.392908   2.743801   4.081111   4.319808
                   11         12         13
    11  S    0.000000
    12  H    4.341909   0.000000
    13  H    5.629628   6.174808   0.000000
 Stoichiometry    C7H2N2S2
 Framework group  C1[X(C7H2N2S2)]
 Deg. of freedom    33
 Full point group                 C1      NOp   1
 Largest Abelian subgroup         C1      NOp   1
 Largest concise Abelian subgroup C1      NOp   1
                         Standard orientation:                         
 ---------------------------------------------------------------------
 Center     Atomic      Atomic             Coordinates (Angstroms)
 Number     Number       Type             X           Y           Z
 ---------------------------------------------------------------------
      1          7           0       -0.456281    3.024366    0.173925
      2          7           0        0.062833    1.925530   -0.038948
      3          6           0       -0.736143    0.787236   -0.107024
      4          6           0       -0.349765   -0.470601   -0.085960
      5          6           0        0.666931   -1.335856    0.002307
      6          6           0        2.072552   -1.069035    0.041421
      7         16           0        2.859609    0.415094   -0.048528
      8          6           0        0.025252   -2.566507    0.094178
      9          6           0       -1.356936   -2.389178    0.095827
     10          6           0       -1.522062   -1.073499   -0.015811
     11         16           0       -2.424873    0.353546   -0.045455
     12          1           0        0.297658    3.721760    0.262984
     13          1           0        2.701721   -1.964639    0.146282
 ---------------------------------------------------------------------
 Rotational constants (GHZ):           1.2178706           0.8776770           0.5112580
 Standard basis: 6-31G(2df,p) (6D, 7F)
 There are   359 symmetry adapted cartesian basis functions of A   symmetry.
 There are   326 symmetry adapted basis functions of A   symmetry.
   326 basis functions,   546 primitive gaussians,   359 cartesian basis functions
    45 alpha electrons       45 beta electrons
       nuclear repulsion energy       689.8765461034 Hartrees.
 NAtoms=   13 NActive=   13 NUniq=   13 SFac= 1.00D+00 NAtFMM=   60 NAOKFM=F Big=F
 Integral buffers will be    131072 words long.
 Raffenetti 2 integral format.
 Two-electron integral symmetry is turned on.
 One-electron integrals computed using PRISM.
 PrsmSu:  requested number of processors reduced to:  13 ShMem   1 Linda.
 NBasis=   326 RedAO= T EigKep=  1.71D-04  NBF=   326
 NBsUse=   326 1.00D-06 EigRej= -1.00D+00 NBFU=   326
 ExpMin= 1.17D-01 ExpMax= 2.19D+04 ExpMxC= 3.30D+03 IAcc=3 IRadAn=         5 AccDes= 0.00D+00
 Harris functional with IExCor=  402 and IRadAn=       5 diagonalized for initial guess.
 HarFok:  IExCor=  402 AccDes= 0.00D+00 IRadAn=         5 IDoV= 1 UseB2=F ITyADJ=14
 ICtDFT=  3500011 ScaDFX=  1.000000  1.000000  1.000000  1.000000
 FoFCou: FMM=F IPFlag=           0 FMFlag=      100000 FMFlg1=           0
         NFxFlg=           0 DoJE=T BraDBF=F KetDBF=T FulRan=T
         wScrn=  0.000000 ICntrl=       500 IOpCl=  0 I1Cent=   200000004 NGrid=           0
         NMat0=    1 NMatS0=      1 NMatT0=    0 NMatD0=    1 NMtDS0=    0 NMtDT0=    0
 Petite list used in FoFCou.
 Requested convergence on RMS density matrix=1.00D-08 within 128 cycles.
 Requested convergence on MAX density matrix=1.00D-06.
 Requested convergence on             energy=1.00D-06.
 No special actions if energy rises.
 Integral accuracy reduced to 1.0D-05 until final iterations.
 EnCoef did     3 forward-backward iterations
 EnCoef did     3 forward-backward iterations
 EnCoef did     4 forward-backward iterations
 EnCoef did     8 forward-backward iterations
 EnCoef did     3 forward-backward iterations
 EnCoef did     6 forward-backward iterations
 Initial convergence to 1.0D-05 achieved.  Increase integral accuracy.
 SCF Done:  E(RB3LYP) =  -1173.42529122     A.U. after   31 cycles
            NFock= 31  Conv=0.32D-08     -V/T= 2.0035

 **********************************************************************

            Population analysis using the SCF density.

 **********************************************************************

 Orbital symmetries:
       Occupied  (A) (A) (A) (A) (A) (A) (A) (A) (A) (A) (A) (A)
                 (A) (A) (A) (A) (A) (A) (A) (A) (A) (A) (A) (A)
                 (A) (A) (A) (A) (A) (A) (A) (A) (A) (A) (A) (A)
                 (A) (A) (A) (A) (A) (A) (A) (A) (A)
       Virtual   (A) (A) (A) (A) (A) (A) (A) (A) (A) (A) (A) (A)
                 (A) (A) (A) (A) (A) (A) (A) (A) (A) (A) (A) (A)
                 (A) (A) (A) (A) (A) (A) (A) (A) (A) (A) (A) (A)
                 (A) (A) (A) (A) (A) (A) (A) (A) (A) (A) (A) (A)
                 (A) (A) (A) (A) (A) (A) (A) (A) (A) (A) (A) (A)
                 (A) (A) (A) (A) (A) (A) (A) (A) (A) (A) (A) (A)
                 (A) (A) (A) (A) (A) (A) (A) (A) (A) (A) (A) (A)
                 (A) (A) (A) (A) (A) (A) (A) (A) (A) (A) (A) (A)
                 (A) (A) (A) (A) (A) (A) (A) (A) (A) (A) (A) (A)
                 (A) (A) (A) (A) (A) (A) (A) (A) (A) (A) (A) (A)
                 (A) (A) (A) (A) (A) (A) (A) (A) (A) (A) (A) (A)
                 (A) (A) (A) (A) (A) (A) (A) (A) (A) (A) (A) (A)
                 (A) (A) (A) (A) (A) (A) (A) (A) (A) (A) (A) (A)
                 (A) (A) (A) (A) (A) (A) (A) (A) (A) (A) (A) (A)
                 (A) (A) (A) (A) (A) (A) (A) (A) (A) (A) (A) (A)
                 (A) (A) (A) (A) (A) (A) (A) (A) (A) (A) (A) (A)
                 (A) (A) (A) (A) (A) (A) (A) (A) (A) (A) (A) (A)
                 (A) (A) (A) (A) (A) (A) (A) (A) (A) (A) (A) (A)
                 (A) (A) (A) (A) (A) (A) (A) (A) (A) (A) (A) (A)
                 (A) (A) (A) (A) (A) (A) (A) (A) (A) (A) (A) (A)
                 (A) (A) (A) (A) (A) (A) (A) (A) (A) (A) (A) (A)
                 (A) (A) (A) (A) (A) (A) (A) (A) (A) (A) (A) (A)
                 (A) (A) (A) (A) (A) (A) (A) (A) (A) (A) (A) (A)
                 (A) (A) (A) (A) (A)
 The electronic state is 1-A.
 Alpha  occ. eigenvalues --  -88.91630 -88.86548 -14.42807 -14.41526 -10.28965
 Alpha  occ. eigenvalues --  -10.26217 -10.25885 -10.25084 -10.24770 -10.23254
 Alpha  occ. eigenvalues --  -10.21428  -7.98042  -7.92914  -5.94493  -5.94211
 Alpha  occ. eigenvalues --   -5.93543  -5.89211  -5.89086  -5.88572  -1.07868
 Alpha  occ. eigenvalues --   -0.99765  -0.89124  -0.81827  -0.78299  -0.73434
 Alpha  occ. eigenvalues --   -0.69490  -0.62989  -0.60315  -0.57079  -0.52432
 Alpha  occ. eigenvalues --   -0.51146  -0.48945  -0.47599  -0.44314  -0.43765
 Alpha  occ. eigenvalues --   -0.43300  -0.37826  -0.36414  -0.35717  -0.31491
 Alpha  occ. eigenvalues --   -0.27656  -0.27041  -0.26614  -0.21954  -0.21905
 Alpha virt. eigenvalues --   -0.17869  -0.15367  -0.08548  -0.02850  -0.00961
 Alpha virt. eigenvalues --    0.05981   0.06718   0.08618   0.09046   0.11815
 Alpha virt. eigenvalues --    0.13213   0.13697   0.20713   0.21509   0.23283
 Alpha virt. eigenvalues --    0.25724   0.26045   0.27762   0.29018   0.31082
 Alpha virt. eigenvalues --    0.31995   0.33817   0.34692   0.35612   0.35984
 Alpha virt. eigenvalues --    0.37297   0.38877   0.40109   0.40883   0.42006
 Alpha virt. eigenvalues --    0.42473   0.43300   0.43745   0.45663   0.46133
 Alpha virt. eigenvalues --    0.47045   0.48191   0.48694   0.50771   0.53078
 Alpha virt. eigenvalues --    0.55059   0.55563   0.56641   0.57822   0.59313
 Alpha virt. eigenvalues --    0.61429   0.62007   0.63268   0.63915   0.65174
 Alpha virt. eigenvalues --    0.66382   0.67881   0.68835   0.69534   0.71145
 Alpha virt. eigenvalues --    0.72869   0.73804   0.75088   0.76196   0.76337
 Alpha virt. eigenvalues --    0.77924   0.79664   0.80832   0.81764   0.84392
 Alpha virt. eigenvalues --    0.84835   0.86689   0.88139   0.90307   0.90608
 Alpha virt. eigenvalues --    0.91867   0.95855   0.96937   0.98575   1.00650
 Alpha virt. eigenvalues --    1.02128   1.06910   1.07659   1.09168   1.10883
 Alpha virt. eigenvalues --    1.14895   1.15656   1.18045   1.20926   1.25535
 Alpha virt. eigenvalues --    1.26253   1.27908   1.28804   1.29265   1.30465
 Alpha virt. eigenvalues --    1.31491   1.34915   1.36381   1.37447   1.39413
 Alpha virt. eigenvalues --    1.44091   1.46060   1.48365   1.48775   1.50923
 Alpha virt. eigenvalues --    1.53437   1.53684   1.54231   1.57012   1.60207
 Alpha virt. eigenvalues --    1.62553   1.64349   1.65787   1.66122   1.67439
 Alpha virt. eigenvalues --    1.68833   1.70563   1.73252   1.73706   1.75144
 Alpha virt. eigenvalues --    1.76373   1.77493   1.78667   1.82747   1.87266
 Alpha virt. eigenvalues --    1.89087   1.91082   1.91716   1.94905   1.95630
 Alpha virt. eigenvalues --    1.97233   1.98759   2.00267   2.01693   2.04403
 Alpha virt. eigenvalues --    2.04767   2.09549   2.14004   2.14296   2.17458
 Alpha virt. eigenvalues --    2.19698   2.23639   2.25136   2.26157   2.27856
 Alpha virt. eigenvalues --    2.33258   2.33685   2.35587   2.36483   2.37924
 Alpha virt. eigenvalues --    2.39413   2.39806   2.44906   2.48117   2.51740
 Alpha virt. eigenvalues --    2.53063   2.61839   2.67698   2.69926   2.73652
 Alpha virt. eigenvalues --    2.76379   2.79152   2.81759   2.84200   2.85833
 Alpha virt. eigenvalues --    2.89415   2.90715   2.93413   2.94927   3.00972
 Alpha virt. eigenvalues --    3.01406   3.04897   3.07669   3.09461   3.10366
 Alpha virt. eigenvalues --    3.11349   3.14319   3.16590   3.19984   3.21329
 Alpha virt. eigenvalues --    3.23677   3.27349   3.28682   3.29113   3.33026
 Alpha virt. eigenvalues --    3.35597   3.36584   3.37320   3.39532   3.41292
 Alpha virt. eigenvalues --    3.42622   3.44982   3.46054   3.50179   3.52232
 Alpha virt. eigenvalues --    3.55662   3.57134   3.61128   3.61585   3.63881
 Alpha virt. eigenvalues --    3.66605   3.71810   3.72954   3.74228   3.76773
 Alpha virt. eigenvalues --    3.80047   3.83906   3.86615   3.88466   3.93741
 Alpha virt. eigenvalues --    3.96733   3.99819   4.03318   4.03650   4.05972
 Alpha virt. eigenvalues --    4.08971   4.14028   4.14731   4.16551   4.23476
 Alpha virt. eigenvalues --    4.24499   4.25643   4.28424   4.29498   4.31516
 Alpha virt. eigenvalues --    4.33638   4.33756   4.37034   4.38785   4.41494
 Alpha virt. eigenvalues --    4.43295   4.45854   4.50424   4.52627   4.54175
 Alpha virt. eigenvalues --    4.55481   4.56871   4.58227   4.61464   4.62425
 Alpha virt. eigenvalues --    4.63421   4.64455   4.66987   4.70727   4.72969
 Alpha virt. eigenvalues --    4.73217   4.74379   4.78515   4.80995   4.84356
 Alpha virt. eigenvalues --    4.89166   4.91841   4.94420   5.02401   5.05747
 Alpha virt. eigenvalues --    5.08078   5.10016   5.10456   5.18299   5.21274
 Alpha virt. eigenvalues --    5.25872   5.35145   5.38447   5.40680   5.46805
 Alpha virt. eigenvalues --    5.48442   5.52886   5.70165   5.82258   5.90100
 Alpha virt. eigenvalues --    5.92388   6.11814   6.21662   6.29631   6.68559
 Alpha virt. eigenvalues --    7.08560   9.63710  10.29378  10.66937  10.91228
 Alpha virt. eigenvalues --   11.20355  11.35461  11.45516  12.08854  12.53077
 Alpha virt. eigenvalues --   15.11239
          Condensed to atoms (all electrons):
               1          2          3          4          5          6
     1  N    6.527099   0.450617  -0.078030  -0.000206  -0.000222   0.000083
     2  N    0.450617   6.479319   0.438020  -0.031138  -0.009017  -0.001062
     3  C   -0.078030   0.438020   4.970456   0.532823  -0.115517  -0.018081
     4  C   -0.000206  -0.031138   0.532823   4.399245   0.359725  -0.006893
     5  C   -0.000222  -0.009017  -0.115517   0.359725   5.030975   0.451319
     6  C    0.000083  -0.001062  -0.018081  -0.006893   0.451319   4.913804
     7  S   -0.000132  -0.005873   0.006922  -0.011266  -0.023091   0.479011
     8  C    0.000001  -0.000163   0.013062  -0.045871   0.414475  -0.091264
     9  C    0.000012  -0.000283   0.021877  -0.012622  -0.156102   0.003133
    10  C   -0.000221   0.005656  -0.117989   0.443994   0.036234   0.013467
    11  S    0.013558  -0.057258   0.237507  -0.106429   0.021863  -0.001318
    12  H    0.336967  -0.097226   0.001556  -0.000155  -0.000042   0.000026
    13  H    0.000001  -0.000057   0.000081   0.005599  -0.054210   0.363323
               7          8          9         10         11         12
     1  N   -0.000132   0.000001   0.000012  -0.000221   0.013558   0.336967
     2  N   -0.005873  -0.000163  -0.000283   0.005656  -0.057258  -0.097226
     3  C    0.006922   0.013062   0.021877  -0.117989   0.237507   0.001556
     4  C   -0.011266  -0.045871  -0.012622   0.443994  -0.106429  -0.000155
     5  C   -0.023091   0.414475  -0.156102   0.036234   0.021863  -0.000042
     6  C    0.479011  -0.091264   0.003133   0.013467  -0.001318   0.000026
     7  S   15.879575   0.003576   0.000358  -0.000071   0.000687   0.000246
     8  C    0.003576   5.417702   0.576760  -0.181954   0.014157  -0.000001
     9  C    0.000358   0.576760   5.459637   0.427012  -0.060136   0.000000
    10  C   -0.000071  -0.181954   0.427012   4.810628   0.312875  -0.000004
    11  S    0.000687   0.014157  -0.060136   0.312875  15.749619  -0.001245
    12  H    0.000246  -0.000001   0.000000  -0.000004  -0.001245   0.483567
    13  H   -0.071899  -0.003421   0.000463  -0.000220   0.000022   0.000000
              13
     1  N    0.000001
     2  N   -0.000057
     3  C    0.000081
     4  C    0.005599
     5  C   -0.054210
     6  C    0.363323
     7  S   -0.071899
     8  C   -0.003421
     9  C    0.000463
    10  C   -0.000220
    11  S    0.000022
    12  H    0.000000
    13  H    0.625614
 Mulliken charges:
               1
     1  N   -0.249527
     2  N   -0.171535
     3  C    0.107312
     4  C    0.473192
     5  C    0.043611
     6  C   -0.105548
     7  S   -0.258044
     8  C   -0.117059
     9  C   -0.260108
    10  C    0.250593
    11  S   -0.123903
    12  H    0.276311
    13  H    0.134705
 Sum of Mulliken charges =  -0.00000
 Mulliken charges with hydrogens summed into heavy atoms:
               1
     1  N    0.026784
     2  N   -0.171535
     3  C    0.107312
     4  C    0.473192
     5  C    0.043611
     6  C    0.029157
     7  S   -0.258044
     8  C   -0.117059
     9  C   -0.260108
    10  C    0.250593
    11  S   -0.123903
 Electronic spatial extent (au):  <R**2>=           1980.1546
 Charge=             -0.0000 electrons
 Dipole moment (field-independent basis, Debye):
    X=             -0.7787    Y=              0.3195    Z=              0.1291  Tot=              0.8515
 Quadrupole moment (field-independent basis, Debye-Ang):
   XX=            -83.1828   YY=            -67.3468   ZZ=            -75.0661
   XY=              1.0780   XZ=              0.6650   YZ=              0.2540
 Traceless Quadrupole moment (field-independent basis, Debye-Ang):
   XX=             -7.9842   YY=              7.8517   ZZ=              0.1325
   XY=              1.0780   XZ=              0.6650   YZ=              0.2540
 Octapole moment (field-independent basis, Debye-Ang**2):
  XXX=            -18.4816  YYY=             54.2607  ZZZ=              0.0511  XYY=             18.8483
  XXY=             -6.5164  XXZ=              0.1727  XZZ=              1.2120  YZZ=              7.1372
  YYZ=              1.8245  XYZ=              1.2618
 Hexadecapole moment (field-independent basis, Debye-Ang**3):
 XXXX=          -1608.3579 YYYY=          -1026.4295 ZZZZ=            -85.1806 XXXY=             -6.7988
 XXXZ=             -0.6883 YYYX=             34.8501 YYYZ=             10.7939 ZZZX=              0.0705
 ZZZY=              2.0786 XXYY=           -434.9724 XXZZ=           -278.4268 YYZZ=           -202.1550
 XXYZ=             -2.2807 YYXZ=              6.3585 ZZXY=              0.2890
 N-N= 6.898765461034D+02 E-N=-4.148810610680D+03  KE= 1.169328830046D+03
 PrsmSu:  requested number of processors reduced to:  13 ShMem   1 Linda.
 Calling FoFJK, ICntrl=      2127 FMM=F ISym2X=0 I1Cent= 0 IOpClX= 0 NMat=1 NMatS=1 NMatT=0.
 ***** Axes restored to original set *****
 -------------------------------------------------------------------
 Center     Atomic                   Forces (Hartrees/Bohr)
 Number     Number              X              Y              Z
 -------------------------------------------------------------------
      1        7          -0.016658523    0.006649172   -0.018940978
      2        7           0.016486220   -0.006254209    0.003658383
      3        6          -0.046272752    0.016468258    0.055494920
      4        6          -0.053847377    0.034459885    0.079142246
      5        6           0.077299461   -0.069171030    0.098949692
      6        6           0.002507549   -0.001415488    0.008763510
      7       16           0.014252205   -0.006036705   -0.020985275
      8        6          -0.009653179    0.012852184   -0.066860710
      9        6           0.045371170   -0.036840617    0.055365477
     10        6           0.032171724   -0.001871815   -0.122201142
     11       16          -0.062176368    0.047156769   -0.072627047
     12        1           0.003407452    0.001586072    0.003103486
     13        1          -0.002887581    0.002417522   -0.002862561
 -------------------------------------------------------------------
 Cartesian Forces:  Max     0.122201142 RMS     0.044363077

 GradGradGradGradGradGradGradGradGradGradGradGradGradGradGradGradGradGrad
 Berny optimization.
 FormGI is forming the generalized inverse of G from B-inverse, IUseBI=4.
 Internal  Forces:  Max     0.131503604 RMS     0.030207544
 Search for a local minimum.
 Step number   1 out of a maximum of   72
 All quantities printed in internal units (Hartrees-Bohrs-Radians)
 Mixed Optimization -- RFO/linear search
 Second derivative matrix not updated -- first step.
 ITU=  0
     Eigenvalues ---    0.01675   0.01675   0.01793   0.02156   0.02228
     Eigenvalues ---    0.02371   0.02610   0.02758   0.03100   0.03493
     Eigenvalues ---    0.16000   0.16000   0.22000   0.24132   0.24588
     Eigenvalues ---    0.24966   0.24972   0.24982   0.25000   0.29868
     Eigenvalues ---    0.33735   0.35387   0.38106   0.40809   0.42647
     Eigenvalues ---    0.42675   0.45027   0.46908   0.53580   0.54290
     Eigenvalues ---    0.58420   0.58802   0.89526
 RFO step:  Lambda=-1.00785793D-01 EMin= 1.67530153D-02
 Linear search not attempted -- first point.
 Maximum step size (   0.300) exceeded in Quadratic search.
    -- Step size scaled by   0.696
 Iteration  1 RMS(Cart)=  0.14277187 RMS(Int)=  0.00334726
 Iteration  2 RMS(Cart)=  0.00514537 RMS(Int)=  0.00020312
 Iteration  3 RMS(Cart)=  0.00000356 RMS(Int)=  0.00020311
 Iteration  4 RMS(Cart)=  0.00000000 RMS(Int)=  0.00020311
 Variable       Old X    -DE/DX   Delta X   Delta X   Delta X     New X
                                 (Linear)    (Quad)   (Total)
    R1        2.33152   0.01690   0.00000   0.01180   0.01180   2.34333
    R2        1.94808   0.00131   0.00000   0.00173   0.00173   1.94981
    R3        2.63121  -0.01142   0.00000  -0.01395  -0.01395   2.61726
    R4        2.48690   0.06224   0.00000   0.06277   0.06292   2.54983
    R5        3.29685   0.07038   0.00000   0.10476   0.10462   3.40147
    R6        2.52837   0.13150   0.00000   0.14441   0.14467   2.67304
    R7        2.49465   0.10588   0.00000   0.12138   0.12189   2.61654
    R8        2.70468  -0.01261   0.00000  -0.01724  -0.01724   2.68744
    R9        2.62848   0.02739   0.00000   0.02680   0.02659   2.65507
   R10        3.17912  -0.02596   0.00000  -0.03748  -0.03748   3.14164
   R11        2.07780  -0.00433   0.00000  -0.00687  -0.00687   2.07093
   R12        2.63337  -0.03947   0.00000  -0.06285  -0.06322   2.57015
   R13        2.51464   0.03239   0.00000   0.03081   0.03078   2.54542
   R14        3.19157   0.05967   0.00000   0.08582   0.08572   3.27729
    A1        1.88567  -0.00682   0.00000  -0.01819  -0.01819   1.86748
    A2        2.08875  -0.02649   0.00000  -0.05254  -0.05254   2.03621
    A3        2.22954   0.01462   0.00000   0.02854   0.02851   2.25805
    A4        2.42942  -0.02716   0.00000  -0.05485  -0.05501   2.37440
    A5        1.61684   0.01252   0.00000   0.02723   0.02741   1.64425
    A6        2.57228   0.05118   0.00000   0.06745   0.06692   2.63919
    A7        1.74837  -0.02088   0.00000  -0.03282  -0.03273   1.71564
    A8        1.95621  -0.02990   0.00000  -0.03383  -0.03339   1.92282
    A9        2.24916   0.03148   0.00000   0.05413   0.05404   2.30320
   A10        1.79874  -0.02117   0.00000  -0.02546  -0.02529   1.77345
   A11        2.23471  -0.01034   0.00000  -0.02868  -0.02876   2.20595
   A12        2.24268  -0.00389   0.00000  -0.00843  -0.00843   2.23425
   A13        1.99624  -0.00003   0.00000  -0.00106  -0.00106   1.99518
   A14        2.04426   0.00392   0.00000   0.00949   0.00949   2.05375
   A15        1.92311   0.03730   0.00000   0.04355   0.04299   1.96610
   A16        1.82224   0.03493   0.00000   0.04587   0.04551   1.86775
   A17        1.92390  -0.02110   0.00000  -0.02987  -0.02959   1.89432
   A18        1.65878   0.00120   0.00000   0.01468   0.01468   1.67347
   A19        2.69802   0.01997   0.00000   0.01522   0.01493   2.71295
   A20        1.25900   0.00721   0.00000  -0.00903  -0.00931   1.24969
    D1        3.06370   0.00580   0.00000   0.02971   0.02971   3.09340
    D2       -2.91163  -0.00163   0.00000  -0.01214  -0.01198  -2.92361
    D3        0.06077  -0.00010   0.00000   0.00201   0.00185   0.06263
    D4        0.02325   0.00117   0.00000   0.00370   0.00403   0.02727
    D5        3.01615  -0.00063   0.00000   0.00461   0.00503   3.02118
    D6       -3.00797   0.00372   0.00000   0.00170   0.00155  -3.00642
    D7       -0.01507   0.00192   0.00000   0.00262   0.00255  -0.01252
    D8       -2.99573  -0.00390   0.00000  -0.01568  -0.01523  -3.01096
    D9        0.01218  -0.00125   0.00000  -0.00174  -0.00176   0.01042
   D10       -0.09173  -0.00227   0.00000  -0.00457  -0.00445  -0.09618
   D11        3.01534  -0.00353   0.00000  -0.00603  -0.00592   3.00942
   D12       -3.07531  -0.00169   0.00000  -0.00679  -0.00671  -3.08202
   D13        0.03176  -0.00295   0.00000  -0.00825  -0.00818   0.02358
   D14       -3.07834  -0.00385   0.00000  -0.00392  -0.00382  -3.08216
   D15        0.01561  -0.00196   0.00000  -0.00263  -0.00258   0.01302
   D16       -0.02304   0.00308   0.00000   0.00691   0.00691  -0.01613
   D17        3.07092   0.00497   0.00000   0.00820   0.00814   3.07906
   D18       -0.02744  -0.00083   0.00000  -0.00125  -0.00124  -0.02868
   D19        3.11188  -0.00088   0.00000  -0.00155  -0.00155   3.11033
   D20       -3.12632   0.00059   0.00000  -0.00015  -0.00015  -3.12647
   D21        0.01299   0.00054   0.00000  -0.00045  -0.00045   0.01254
   D22       -0.02947   0.00077   0.00000   0.00551   0.00563  -0.02383
   D23        3.07799   0.00067   0.00000   0.00632   0.00652   3.08451
   D24        0.01704   0.00103   0.00000  -0.00162  -0.00169   0.01534
   D25        0.00295  -0.00160   0.00000  -0.00209  -0.00226   0.00069
   D26       -3.02788  -0.00135   0.00000  -0.00167  -0.00177  -3.02965
   D27       -0.01217   0.00147   0.00000   0.00203   0.00199  -0.01018
   D28        3.02511   0.00040   0.00000   0.00034   0.00028   3.02539
         Item               Value     Threshold  Converged?
 Maximum Force            0.131504     0.000450     NO 
 RMS     Force            0.030208     0.000300     NO 
 Maximum Displacement     0.462648     0.001800     NO 
 RMS     Displacement     0.140846     0.001200     NO 
 Predicted change in Energy=-5.030034D-02
 GradGradGradGradGradGradGradGradGradGradGradGradGradGradGradGradGradGrad

                          Input orientation:                          
 ---------------------------------------------------------------------
 Center     Atomic      Atomic             Coordinates (Angstroms)
 Number     Number       Type             X           Y           Z
 ---------------------------------------------------------------------
      1          7           0        0.742908    0.370110   -0.415620
      2          7           0        1.865571   -0.086158   -0.152685
      3          6           0        2.708627   -0.319846   -1.226398
      4          6           0        3.869036   -1.007010   -1.269909
      5          6           0        4.870253   -1.789876   -0.649002
      6          6           0        5.070392   -2.178829    0.704190
      7         16           0        4.154383   -1.775433    2.031614
      8          6           0        5.658454   -2.165754   -1.749679
      9          6           0        5.173348   -1.690307   -2.927980
     10          6           0        4.069054   -0.974945   -2.639622
     11         16           0        2.643344   -0.058009   -3.006033
     12          1           0        0.229523    0.440872    0.476584
     13          1           0        5.940698   -2.825395    0.863860
 ---------------------------------------------------------------------
                    Distance matrix (angstroms):
                    1          2          3          4          5
     1  N    0.000000
     2  N    1.240035   0.000000
     3  C    2.235497   1.384996   0.000000
     4  C    3.521213   2.471847   1.349310   0.000000
     5  C    4.664224   3.489570   2.677126   1.414511   0.000000
     6  C    5.145695   3.922293   3.572243   2.591038   1.422134
     7  S    4.714920   3.586568   3.850141   3.401757   2.774595
     8  C    5.689719   4.610973   3.518903   2.185151   1.405003
     9  C    5.494184   4.606185   3.293690   2.217504   2.301200
    10  C    4.221209   3.439497   2.068120   1.384612   2.295344
    11  S    3.241169   2.957587   1.799978   2.327456   3.676151
    12  H    1.031795   1.830408   3.102385   4.288665   5.270631
    13  H    6.234207   5.014323   4.592737   3.485868   2.122946
                    6          7          8          9         10
     6  C    0.000000
     7  S    1.662485   0.000000
     8  C    2.523382   4.088123   0.000000
     9  C    3.666321   5.063902   1.360063   0.000000
    10  C    3.692301   4.740096   2.176285   1.346980   0.000000
    11  S    4.914691   5.532691   3.887403   3.011878   1.734266
    12  H    5.508960   4.768086   6.420594   6.369802   5.143664
    13  H    1.095890   2.378443   2.710234   4.031786   4.381963
                   11         12         13
    11  S    0.000000
    12  H    4.266619   0.000000
    13  H    5.788526   6.590599   0.000000
 Stoichiometry    C7H2N2S2
 Framework group  C1[X(C7H2N2S2)]
 Deg. of freedom    33
 Full point group                 C1      NOp   1
 Largest Abelian subgroup         C1      NOp   1
 Largest concise Abelian subgroup C1      NOp   1
                         Standard orientation:                         
 ---------------------------------------------------------------------
 Center     Atomic      Atomic             Coordinates (Angstroms)
 Number     Number       Type             X           Y           Z
 ---------------------------------------------------------------------
      1          7           0       -1.398590    2.849351    0.163804
      2          7           0       -0.522861    1.995318   -0.039697
      3          6           0       -0.943201    0.677242   -0.104548
      4          6           0       -0.211760   -0.456450   -0.085296
      5          6           0        1.029259   -1.129812    0.000132
      6          6           0        2.368675   -0.653622    0.041041
      7         16           0        2.898725    0.920043   -0.039470
      8          6           0        0.618118   -2.470429    0.088125
      9          6           0       -0.735355   -2.604149    0.089527
     10          6           0       -1.253889   -1.365517   -0.016629
     11         16           0       -2.522773   -0.183596   -0.042647
     12          1           0       -0.920759    3.761392    0.230583
     13          1           0        3.124611   -1.440805    0.140429
 ---------------------------------------------------------------------
 Rotational constants (GHZ):           1.2030811           0.7939976           0.4792354
 Standard basis: 6-31G(2df,p) (6D, 7F)
 There are   359 symmetry adapted cartesian basis functions of A   symmetry.
 There are   326 symmetry adapted basis functions of A   symmetry.
   326 basis functions,   546 primitive gaussians,   359 cartesian basis functions
    45 alpha electrons       45 beta electrons
       nuclear repulsion energy       674.4031319232 Hartrees.
 NAtoms=   13 NActive=   13 NUniq=   13 SFac= 1.00D+00 NAtFMM=   60 NAOKFM=F Big=F
 Integral buffers will be    131072 words long.
 Raffenetti 2 integral format.
 Two-electron integral symmetry is turned on.
 One-electron integrals computed using PRISM.
 PrsmSu:  requested number of processors reduced to:  13 ShMem   1 Linda.
 NBasis=   326 RedAO= T EigKep=  1.98D-04  NBF=   326
 NBsUse=   326 1.00D-06 EigRej= -1.00D+00 NBFU=   326
 Initial guess from the checkpoint file:  "NdNC1dC2CqCdSrdCdCdC2S1.chk"
 B after Tr=    -0.000000    0.000000    0.000000
         Rot=    0.993716    0.000053    0.001216   -0.111923 Ang=  12.85 deg.
 ExpMin= 1.17D-01 ExpMax= 2.19D+04 ExpMxC= 3.30D+03 IAcc=2 IRadAn=         4 AccDes= 0.00D+00
 Harris functional with IExCor=  402 and IRadAn=       4 diagonalized for initial guess.
 HarFok:  IExCor=  402 AccDes= 0.00D+00 IRadAn=         4 IDoV= 1 UseB2=F ITyADJ=14
 ICtDFT=  3500011 ScaDFX=  1.000000  1.000000  1.000000  1.000000
 FoFCou: FMM=F IPFlag=           0 FMFlag=      100000 FMFlg1=           0
         NFxFlg=           0 DoJE=T BraDBF=F KetDBF=T FulRan=T
         wScrn=  0.000000 ICntrl=       500 IOpCl=  0 I1Cent=   200000004 NGrid=           0
         NMat0=    1 NMatS0=      1 NMatT0=    0 NMatD0=    1 NMtDS0=    0 NMtDT0=    0
 Petite list used in FoFCou.
 Requested convergence on RMS density matrix=1.00D-08 within 128 cycles.
 Requested convergence on MAX density matrix=1.00D-06.
 Requested convergence on             energy=1.00D-06.
 No special actions if energy rises.
 Integral accuracy reduced to 1.0D-05 until final iterations.
 EnCoef did     2 forward-backward iterations
 Initial convergence to 1.0D-05 achieved.  Increase integral accuracy.
 SCF Done:  E(RB3LYP) =  -1173.47598405     A.U. after   22 cycles
            NFock= 22  Conv=0.98D-08     -V/T= 2.0041
 PrsmSu:  requested number of processors reduced to:  13 ShMem   1 Linda.
 Calling FoFJK, ICntrl=      2127 FMM=F ISym2X=0 I1Cent= 0 IOpClX= 0 NMat=1 NMatS=1 NMatT=0.
 ***** Axes restored to original set *****
 -------------------------------------------------------------------
 Center     Atomic                   Forces (Hartrees/Bohr)
 Number     Number              X              Y              Z
 -------------------------------------------------------------------
      1        7          -0.012982023    0.005830468   -0.011492539
      2        7           0.014282383   -0.005340165    0.001943964
      3        6          -0.010366526   -0.003261778    0.034330050
      4        6          -0.035416553    0.021270049    0.039259222
      5        6           0.045394280   -0.036893101    0.043171661
      6        6           0.000195965    0.000447220    0.006163740
      7       16           0.004164727   -0.000504297   -0.014150363
      8        6          -0.019929053    0.016927833   -0.049186894
      9        6           0.025207208   -0.022155662    0.050098010
     10        6           0.020934055   -0.002934687   -0.060373011
     11       16          -0.031383872    0.023905665   -0.037932705
     12        1           0.001098039    0.001244800    0.001246585
     13        1          -0.001198632    0.001463654   -0.003077721
 -------------------------------------------------------------------
 Cartesian Forces:  Max     0.060373011 RMS     0.025064408

 GradGradGradGradGradGradGradGradGradGradGradGradGradGradGradGradGradGrad
 Berny optimization.
 Using GEDIIS/GDIIS optimizer.
 FormGI is forming the generalized inverse of G from B-inverse, IUseBI=4.
 Internal  Forces:  Max     0.056357079 RMS     0.014589129
 Search for a local minimum.
 Step number   2 out of a maximum of   72
 All quantities printed in internal units (Hartrees-Bohrs-Radians)
 Mixed Optimization -- RFO/linear search
 Update second derivatives using D2CorX and points    1    2
 DE= -5.07D-02 DEPred=-5.03D-02 R= 1.01D+00
 TightC=F SS=  1.41D+00  RLast= 3.03D-01 DXNew= 5.0454D-01 9.0846D-01
 Trust test= 1.01D+00 RLast= 3.03D-01 DXMaxT set to 5.05D-01
 ITU=  1  0
 Use linear search instead of GDIIS.
     Eigenvalues ---    0.01675   0.01675   0.01792   0.02211   0.02238
     Eigenvalues ---    0.02361   0.02593   0.02758   0.03097   0.03502
     Eigenvalues ---    0.15967   0.16024   0.21395   0.23767   0.24226
     Eigenvalues ---    0.24848   0.24973   0.24987   0.26250   0.29678
     Eigenvalues ---    0.33712   0.34058   0.37319   0.38606   0.40915
     Eigenvalues ---    0.42647   0.44616   0.46883   0.54258   0.55679
     Eigenvalues ---    0.58444   0.65006   0.89520
 RFO step:  Lambda=-1.74821006D-02 EMin= 1.67532156D-02
 Quartic linear search produced a step of  1.23963.
 Iteration  1 RMS(Cart)=  0.17162578 RMS(Int)=  0.00976496
 Iteration  2 RMS(Cart)=  0.01469943 RMS(Int)=  0.00210122
 Iteration  3 RMS(Cart)=  0.00010591 RMS(Int)=  0.00210045
 Iteration  4 RMS(Cart)=  0.00000015 RMS(Int)=  0.00210045
 Variable       Old X    -DE/DX   Delta X   Delta X   Delta X     New X
                                 (Linear)    (Quad)   (Total)
    R1        2.34333   0.01554   0.01463   0.01885   0.03349   2.37681
    R2        1.94981   0.00061   0.00214   0.00028   0.00242   1.95223
    R3        2.61726  -0.00761  -0.01729  -0.01220  -0.02949   2.58777
    R4        2.54983   0.01654   0.07800  -0.04188   0.03648   2.58631
    R5        3.40147   0.03711   0.12969   0.05055   0.18044   3.58190
    R6        2.67304   0.05636   0.17933  -0.00322   0.17637   2.84941
    R7        2.61654   0.04776   0.15110   0.00805   0.15981   2.77635
    R8        2.68744  -0.01046  -0.02137  -0.02677  -0.04814   2.63931
    R9        2.65507   0.00743   0.03296  -0.02366   0.00852   2.66359
   R10        3.14164  -0.01371  -0.04646  -0.01572  -0.06218   3.07946
   R11        2.07093  -0.00226  -0.00852  -0.00303  -0.01155   2.05938
   R12        2.57015  -0.04026  -0.07837  -0.11399  -0.19299   2.37715
   R13        2.54542   0.00982   0.03816  -0.01735   0.02105   2.56647
   R14        3.27729   0.02818   0.10626   0.02382   0.12972   3.40701
    A1        1.86748  -0.00200  -0.02255   0.00496  -0.01759   1.84989
    A2        2.03621  -0.01498  -0.06513  -0.03887  -0.10400   1.93221
    A3        2.25805   0.01007   0.03534   0.04451   0.07836   2.33641
    A4        2.37440  -0.01664  -0.06820  -0.04444  -0.11468   2.25972
    A5        1.64425   0.00668   0.03398   0.00857   0.04241   1.68666
    A6        2.63919   0.02202   0.08295   0.00006   0.08248   2.72167
    A7        1.71564  -0.00623  -0.04057   0.00821  -0.03259   1.68306
    A8        1.92282  -0.01557  -0.04140  -0.00549  -0.04684   1.87598
    A9        2.30320   0.00645   0.06699  -0.05375   0.01343   2.31663
   A10        1.77345  -0.01123  -0.03135  -0.01425  -0.04615   1.72730
   A11        2.20595   0.00476  -0.03565   0.06786   0.03260   2.23855
   A12        2.23425  -0.00948  -0.01045  -0.07506  -0.08552   2.14873
   A13        1.99518   0.00182  -0.00131   0.00967   0.00834   2.00353
   A14        2.05375   0.00765   0.01176   0.06537   0.07713   2.13087
   A15        1.96610   0.01990   0.05329   0.01991   0.07121   2.03731
   A16        1.86775   0.01958   0.05641   0.03113   0.08688   1.95463
   A17        1.89432  -0.01263  -0.03667  -0.02986  -0.06545   1.82887
   A18        1.67347  -0.00042   0.01820   0.00352   0.02161   1.69508
   A19        2.71295   0.01310   0.01851   0.02615   0.04366   2.75661
   A20        1.24969  -0.00001  -0.01154  -0.02048  -0.03163   1.21806
    D1        3.09340   0.00316   0.03683   0.08236   0.11918  -3.07060
    D2       -2.92361  -0.00227  -0.01485  -0.12116  -0.13408  -3.05770
    D3        0.06263  -0.00022   0.00230  -0.01672  -0.01636   0.04627
    D4        0.02727   0.00045   0.00499   0.02156   0.03188   0.05915
    D5        3.02118   0.00003   0.00623   0.05836   0.07133   3.09251
    D6       -3.00642   0.00095   0.00192  -0.04561  -0.04678  -3.05320
    D7       -0.01252   0.00053   0.00316  -0.00881  -0.00733  -0.01985
    D8       -3.01096  -0.00286  -0.01888  -0.07754  -0.08620  -3.09716
    D9        0.01042  -0.00033  -0.00218   0.00735   0.00670   0.01712
   D10       -0.09618  -0.00109  -0.00552  -0.00537  -0.00856  -0.10474
   D11        3.00942  -0.00150  -0.00733  -0.00778  -0.01153   2.99789
   D12       -3.08202  -0.00140  -0.00832  -0.04472  -0.05153  -3.13355
   D13        0.02358  -0.00181  -0.01013  -0.04713  -0.05449  -0.03091
   D14       -3.08216  -0.00172  -0.00473   0.00954   0.00674  -3.07542
   D15        0.01302  -0.00053  -0.00320   0.00926   0.00786   0.02089
   D16       -0.01613   0.00153   0.00856   0.02843   0.03611   0.01998
   D17        3.07906   0.00272   0.01009   0.02815   0.03723   3.11629
   D18       -0.02868  -0.00021  -0.00154   0.00929   0.00844  -0.02024
   D19        3.11033  -0.00035  -0.00192   0.00129   0.00007   3.11040
   D20       -3.12647   0.00054  -0.00019   0.01454   0.01366  -3.11282
   D21        0.01254   0.00041  -0.00056   0.00654   0.00528   0.01782
   D22       -0.02383   0.00100   0.00698   0.05100   0.05900   0.03516
   D23        3.08451   0.00070   0.00808   0.04550   0.05580   3.14031
   D24        0.01534  -0.00010  -0.00210  -0.03642  -0.04082  -0.02548
   D25        0.00069  -0.00056  -0.00280   0.00448   0.00081   0.00150
   D26       -3.02965  -0.00022  -0.00220   0.01150   0.00946  -3.02018
   D27       -0.01018   0.00045   0.00247  -0.00698  -0.00579  -0.01597
   D28        3.02539  -0.00032   0.00035  -0.01477  -0.01659   3.00880
         Item               Value     Threshold  Converged?
 Maximum Force            0.056357     0.000450     NO 
 RMS     Force            0.014589     0.000300     NO 
 Maximum Displacement     0.507758     0.001800     NO 
 RMS     Displacement     0.168840     0.001200     NO 
 Predicted change in Energy=-1.820952D-02
 GradGradGradGradGradGradGradGradGradGradGradGradGradGradGradGradGradGrad

                          Input orientation:                          
 ---------------------------------------------------------------------
 Center     Atomic      Atomic             Coordinates (Angstroms)
 Number     Number       Type             X           Y           Z
 ---------------------------------------------------------------------
      1          7           0        0.689286    0.456261   -0.600733
      2          7           0        1.710209   -0.102060   -0.123300
      3          6           0        2.610829   -0.392461   -1.113139
      4          6           0        3.807881   -1.055307   -1.141608
      5          6           0        4.950807   -1.858483   -0.573966
      6          6           0        5.263335   -2.277726    0.721111
      7         16           0        4.350738   -1.910500    2.020282
      8          6           0        5.639606   -2.137256   -1.771696
      9          6           0        5.162139   -1.645600   -2.826542
     10          6           0        4.021789   -0.946576   -2.591060
     11         16           0        2.527397   -0.011036   -2.967950
     12          1           0        0.095964    0.703936    0.207890
     13          1           0        6.165610   -2.883769    0.800031
 ---------------------------------------------------------------------
                    Distance matrix (angstroms):
                    1          2          3          4          5
     1  N    0.000000
     2  N    1.257755   0.000000
     3  C    2.162225   1.369390   0.000000
     4  C    3.507565   2.519098   1.368615   0.000000
     5  C    4.849672   3.713434   2.813436   1.507843   0.000000
     6  C    5.490344   4.251030   3.735570   2.661273   1.396661
     7  S    5.086993   3.851985   3.892306   3.320180   2.663252
     8  C    5.709917   4.722223   3.556895   2.218748   1.409509
     9  C    5.420189   4.648209   3.318928   2.240862   2.272461
    10  C    4.127339   3.485175   2.117098   1.469180   2.400691
    11  S    3.033271   2.961100   1.895461   2.462858   3.875195
    12  H    1.033076   1.834422   3.044955   4.323703   5.544979
    13  H    6.565673   5.333015   4.743765   3.559793   2.101149
                    6          7          8          9         10
     6  C    0.000000
     7  S    1.629581   0.000000
     8  C    2.524955   4.011446   0.000000
     9  C    3.604950   4.921407   1.257935   0.000000
    10  C    3.779401   4.722482   2.169426   1.358117   0.000000
    11  S    5.121759   5.640479   3.954451   3.103814   1.802911
    12  H    5.987940   5.312545   6.536292   6.355645   5.096118
    13  H    1.089779   2.393748   2.729055   3.961319   4.455130
                   11         12         13
    11  S    0.000000
    12  H    4.063129   0.000000
    13  H    5.973849   7.075512   0.000000
 Stoichiometry    C7H2N2S2
 Framework group  C1[X(C7H2N2S2)]
 Deg. of freedom    33
 Full point group                 C1      NOp   1
 Largest Abelian subgroup         C1      NOp   1
 Largest concise Abelian subgroup C1      NOp   1
                         Standard orientation:                         
 ---------------------------------------------------------------------
 Center     Atomic      Atomic             Coordinates (Angstroms)
 Number     Number       Type             X           Y           Z
 ---------------------------------------------------------------------
      1          7           0       -2.121130    2.464613    0.103764
      2          7           0       -0.965366    1.976585    0.014392
      3          6           0       -1.019424    0.609028   -0.031376
      4          6           0       -0.071154   -0.377764   -0.042871
      5          6           0        1.324311   -0.946921    0.005371
      6          6           0        2.589205   -0.354981    0.023082
      7         16           0        2.818517    1.257277   -0.036694
      8          6           0        1.000406   -2.316471    0.083700
      9          6           0       -0.221919   -2.611652    0.049195
     10          6           0       -1.009636   -1.508045   -0.028500
     11         16           0       -2.528831   -0.537371   -0.046582
     12          1           0       -2.001114    3.489865    0.062511
     13          1           0        3.420875   -1.055911    0.091202
 ---------------------------------------------------------------------
 Rotational constants (GHZ):           1.2480386           0.7324397           0.4619344
 Standard basis: 6-31G(2df,p) (6D, 7F)
 There are   359 symmetry adapted cartesian basis functions of A   symmetry.
 There are   326 symmetry adapted basis functions of A   symmetry.
   326 basis functions,   546 primitive gaussians,   359 cartesian basis functions
    45 alpha electrons       45 beta electrons
       nuclear repulsion energy       665.9232207714 Hartrees.
 NAtoms=   13 NActive=   13 NUniq=   13 SFac= 1.00D+00 NAtFMM=   60 NAOKFM=F Big=F
 Integral buffers will be    131072 words long.
 Raffenetti 2 integral format.
 Two-electron integral symmetry is turned on.
 One-electron integrals computed using PRISM.
 PrsmSu:  requested number of processors reduced to:  13 ShMem   1 Linda.
 NBasis=   326 RedAO= T EigKep=  2.00D-04  NBF=   326
 NBsUse=   326 1.00D-06 EigRej= -1.00D+00 NBFU=   326
 Initial guess from the checkpoint file:  "NdNC1dC2CqCdSrdCdCdC2S1.chk"
 B after Tr=     0.000000   -0.000000    0.000000
         Rot=    0.996772   -0.000694    0.000933   -0.080272 Ang=  -9.21 deg.
 ExpMin= 1.17D-01 ExpMax= 2.19D+04 ExpMxC= 3.30D+03 IAcc=2 IRadAn=         4 AccDes= 0.00D+00
 Harris functional with IExCor=  402 and IRadAn=       4 diagonalized for initial guess.
 HarFok:  IExCor=  402 AccDes= 0.00D+00 IRadAn=         4 IDoV= 1 UseB2=F ITyADJ=14
 ICtDFT=  3500011 ScaDFX=  1.000000  1.000000  1.000000  1.000000
 FoFCou: FMM=F IPFlag=           0 FMFlag=      100000 FMFlg1=           0
         NFxFlg=           0 DoJE=T BraDBF=F KetDBF=T FulRan=T
         wScrn=  0.000000 ICntrl=       500 IOpCl=  0 I1Cent=   200000004 NGrid=           0
         NMat0=    1 NMatS0=      1 NMatT0=    0 NMatD0=    1 NMtDS0=    0 NMtDT0=    0
 Petite list used in FoFCou.
 Requested convergence on RMS density matrix=1.00D-08 within 128 cycles.
 Requested convergence on MAX density matrix=1.00D-06.
 Requested convergence on             energy=1.00D-06.
 No special actions if energy rises.
 Integral accuracy reduced to 1.0D-05 until final iterations.
 Initial convergence to 1.0D-05 achieved.  Increase integral accuracy.
 SCF Done:  E(RB3LYP) =  -1173.49711601     A.U. after   19 cycles
            NFock= 19  Conv=0.59D-08     -V/T= 2.0043
 PrsmSu:  requested number of processors reduced to:  13 ShMem   1 Linda.
 Calling FoFJK, ICntrl=      2127 FMM=F ISym2X=0 I1Cent= 0 IOpClX= 0 NMat=1 NMatS=1 NMatT=0.
 ***** Axes restored to original set *****
 -------------------------------------------------------------------
 Center     Atomic                   Forces (Hartrees/Bohr)
 Number     Number              X              Y              Z
 -------------------------------------------------------------------
      1        7          -0.004143617    0.006027218    0.007214951
      2        7          -0.000617624    0.004284850   -0.011227144
      3        6           0.016356350   -0.014663590    0.010549785
      4        6          -0.015987395    0.012214634   -0.001573303
      5        6           0.012646447   -0.009484645   -0.008892833
      6        6          -0.001228915    0.000233098   -0.003348600
      7       16          -0.006099122    0.002337086    0.012887428
      8        6           0.015143407   -0.014008041    0.039894873
      9        6          -0.021403399    0.019213893   -0.039669995
     10        6           0.000252437    0.001967545   -0.009489571
     11       16           0.006182762   -0.005222503    0.004729095
     12        1          -0.002636721   -0.002416702   -0.001378552
     13        1           0.001535391   -0.000482844    0.000303864
 -------------------------------------------------------------------
 Cartesian Forces:  Max     0.039894873 RMS     0.012829577

 GradGradGradGradGradGradGradGradGradGradGradGradGradGradGradGradGradGrad
 Berny optimization.
 Using GEDIIS/GDIIS optimizer.
 FormGI is forming the generalized inverse of G from B-inverse, IUseBI=4.
 Internal  Forces:  Max     0.044278439 RMS     0.007335311
 Search for a local minimum.
 Step number   3 out of a maximum of   72
 All quantities printed in internal units (Hartrees-Bohrs-Radians)
 Mixed Optimization -- RFO/linear search
 Update second derivatives using D2CorX and points    2    3
 DE= -2.11D-02 DEPred=-1.82D-02 R= 1.16D+00
 TightC=F SS=  1.41D+00  RLast= 5.46D-01 DXNew= 8.4853D-01 1.6392D+00
 Trust test= 1.16D+00 RLast= 5.46D-01 DXMaxT set to 8.49D-01
 ITU=  1  1  0
 Use linear search instead of GDIIS.
     Eigenvalues ---    0.01675   0.01676   0.01784   0.02219   0.02294
     Eigenvalues ---    0.02345   0.02567   0.02764   0.03091   0.03548
     Eigenvalues ---    0.15889   0.16028   0.19725   0.22581   0.24353
     Eigenvalues ---    0.24978   0.24990   0.25434   0.26346   0.29332
     Eigenvalues ---    0.33740   0.34471   0.38415   0.39571   0.40887
     Eigenvalues ---    0.42647   0.45440   0.46890   0.54142   0.56701
     Eigenvalues ---    0.58407   0.62813   0.89502
 RFO step:  Lambda=-5.28141728D-03 EMin= 1.67543240D-02
 Quartic linear search produced a step of -0.18330.
 Iteration  1 RMS(Cart)=  0.03541822 RMS(Int)=  0.00239635
 Iteration  2 RMS(Cart)=  0.00244639 RMS(Int)=  0.00030367
 Iteration  3 RMS(Cart)=  0.00001835 RMS(Int)=  0.00030340
 Iteration  4 RMS(Cart)=  0.00000000 RMS(Int)=  0.00030340
 Variable       Old X    -DE/DX   Delta X   Delta X   Delta X     New X
                                 (Linear)    (Quad)   (Total)
    R1        2.37681   0.00489  -0.00614   0.01104   0.00490   2.38172
    R2        1.95223  -0.00014  -0.00044   0.00021  -0.00023   1.95200
    R3        2.58777   0.00264   0.00541  -0.00131   0.00409   2.59186
    R4        2.58631  -0.01045  -0.00669  -0.00667  -0.01339   2.57292
    R5        3.58190  -0.00083  -0.03307   0.03250  -0.00064   3.58126
    R6        2.84941   0.00790  -0.03233   0.04515   0.01283   2.86224
    R7        2.77635   0.00792  -0.02929   0.04147   0.01217   2.78852
    R8        2.63931   0.00720   0.00882   0.00467   0.01349   2.65280
    R9        2.66359  -0.00319  -0.00156  -0.00290  -0.00438   2.65920
   R10        3.07946   0.01422   0.01140   0.01763   0.02902   3.10849
   R11        2.05938   0.00156   0.00212   0.00142   0.00354   2.06292
   R12        2.37715   0.04428   0.03538   0.04017   0.07558   2.45273
   R13        2.56647  -0.00503  -0.00386  -0.00223  -0.00614   2.56033
   R14        3.40701  -0.00915  -0.02378   0.00751  -0.01622   3.39078
    A1        1.84989   0.00331   0.00322   0.01299   0.01621   1.86611
    A2        1.93221   0.01643   0.01906   0.03185   0.05092   1.98313
    A3        2.33641   0.00707  -0.01436   0.03976   0.02566   2.36207
    A4        2.25972  -0.00606   0.02102  -0.04019  -0.01885   2.24087
    A5        1.68666  -0.00100  -0.00777   0.00111  -0.00660   1.68006
    A6        2.72167  -0.00658  -0.01512  -0.00169  -0.01681   2.70486
    A7        1.68306   0.00205   0.00597   0.00152   0.00753   1.69059
    A8        1.87598   0.00450   0.00859   0.00056   0.00923   1.88521
    A9        2.31663  -0.00880  -0.00246  -0.02429  -0.02685   2.28978
   A10        1.72730   0.00113   0.00846  -0.00764   0.00089   1.72819
   A11        2.23855   0.00769  -0.00598   0.03250   0.02643   2.26498
   A12        2.14873   0.00511   0.01568   0.00143   0.01686   2.16560
   A13        2.00353  -0.00242  -0.00153  -0.00682  -0.00858   1.99494
   A14        2.13087  -0.00268  -0.01414   0.00577  -0.00860   2.12227
   A15        2.03731  -0.00352  -0.01305   0.00823  -0.00465   2.03265
   A16        1.95463  -0.00519  -0.01593   0.00570  -0.01023   1.94440
   A17        1.82887   0.00311   0.01200  -0.00668   0.00519   1.83406
   A18        1.69508  -0.00371  -0.00396  -0.00473  -0.00866   1.68642
   A19        2.75661   0.00060  -0.00800   0.01106   0.00314   2.75975
   A20        1.21806   0.00266   0.00580   0.00212   0.00780   1.22586
    D1       -3.07060  -0.00645  -0.02185  -0.10497  -0.12682   3.08577
    D2       -3.05770  -0.00163   0.02458  -0.08353  -0.05925  -3.11695
    D3        0.04627  -0.00108   0.00300  -0.05105  -0.04775  -0.00148
    D4        0.05915   0.00003  -0.00584   0.01622   0.00970   0.06885
    D5        3.09251   0.00019  -0.01307   0.02497   0.01088   3.10338
    D6       -3.05320  -0.00026   0.00857  -0.00805   0.00105  -3.05215
    D7       -0.01985  -0.00010   0.00134   0.00070   0.00224  -0.01761
    D8       -3.09716  -0.00043   0.01580  -0.02502  -0.01068  -3.10784
    D9        0.01712   0.00016  -0.00123  -0.00040  -0.00185   0.01528
   D10       -0.10474  -0.00024   0.00157  -0.00730  -0.00585  -0.11059
   D11        2.99789   0.00062   0.00211   0.00945   0.01101   3.00891
   D12       -3.13355  -0.00028   0.00944  -0.01642  -0.00685  -3.14039
   D13       -0.03091   0.00059   0.00999   0.00033   0.01002  -0.02090
   D14       -3.07542   0.00017  -0.00124   0.00174   0.00027  -3.07515
   D15        0.02089   0.00015  -0.00144  -0.00061  -0.00227   0.01861
   D16        0.01998  -0.00051  -0.00662   0.00528  -0.00108   0.01890
   D17        3.11629  -0.00053  -0.00682   0.00293  -0.00363   3.11266
   D18       -0.02024  -0.00025  -0.00155  -0.01081  -0.01240  -0.03265
   D19        3.11040   0.00086  -0.00001   0.02773   0.02767   3.13807
   D20       -3.11282  -0.00105  -0.00250  -0.03057  -0.03302   3.13735
   D21        0.01782   0.00006  -0.00097   0.00797   0.00705   0.02487
   D22        0.03516  -0.00091  -0.01081  -0.00691  -0.01789   0.01727
   D23        3.14031  -0.00062  -0.01023   0.00700  -0.00308   3.13723
   D24       -0.02548   0.00059   0.00748   0.01111   0.01906  -0.00642
   D25        0.00150  -0.00002  -0.00015  -0.00999  -0.01000  -0.00850
   D26       -3.02018   0.00027  -0.00173  -0.00037  -0.00210  -3.02229
   D27       -0.01597  -0.00003   0.00106   0.00067   0.00186  -0.01411
   D28        3.00880  -0.00016   0.00304  -0.00884  -0.00553   3.00327
         Item               Value     Threshold  Converged?
 Maximum Force            0.044278     0.000450     NO 
 RMS     Force            0.007335     0.000300     NO 
 Maximum Displacement     0.119237     0.001800     NO 
 RMS     Displacement     0.034687     0.001200     NO 
 Predicted change in Energy=-3.897832D-03
 GradGradGradGradGradGradGradGradGradGradGradGradGradGradGradGradGradGrad

                          Input orientation:                          
 ---------------------------------------------------------------------
 Center     Atomic      Atomic             Coordinates (Angstroms)
 Number     Number       Type             X           Y           Z
 ---------------------------------------------------------------------
      1          7           0        0.706499    0.519358   -0.559594
      2          7           0        1.717562   -0.102408   -0.135753
      3          6           0        2.626270   -0.407589   -1.116710
      4          6           0        3.817333   -1.065633   -1.162628
      5          6           0        4.960082   -1.877032   -0.588287
      6          6           0        5.238707   -2.279135    0.727514
      7         16           0        4.316142   -1.877772    2.028902
      8          6           0        5.661493   -2.143567   -1.778735
      9          6           0        5.164859   -1.641075   -2.867533
     10          6           0        4.028690   -0.946383   -2.618156
     11         16           0        2.534907   -0.016154   -2.968714
     12          1           0        0.072290    0.646445    0.245775
     13          1           0        6.150757   -2.869636    0.833239
 ---------------------------------------------------------------------
                    Distance matrix (angstroms):
                    1          2          3          4          5
     1  N    0.000000
     2  N    1.260351   0.000000
     3  C    2.203436   1.371555   0.000000
     4  C    3.543040   2.528104   1.361529   0.000000
     5  C    4.882262   3.723978   2.808055   1.514632   0.000000
     6  C    5.479884   4.228692   3.705223   2.658106   1.403799
     7  S    5.047382   3.819720   3.861603   3.330802   2.695244
     8  C    5.755818   4.735009   3.558718   2.223163   1.407190
     9  C    5.465440   4.659826   3.321341   2.248035   2.300559
    10  C    4.174090   3.495130   2.124010   1.475620   2.419497
    11  S    3.071435   2.949774   1.895123   2.451116   3.874374
    12  H    1.032953   1.847502   3.080611   4.352029   5.563642
    13  H    6.562409   5.315046   4.720803   3.561289   2.103261
                    6          7          8          9         10
     6  C    0.000000
     7  S    1.644940   0.000000
     8  C    2.545272   4.047062   0.000000
     9  C    3.651977   4.975080   1.297931   0.000000
    10  C    3.799194   4.748185   2.191785   1.354868   0.000000
    11  S    5.108201   5.622685   3.964527   3.093097   1.794326
    12  H    5.956757   5.249904   6.566734   6.392159   5.137344
    13  H    1.091652   2.404000   2.754807   4.022073   4.484885
                   11         12         13
    11  S    0.000000
    12  H    4.103226   0.000000
    13  H    5.972569   7.046680   0.000000
 Stoichiometry    C7H2N2S2
 Framework group  C1[X(C7H2N2S2)]
 Deg. of freedom    33
 Full point group                 C1      NOp   1
 Largest Abelian subgroup         C1      NOp   1
 Largest concise Abelian subgroup C1      NOp   1
                         Standard orientation:                         
 ---------------------------------------------------------------------
 Center     Atomic      Atomic             Coordinates (Angstroms)
 Number     Number       Type             X           Y           Z
 ---------------------------------------------------------------------
      1          7           0       -2.066877    2.529958    0.058616
      2          7           0       -0.934520    1.977230    0.031323
      3          6           0       -0.992378    0.607696   -0.015503
      4          6           0       -0.077150   -0.400174   -0.033321
      5          6           0        1.317735   -0.988424    0.015337
      6          6           0        2.579982   -0.374386    0.033840
      7         16           0        2.815018    1.251960   -0.040881
      8          6           0        0.979764   -2.353416    0.067846
      9          6           0       -0.286401   -2.637298    0.038475
     10          6           0       -1.043158   -1.515647   -0.031421
     11         16           0       -2.525999   -0.505349   -0.040558
     12          1           0       -1.903388    3.545997    0.147653
     13          1           0        3.418500   -1.072209    0.074266
 ---------------------------------------------------------------------
 Rotational constants (GHZ):           1.2218114           0.7391990           0.4608217
 Standard basis: 6-31G(2df,p) (6D, 7F)
 There are   359 symmetry adapted cartesian basis functions of A   symmetry.
 There are   326 symmetry adapted basis functions of A   symmetry.
   326 basis functions,   546 primitive gaussians,   359 cartesian basis functions
    45 alpha electrons       45 beta electrons
       nuclear repulsion energy       664.0365696843 Hartrees.
 NAtoms=   13 NActive=   13 NUniq=   13 SFac= 1.00D+00 NAtFMM=   60 NAOKFM=F Big=F
 Integral buffers will be    131072 words long.
 Raffenetti 2 integral format.
 Two-electron integral symmetry is turned on.
 One-electron integrals computed using PRISM.
 PrsmSu:  requested number of processors reduced to:  13 ShMem   1 Linda.
 NBasis=   326 RedAO= T EigKep=  2.10D-04  NBF=   326
 NBsUse=   326 1.00D-06 EigRej= -1.00D+00 NBFU=   326
 Initial guess from the checkpoint file:  "NdNC1dC2CqCdSrdCdCdC2S1.chk"
 B after Tr=    -0.000000    0.000000    0.000000
         Rot=    0.999982    0.000000   -0.000061    0.006060 Ang=  -0.69 deg.
 ExpMin= 1.17D-01 ExpMax= 2.19D+04 ExpMxC= 3.30D+03 IAcc=2 IRadAn=         4 AccDes= 0.00D+00
 Harris functional with IExCor=  402 and IRadAn=       4 diagonalized for initial guess.
 HarFok:  IExCor=  402 AccDes= 0.00D+00 IRadAn=         4 IDoV= 1 UseB2=F ITyADJ=14
 ICtDFT=  3500011 ScaDFX=  1.000000  1.000000  1.000000  1.000000
 FoFCou: FMM=F IPFlag=           0 FMFlag=      100000 FMFlg1=           0
         NFxFlg=           0 DoJE=T BraDBF=F KetDBF=T FulRan=T
         wScrn=  0.000000 ICntrl=       500 IOpCl=  0 I1Cent=   200000004 NGrid=           0
         NMat0=    1 NMatS0=      1 NMatT0=    0 NMatD0=    1 NMtDS0=    0 NMtDT0=    0
 Petite list used in FoFCou.
 Requested convergence on RMS density matrix=1.00D-08 within 128 cycles.
 Requested convergence on MAX density matrix=1.00D-06.
 Requested convergence on             energy=1.00D-06.
 No special actions if energy rises.
 Integral accuracy reduced to 1.0D-05 until final iterations.
 Initial convergence to 1.0D-05 achieved.  Increase integral accuracy.
 SCF Done:  E(RB3LYP) =  -1173.50050546     A.U. after   16 cycles
            NFock= 16  Conv=0.97D-08     -V/T= 2.0045
 PrsmSu:  requested number of processors reduced to:  13 ShMem   1 Linda.
 Calling FoFJK, ICntrl=      2127 FMM=F ISym2X=0 I1Cent= 0 IOpClX= 0 NMat=1 NMatS=1 NMatT=0.
 ***** Axes restored to original set *****
 -------------------------------------------------------------------
 Center     Atomic                   Forces (Hartrees/Bohr)
 Number     Number              X              Y              Z
 -------------------------------------------------------------------
      1        7           0.003633657   -0.004447235   -0.001055515
      2        7          -0.004559926   -0.000191672   -0.004124813
      3        6           0.004142998   -0.000235488    0.009574366
      4        6          -0.012798731    0.007325340   -0.000345066
      5        6           0.008586855   -0.006559062   -0.007289883
      6        6          -0.001027251    0.003652887    0.000304009
      7       16          -0.000443432   -0.000564665    0.000656374
      8        6          -0.003457599    0.003408969    0.000586479
      9        6          -0.002224032    0.000147203    0.005205154
     10        6           0.000653978   -0.000068951   -0.005346764
     11       16           0.005115675   -0.003056527    0.000526067
     12        1           0.002683913    0.001540233    0.000683390
     13        1          -0.000306106   -0.000951032    0.000626200
 -------------------------------------------------------------------
 Cartesian Forces:  Max     0.012798731 RMS     0.004284660

 GradGradGradGradGradGradGradGradGradGradGradGradGradGradGradGradGradGrad
 Berny optimization.
 Using GEDIIS/GDIIS optimizer.
 FormGI is forming the generalized inverse of G from B-inverse, IUseBI=4.
 Internal  Forces:  Max     0.006927686 RMS     0.002421154
 Search for a local minimum.
 Step number   4 out of a maximum of   72
 All quantities printed in internal units (Hartrees-Bohrs-Radians)
 Mixed Optimization -- RFO/linear search
 Update second derivatives using D2CorX and points    2    3    4
 DE= -3.39D-03 DEPred=-3.90D-03 R= 8.70D-01
 TightC=F SS=  1.41D+00  RLast= 1.99D-01 DXNew= 1.4270D+00 5.9634D-01
 Trust test= 8.70D-01 RLast= 1.99D-01 DXMaxT set to 8.49D-01
 ITU=  1  1  1  0
 Use linear search instead of GDIIS.
     Eigenvalues ---    0.01675   0.01693   0.01794   0.02190   0.02314
     Eigenvalues ---    0.02360   0.02569   0.02760   0.03091   0.04298
     Eigenvalues ---    0.15851   0.16207   0.17184   0.21963   0.24333
     Eigenvalues ---    0.24660   0.24983   0.25608   0.26615   0.29380
     Eigenvalues ---    0.33722   0.34158   0.37690   0.40702   0.40815
     Eigenvalues ---    0.42635   0.45150   0.46355   0.52854   0.55922
     Eigenvalues ---    0.58434   0.67436   0.91758
 RFO step:  Lambda=-1.54515584D-03 EMin= 1.67539651D-02
 Quartic linear search produced a step of -0.07435.
 Iteration  1 RMS(Cart)=  0.02594382 RMS(Int)=  0.00104162
 Iteration  2 RMS(Cart)=  0.00101607 RMS(Int)=  0.00019263
 Iteration  3 RMS(Cart)=  0.00000078 RMS(Int)=  0.00019263
 Variable       Old X    -DE/DX   Delta X   Delta X   Delta X     New X
                                 (Linear)    (Quad)   (Total)
    R1        2.38172  -0.00638  -0.00036  -0.00361  -0.00397   2.37774
    R2        1.95200  -0.00093   0.00002  -0.00203  -0.00201   1.94998
    R3        2.59186  -0.00507  -0.00030  -0.00984  -0.01014   2.58172
    R4        2.57292  -0.00693   0.00100  -0.01361  -0.01261   2.56030
    R5        3.58126   0.00187   0.00005   0.01275   0.01280   3.59406
    R6        2.86224   0.00360  -0.00095   0.01961   0.01868   2.88092
    R7        2.78852   0.00123  -0.00090   0.01462   0.01373   2.80225
    R8        2.65280   0.00052  -0.00100   0.00451   0.00351   2.65631
    R9        2.65920  -0.00509   0.00033  -0.01170  -0.01138   2.64782
   R10        3.10849   0.00063  -0.00216   0.00994   0.00779   3.11627
   R11        2.06292   0.00032  -0.00026   0.00174   0.00147   2.06440
   R12        2.45273  -0.00355  -0.00562   0.01323   0.00759   2.46033
   R13        2.56033  -0.00352   0.00046  -0.00709  -0.00664   2.55369
   R14        3.39078  -0.00607   0.00121  -0.01528  -0.01408   3.37670
    A1        1.86611  -0.00276  -0.00121  -0.01122  -0.01242   1.85368
    A2        1.98313  -0.00377  -0.00379   0.00062  -0.00316   1.97996
    A3        2.36207   0.00390  -0.00191   0.02771   0.02579   2.38785
    A4        2.24087  -0.00157   0.00140  -0.01785  -0.01646   2.22441
    A5        1.68006  -0.00233   0.00049  -0.00996  -0.00947   1.67059
    A6        2.70486   0.00061   0.00125  -0.00221  -0.00095   2.70390
    A7        1.69059   0.00290  -0.00056   0.01048   0.00992   1.70051
    A8        1.88521  -0.00351  -0.00069  -0.00828  -0.00896   1.87625
    A9        2.28978  -0.00465   0.00200  -0.02665  -0.02470   2.26507
   A10        1.72819   0.00115  -0.00007   0.00419   0.00409   1.73227
   A11        2.26498   0.00351  -0.00196   0.02285   0.02084   2.28583
   A12        2.16560   0.00035  -0.00125   0.00549   0.00343   2.16902
   A13        1.99494   0.00060   0.00064   0.00144   0.00126   1.99621
   A14        2.12227  -0.00091   0.00064  -0.00507  -0.00524   2.11702
   A15        2.03265   0.00021   0.00035  -0.00081  -0.00051   2.03215
   A16        1.94440   0.00197   0.00076   0.00447   0.00518   1.94958
   A17        1.83406   0.00018  -0.00039   0.00069   0.00030   1.83436
   A18        1.68642  -0.00171   0.00064  -0.00768  -0.00702   1.67940
   A19        2.75975   0.00153  -0.00023   0.00687   0.00662   2.76637
   A20        1.22586   0.00114  -0.00058   0.00723   0.00664   1.23249
    D1        3.08577   0.00501   0.00943   0.09151   0.10094  -3.09647
    D2       -3.11695   0.00019   0.00441  -0.01493  -0.01054  -3.12749
    D3       -0.00148  -0.00022   0.00355  -0.02280  -0.01924  -0.02072
    D4        0.06885  -0.00020  -0.00072  -0.00410  -0.00485   0.06399
    D5        3.10338  -0.00031  -0.00081  -0.00407  -0.00501   3.09837
    D6       -3.05215   0.00015  -0.00008   0.00237   0.00233  -3.04982
    D7       -0.01761   0.00003  -0.00017   0.00240   0.00217  -0.01544
[...]
 ! R14   R(10,11)                1.7681         -DE/DX =   -0.0001              !
 ! A1    A(2,1,12)             106.5132         -DE/DX =    0.0                 !
 ! A2    A(1,2,3)              113.4254         -DE/DX =    0.0                 !
 ! A3    A(2,3,4)              138.0473         -DE/DX =    0.0001              !
 ! A4    A(2,3,11)             126.8341         -DE/DX =   -0.0001              !
 ! A5    A(4,3,11)              95.1186         -DE/DX =    0.0                 !
 ! A6    A(3,4,5)              155.3796         -DE/DX =    0.0                 !
 ! A7    A(3,4,10)              97.4396         -DE/DX =    0.0                 !
 ! A8    A(5,4,10)             107.1808         -DE/DX =    0.0001              !
 ! A9    A(4,5,6)              128.0204         -DE/DX =   -0.0001              !
 ! A10   A(4,5,8)              100.5545         -DE/DX =    0.0                 !
 ! A11   A(6,5,8)              131.4251         -DE/DX =    0.0001              !
 ! A12   A(5,6,7)              123.9701         -DE/DX =    0.0                 !
 ! A13   A(5,6,13)             114.8823         -DE/DX =    0.0                 !
 ! A14   A(7,6,13)             121.1477         -DE/DX =    0.0                 !
 ! A15   A(5,8,9)              113.7206         -DE/DX =    0.0                 !
 ! A16   A(8,9,10)             115.322          -DE/DX =    0.0                 !
 ! A17   A(4,10,9)             103.2221         -DE/DX =   -0.0001              !
 ! A18   A(4,10,11)             96.6153         -DE/DX =    0.0                 !
 ! A19   A(9,10,11)            160.1626         -DE/DX =    0.0                 !
 ! A20   A(3,11,10)             70.8265         -DE/DX =    0.0                 !
 ! D1    D(12,1,2,3)           180.0            -DE/DX =    0.0                 !
 ! D2    D(1,2,3,4)           -179.9998         -DE/DX =    0.0                 !
 ! D3    D(1,2,3,11)            -0.0001         -DE/DX =    0.0                 !
 ! D4    D(2,3,4,5)              0.0002         -DE/DX =    0.0                 !
 ! D5    D(2,3,4,10)           179.9996         -DE/DX =    0.0                 !
 ! D6    D(11,3,4,5)          -179.9995         -DE/DX =    0.0                 !
 ! D7    D(11,3,4,10)           -0.0001         -DE/DX =    0.0                 !
 ! D8    D(2,3,11,10)         -179.9997         -DE/DX =    0.0                 !
 ! D9    D(4,3,11,10)            0.0001         -DE/DX =    0.0                 !
 ! D10   D(3,4,5,6)             -0.0007         -DE/DX =    0.0                 !
 ! D11   D(3,4,5,8)            179.9993         -DE/DX =    0.0                 !
 ! D12   D(10,4,5,6)           179.9999         -DE/DX =    0.0                 !
 ! D13   D(10,4,5,8)            -0.0001         -DE/DX =    0.0                 !
 ! D14   D(3,4,10,9)          -179.9997         -DE/DX =    0.0                 !
 ! D15   D(3,4,10,11)            0.0001         -DE/DX =    0.0                 !
 ! D16   D(5,4,10,9)             0.0001         -DE/DX =    0.0                 !
 ! D17   D(5,4,10,11)          179.9999         -DE/DX =    0.0                 !
 ! D18   D(4,5,6,7)             -0.0001         -DE/DX =    0.0                 !
 ! D19   D(4,5,6,13)           179.9999         -DE/DX =    0.0                 !
 ! D20   D(8,5,6,7)            179.9999         -DE/DX =    0.0                 !
 ! D21   D(8,5,6,13)             0.0            -DE/DX =    0.0                 !
 ! D22   D(4,5,8,9)              0.0001         -DE/DX =    0.0                 !
 ! D23   D(6,5,8,9)           -180.0            -DE/DX =    0.0                 !
 ! D24   D(5,8,9,10)             0.0            -DE/DX =    0.0                 !
 ! D25   D(8,9,10,4)             0.0            -DE/DX =    0.0                 !
 ! D26   D(8,9,10,11)         -179.9994         -DE/DX =    0.0                 !
 ! D27   D(4,10,11,3)           -0.0001         -DE/DX =    0.0                 !
 ! D28   D(9,10,11,3)          179.9993         -DE/DX =    0.0                 !
 --------------------------------------------------------------------------------
 GradGradGradGradGradGradGradGradGradGradGradGradGradGradGradGradGradGrad


 ----------------------------------------------------------------------

 Electric dipole moment (input orientation):
 (Debye = 10**-18 statcoulomb cm , SI units = C m)
                  (au)            (Debye)         (10**-30 SI)
   Tot        0.801129D+00      0.203627D+01      0.679226D+01
   x         -0.294929D+00     -0.749636D+00     -0.250052D+01
   y          0.289457D+00      0.735726D+00      0.245412D+01
   z         -0.686323D+00     -0.174446D+01     -0.581889D+01

 Dipole polarizability, Alpha (input orientation).
 (esu units = cm**3 , SI units = C**2 m**2 J**-1)
 Alpha(0;0):
               (au)            (10**-24 esu)      (10**-40 SI)
   iso        0.147701D+03      0.218870D+02      0.243525D+02
   aniso      0.142808D+03      0.211619D+02      0.235458D+02
   xx         0.151223D+03      0.224089D+02      0.249333D+02
   yx        -0.549202D+02     -0.813834D+01     -0.905512D+01
   yy         0.898865D+02      0.133198D+02      0.148203D+02
   zx        -0.222946D+01     -0.330371D+00     -0.367588D+00
   zy        -0.250120D+02     -0.370639D+01     -0.412392D+01
   zz         0.201992D+03      0.299322D+02      0.333040D+02

 ----------------------------------------------------------------------

 Dipole orientation:
     7          1.73658880         -0.64017039          0.77884546
     7          3.06268657          0.04562997         -1.06772332
     6          5.26811876          1.18226243         -0.37870750
     6          7.29935426          2.23082424         -1.51713732
     6          8.91674113          3.06967495         -3.77340353
     6          8.38304144          2.79638738         -6.36058562
    16          5.80212248          1.46252482         -7.47158315
     6         10.98000880          4.13581200         -2.52008993
     6         10.80364106          4.04235673         -0.07622829
     6          8.69675925          2.95119833          0.82035252
    16          6.44038922          1.78449559          2.99174622
     1          0.13460449         -1.46546145          0.03419441
     1          9.82818115          3.54558120         -7.62866441

 Electric dipole moment (dipole orientation):
 (Debye = 10**-18 statcoulomb cm , SI units = C m)
                  (au)            (Debye)         (10**-30 SI)
   Tot        0.801129D+00      0.203627D+01      0.679226D+01
   x          0.000000D+00      0.000000D+00      0.000000D+00
   y          0.000000D+00      0.000000D+00      0.000000D+00
   z          0.801129D+00      0.203627D+01      0.679226D+01

 Dipole polarizability, Alpha (dipole orientation).
 (esu units = cm**3 , SI units = C**2 m**2 J**-1)
 Alpha(0;0):
               (au)            (10**-24 esu)      (10**-40 SI)
   iso        0.147701D+03      0.218870D+02      0.243525D+02
   aniso      0.142808D+03      0.211619D+02      0.235458D+02
   xx         0.153335D+03      0.227219D+02      0.252816D+02
   yx         0.512266D+02      0.759100D+01      0.844613D+01
   yy         0.806017D+02      0.119439D+02      0.132894D+02
   zx         0.380827D+01      0.564327D+00      0.627898D+00
   zy         0.185364D+01      0.274680D+00      0.305623D+00
   zz         0.209165D+03      0.309950D+02      0.344866D+02

 ----------------------------------------------------------------------
 1\1\GINC-LEWIS4-R630-HPC4-NODE224\Freq\RB3LYP\6-31G(2df,p)\C7H2N2S2\LI
 NJIAN\17-May-2023\0\\#N Geom=AllCheck Guess=TCheck SCRF=Check GenChk R
 B3LYP/6-31G(2df,p) Freq\\Title Card Required\\0,1\N,0.7244242647,0.529
 6927634,-0.5689943708\N,1.7086772876,-0.110487297,-0.1213282968\C,2.61
 32335687,-0.4543300968,-1.0806557747\C,3.7916854185,-1.1108516592,-1.1
 60748411\C,4.9928423055,-1.8936182368,-0.6133583018\C,5.2454112927,-2.
 2740643487,0.7157466393\S,4.2463442143,-1.9281068557,1.977236087\C,5.7
 204000725,-2.1002765447,-1.7873324635\C,5.1613313064,-1.5937252001,-2.
 8430138054\C,3.9945011699,-0.965356085,-2.6303993387\S,2.5088541666,-0
 .061747476,-2.9521467503\H,0.1149248332,0.7326043891,0.238468163\H,6.1
 729600996,-2.8303133527,0.8658466237\\Version=ES64L-G16RevA.03\State=1
 -A\HF=-1173.5017067\RMSD=8.745e-09\RMSF=7.994e-05\ZeroPoint=0.0682033\
 Thermal=0.0783209\Dipole=-0.2949294,0.2894568,-0.6863234\DipoleDeriv=-
 0.4464463,0.127798,0.0907187,0.1848436,-0.2760906,-0.1274513,-0.229581
 6,0.0548494,0.2320131,0.3320076,-0.1607305,-0.2321968,-0.1862172,0.047
 3578,0.1993392,-0.0882855,0.1173498,-0.3998614,-0.2819086,0.1857915,0.
 0586935,0.2021735,-0.0387271,-0.078511,-0.0360876,-0.0243837,0.3152019
 ,0.1547337,-0.0444771,-0.114447,-0.0671749,0.0546298,0.1385605,0.01175
 13,0.0667724,-0.3704025,0.2914429,-0.1916776,0.2041562,-0.1208611,0.09
 15941,-0.0188626,-0.1921383,0.2075082,-0.5316646,0.1422664,-0.0967783,
 -0.1725135,-0.1604529,0.0347865,-0.1351343,0.1857922,-0.3391844,1.2331
 231,-0.1338774,-0.0959774,0.3523606,-0.0153789,-0.1738197,-0.0562641,-
 0.1015186,0.2024867,-1.0073639,-0.6719496,0.4053805,-0.1124025,0.31101
 22,-0.1535511,-0.1140904,0.4186944,-0.4173259,1.0099091,-0.235097,0.14
 31951,-0.1900901,0.192217,-0.2046972,0.2953649,-0.4666195,0.4534744,-1
 .0993305,0.9058788,-0.5681482,0.5338094,-0.4856839,0.4237818,-0.398379
 2,0.0762637,-0.1389619,0.6110944,-0.2018442,0.1964626,-0.4766673,0.074
 3035,-0.101025,0.2932737,0.206381,-0.0954334,-0.1299257,0.2020098,0.00
 4355,0.0243339,-0.018203,0.2252696,0.0134692,0.1509239,-0.058586,0.063
 979,-0.057216,0.0948065,0.0342449,0.0894221,0.0704911,-0.0113146,0.064
 4246,-0.0285654,0.0732279\Polar=151.222982,-54.9202274,89.8865176,-2.2
 294555,-25.0119604,201.9923011\Quadrupole=5.1318529,0.2402135,-5.37206
 64,-2.5433289,-4.1647458,3.2109542\PG=C01 [X(C7H2N2S2)]\NImag=0\\0.569
 77998,-0.29915161,0.20833249,-0.04619932,-0.04606136,0.43544828,-0.345
 31649,0.22399291,-0.11628112,0.53681079,0.22942391,-0.13648031,0.09853
 093,-0.27955336,0.22699634,-0.14669457,0.11583487,-0.16955984,0.029607
 16,-0.07168677,0.36258294,-0.11470136,0.04763294,0.02570308,-0.1075840
 9,0.01223841,0.07624675,0.63572174,0.04739259,-0.04627217,-0.02060797,
 0.01377834,-0.06567420,-0.02456880,-0.26990028,0.26050525,0.02707653,-
 0.02137779,0.01052564,0.06752906,-0.01963409,-0.16779624,-0.14438474,0
 .05350117,0.27728867,0.01638364,-0.00630029,0.00965888,-0.03482822,0.0
 2156239,0.00474195,-0.35056573,0.17088206,0.00222892,0.58569445,-0.004
 93036,0.01170196,-0.00323333,0.01827841,-0.00529153,-0.00355197,0.1699
 5970,-0.14689377,0.00300642,-0.27026320,0.26264398,0.00186482,0.001219
 34,-0.00439177,0.02314956,-0.01401496,0.00917543,0.00750525,-0.0000666
 2,-0.07310802,-0.02773796,-0.03428161,0.38425761,-0.00285524,0.0026278
 5,-0.00455611,0.00936693,-0.00479898,0.00278973,-0.00498187,0.00525288
 ,-0.00152860,-0.07337314,0.01142009,-0.01743253,0.26219537,0.00146387,
 -0.00099298,0.00282375,-0.00382563,0.00445423,-0.00253109,0.00376545,0
 .00078186,0.00425230,0.01042967,-0.06711725,0.01390401,-0.08990662,0.1
 7212546,0.00203981,-0.00093344,-0.00091643,-0.00274545,0.00062055,0.00
 714566,0.00654591,-0.00032461,-0.01545035,-0.01170843,0.01062061,-0.08
 101145,-0.00490025,-0.09966953,0.67964434,-0.00097182,0.00052526,-0.00
 044985,0.00167054,-0.00048447,-0.00041040,0.00021575,-0.00080895,-0.00
 011078,-0.00147699,0.00463922,-0.02012478,-0.08647900,0.03264995,-0.07
 718130,0.48395532,0.00007511,-0.00024324,0.00006602,-0.00003019,0.0005
 7003,0.00076585,-0.00136282,-0.00026965,-0.00106287,0.00394590,-0.0040
 6833,0.01238556,0.02861287,-0.08382889,0.07971128,-0.19867087,0.252819
 62,0.00209086,-0.00137938,0.00088326,-0.00298126,0.00222943,-0.0023019
 6,0.00300702,-0.00283663,0.00510089,-0.01621722,0.01016547,-0.00470009
 ,-0.05447346,0.06673836,-0.25388363,-0.02385515,-0.06128588,0.54979506
 ,0.00054081,-0.00029193,0.00005986,-0.00197932,0.00133500,-0.00149756,
 0.00103849,-0.00081267,0.00214022,-0.00400508,0.00080409,0.00123800,0.
 00101728,-0.00023383,0.03282359,-0.14646485,0.04415316,0.11227994,0.14
 750657,-0.00004986,0.00006617,0.00003583,0.00099292,-0.00079350,0.0007
 0758,-0.00033315,0.00056832,-0.00057468,0.00067943,-0.00222985,-0.0020
 8911,0.00166391,0.01128986,-0.00788664,0.04092946,-0.05092716,-0.03698
 535,-0.04926778,0.03107366,-0.00131220,0.00081647,-0.00035421,0.000427
 05,-0.00038743,0.00072119,-0.00056779,0.00096894,-0.00335873,0.0019354
 9,-0.00248985,0.00557374,0.02214628,-0.00179183,-0.05017650,0.13040493
 ,-0.04733340,-0.18656921,-0.15801011,0.05073377,0.23389619,-0.00156888
 ,-0.00087748,-0.00120530,-0.00056568,-0.00192829,0.00015265,-0.0045513
 8,0.00222640,0.01036620,-0.04429031,0.03892450,-0.00507700,-0.08010285
 ,0.00193139,0.11981638,-0.01145137,0.00040645,0.00872402,0.00848789,-0
 .00211903,0.00383443,0.22264654,-0.00088626,-0.00316134,0.00114675,-0.
 00328858,-0.00176361,-0.00129396,0.00446282,0.00129335,-0.00696627,0.0
 2869176,0.00479452,0.00612466,0.00623787,-0.03566501,-0.04118598,-0.00
 259636,-0.00741732,0.00493748,0.00074714,0.00610090,-0.00316254,-0.101
 26933,0.14222958,-0.00109729,0.00108517,-0.00606288,0.00791312,-0.0057
 1320,0.00287380,-0.00209186,0.00016190,0.00847545,0.05243534,-0.026717
 78,0.00432880,0.09550453,-0.02733899,-0.19241851,0.02560872,-0.0046914
 2,-0.06383622,-0.01230029,0.00604347,0.01145906,0.05166299,-0.13031706
 ,0.62891505,0.00198647,-0.00053222,0.00352011,-0.00671509,0.00252827,-
 0.00005308,-0.00251670,0.00358540,-0.00688965,-0.04722932,0.02269224,0
 .04281603,-0.00141690,0.01589764,-0.06536032,0.00448046,-0.00133706,0.
 02458185,0.00469565,-0.00190781,-0.01144827,-0.05859286,0.03969816,-0.
 16266569,0.43742540,0.00049825,0.00220916,-0.00198354,0.00227121,-0.00
 359793,0.00007401,0.00201783,-0.00018353,0.00375670,0.02770241,-0.0067
 9337,-0.01785148,0.00383548,-0.00391628,0.04387180,0.00185879,0.010940
 25,-0.01241611,-0.00394944,-0.00130163,0.00758788,0.04977140,-0.095477
 08,0.15471053,-0.25111159,0.21413580,-0.00231015,0.00133206,0.00201341
 ,0.00144046,-0.00077047,-0.00251435,0.00192165,-0.00125852,0.00251835,
 0.01462270,-0.00175753,-0.03138134,0.00252961,0.00514143,-0.03095595,0
 .00661837,-0.00217447,0.00077138,0.00006554,0.00102067,-0.00815778,-0.
 21931205,0.18702667,-0.38793618,0.14553286,-0.15831318,0.46651915,-0.0
 0233641,0.00208738,0.00410965,0.00335936,0.00669776,-0.01111249,-0.026
 96207,0.00695698,0.06867517,-0.03824910,-0.01197761,0.02235852,-0.0178
 2832,0.01526492,0.01388819,-0.00119157,0.00535876,-0.01738693,-0.00547
 163,0.00107606,0.00824938,-0.03122187,0.02578144,-0.05952252,-0.322323
 34,0.16202206,0.05364327,0.55352404,0.00377014,0.00085963,-0.00208398,
 0.00294478,0.00806524,0.01068410,0.01277442,0.00596110,-0.03667926,-0.
 00707564,-0.04986581,0.00929037,0.01843400,0.00160780,0.00602981,0.002
 99528,-0.00038891,0.00826883,0.00234947,-0.00159020,-0.00434396,0.0091
 8026,-0.01540168,0.03127205,0.17040075,-0.11343102,-0.03141953,-0.2649
 7059,0.22798135,-0.00528672,0.00325522,0.00118336,0.00990285,-0.001283
 00,-0.01278328,0.03604725,-0.01812061,-0.00692802,-0.00518687,0.025007
 00,-0.17621893,-0.00411296,0.01631543,-0.06523793,-0.00409642,0.000702
 23,0.01199257,0.00103933,-0.00023829,-0.00302988,0.03394094,-0.0220648
 9,0.01039767,0.00645090,-0.00447593,-0.01729196,-0.04670958,-0.0130716
 9,0.29789114,0.00796058,-0.00739842,-0.00091119,-0.00647787,0.00472606
 ,0.02080547,-0.02621924,0.00607988,-0.02651659,-0.00929130,0.01964109,
 -0.02970966,-0.00368431,0.00644642,-0.01312738,-0.00141419,-0.00088710
 ,0.00790024,0.00312996,-0.00097161,-0.00267381,0.00059761,0.00237351,0
 .00446621,-0.00895957,0.00527856,-0.00553445,-0.11050101,0.05037301,-0
 .02101443,0.15552872,-0.00649826,-0.00112994,-0.00286010,0.00818751,0.
 00411268,-0.00237988,0.00295913,-0.02871973,0.01809628,0.01880681,0.00
 068898,0.02517724,0.00587434,-0.00109005,0.00723797,0.00113381,-0.0003
 6666,-0.00444976,-0.00151624,0.00121055,0.00140375,0.00406275,0.003561
 75,0.00150121,0.00008735,-0.00179702,0.00199983,0.05256982,-0.06104930
 ,0.01354510,-0.08582360,0.08514200,-0.00600492,0.00003607,0.01363738,0
 .00142087,0.00865565,-0.04476706,-0.00900031,0.00813643,-0.04067418,-0
 .02516446,0.02259530,-0.03066066,-0.00984405,0.00538021,0.00490731,-0.
 00347206,0.00203500,-0.00080310,0.00040223,-0.00034696,0.00125768,-0.0
 0504191,0.00692242,-0.01662893,0.02385042,-0.01476965,0.00519599,-0.03
 350913,0.02065639,-0.03754619,0.06667998,-0.05918403,0.14491739,-0.129
 02063,0.03772158,0.12658843,-0.04747689,0.00808133,0.02545394,0.001166
 70,0.01532009,0.00144769,-0.00066879,-0.00168163,0.00096316,-0.0003622
 3,-0.00043543,0.00012689,0.00000941,0.00002978,0.00001554,0.00002195,-
 0.00002170,0.00000853,0.00045929,0.00125658,0.00000322,-0.00008823,-0.
 00051845,0.00008828,-0.00098054,-0.00085960,-0.00002661,-0.00046610,0.
 00042649,-0.00048711,0.17739844,0.02890055,-0.03493758,-0.02577764,0.0
 1613478,-0.03055106,-0.02210281,0.01580067,0.01889593,0.00360016,-0.00
 156183,-0.00218556,-0.00137979,-0.00036231,-0.00082460,-0.00031364,0.0
 0003908,0.00004523,-0.00000628,-0.00002643,0.00000129,0.00000062,0.001
 17763,0.00191063,0.00047782,-0.00049445,-0.00064885,-0.00023236,-0.000
 69885,-0.00206407,-0.00020051,0.00042153,-0.00011103,0.00000890,-0.059
 29034,0.05049991,0.17603020,-0.05392262,-0.28254441,-0.01967152,0.0035
 8560,0.01737409,-0.00125494,0.00513760,0.00373721,0.00025063,-0.000971
 62,0.00131769,-0.00027742,-0.00007916,0.00025131,-0.00003651,0.0000243
 4,0.00004729,0.00003077,-0.00001234,-0.00004184,0.00049519,0.00019689,
 -0.00002391,-0.00006490,-0.00014646,0.00006016,-0.00090898,0.00029646,
 -0.00125821,-0.00047465,0.00000248,0.00163383,-0.15415616,0.04591164,0
 .25949329,0.00011935,-0.00003598,-0.00003713,-0.00026397,0.00017197,-0
 .00002957,-0.00006024,0.00004727,-0.00003344,0.00189988,0.00249346,0.0
 0018660,-0.00149571,0.00655222,-0.00021763,-0.24088171,0.11970601,-0.0
 4368545,-0.00851771,0.00932916,0.00700608,0.00015388,-0.00120875,0.000
 08352,-0.00074598,0.00032349,0.00069390,0.00018245,-0.00031629,-0.0009
 4767,-0.00020328,-0.00026990,0.00017045,0.00000764,-0.00004003,0.00003
 829,0.24980541,-0.00000806,0.00004814,0.00000464,0.00011688,-0.0000463
 6,0.00004887,-0.00001512,0.00000723,0.00008193,0.00250053,0.00461604,0
 .00158240,0.01110861,0.00317585,0.00222183,0.11778982,-0.11686497,0.02
 701982,0.00670945,0.00653160,-0.00200241,-0.00148666,-0.00100470,-0.00
 047369,0.00049331,-0.00013847,-0.00059459,-0.00016813,-0.00068412,0.00
 062993,-0.00025932,-0.00045224,-0.00012573,-0.00002869,-0.00003024,-0.
 00002280,-0.13675263,0.10484224,-0.00019704,0.00009539,0.00013821,0.00
 028923,-0.00013224,-0.00015038,0.00032271,-0.00012226,-0.00033067,0.00
 014103,0.00160888,-0.00318101,-0.02584477,0.01685513,-0.00189787,-0.03
 289476,0.02085777,-0.05649623,0.02172849,-0.01040796,-0.00121971,0.001
 64345,-0.00136417,0.00045682,-0.00027027,-0.00004455,0.00115914,-0.001
 77455,0.00110041,-0.00117032,0.00011027,-0.00009009,-0.00046944,-0.000
 02581,0.00001390,-0.00004651,0.03677203,-0.02837021,0.06320797\\0.0000
 0537,0.00001098,-0.00001476,0.00006562,-0.00003690,-0.00001004,-0.0001
 4632,0.00005350,0.00002615,-0.00023545,0.00018372,-0.00003336,0.000122
 21,-0.00011215,0.00014184,0.00005431,-0.00001247,-0.00004733,-0.000034
 41,0.00000684,0.00004702,0.00012832,-0.00006649,0.00001028,-0.00009093
 ,0.00005611,-0.00006637,0.00014761,-0.00008935,-0.00000931,-0.00004234
 ,0.00002966,-0.00003526,0.00001907,-0.00001601,0.00000185,0.00000693,-
 0.00000744,-0.00001071\\\@


 THERE IS NO SUBJECT, HOWEVER COMPLEX,
 WHICH, IF STUDIED WITH PATIENCE AND INTELLIGIENCE
 WILL NOT BECOME
 MORE COMPLEX
                        QUOTED BY D. GORDON ROHMAN
 Job cpu time:       0 days  1 hours 38 minutes 54.5 seconds.
 Elapsed time:       0 days  0 hours 24 minutes 47.2 seconds.
 File lengths (MBytes):  RWF=    138 Int=      0 D2E=      0 Chk=     10 Scr=      1
 Normal termination of Gaussian 16 at Wed May 17 17:37:58 2023.
### All Done ###
