### Starting Gaussian ###
 Entering Gaussian System, Link 0=g16
 Initial command:
 /cluster/software/gaussian/gaussian-16-A.03/avx2/g16/l1.exe "/local/scratch/cz9n3/Gau-15383.inp" -scrdir="/local/scratch/cz9n3/"
 Entering Link 1 = /cluster/software/gaussian/gaussian-16-A.03/avx2/g16/l1.exe PID=     15384.
  
 Copyright (c) 1988,1990,1992,1993,1995,1998,2003,2009,2016,
            Gaussian, Inc.  All Rights Reserved.
  
 This is part of the Gaussian(R) 16 program.  It is based on
 the Gaussian(R) 09 system (copyright 2009, Gaussian, Inc.),
 the Gaussian(R) 03 system (copyright 2003, Gaussian, Inc.),
 the Gaussian(R) 98 system (copyright 1998, Gaussian, Inc.),
 the Gaussian(R) 94 system (copyright 1995, Gaussian, Inc.),
 the Gaussian 92(TM) system (copyright 1992, Gaussian, Inc.),
 the Gaussian 90(TM) system (copyright 1990, Gaussian, Inc.),
 the Gaussian 88(TM) system (copyright 1988, Gaussian, Inc.),
 the Gaussian 86(TM) system (copyright 1986, Carnegie Mellon
 University), and the Gaussian 82(TM) system (copyright 1983,
 Carnegie Mellon University). Gaussian is a federally registered
 trademark of Gaussian, Inc.
  
 This software contains proprietary and confidential information,
 including trade secrets, belonging to Gaussian, Inc.
  
 This software is provided under written license and may be
 used, copied, transmitted, or stored only in accord with that
 written license.
  
 The following legend is applicable only to US Government
 contracts under FAR:
  
                    RESTRICTED RIGHTS LEGEND
  
 Use, reproduction and disclosure by the US Government is
 subject to restrictions as set forth in subparagraphs (a)
 and (c) of the Commercial Computer Software - Restricted
 Rights clause in FAR 52.227-19.
  
 Gaussian, Inc.
 340 Quinnipiac St., Bldg. 40, Wallingford CT 06492
  
  
 ---------------------------------------------------------------
 Warning -- This program may not be used in any manner that
 competes with the business of Gaussian, Inc. or will provide
 assistance to any competitor of Gaussian, Inc.  The licensee
 of this program is prohibited from giving any competitor of
 Gaussian, Inc. access to this program.  By using this program,
 the user acknowledges that Gaussian, Inc. is engaged in the
 business of creating and licensing software in the field of
 computational chemistry and represents and warrants to the
 licensee that it is not a competitor of Gaussian, Inc. and that
 it will not use this program in any manner prohibited above.
 ---------------------------------------------------------------
  

 Cite this work as:
 Gaussian 16, Revision A.03,
 M. J. Frisch, G. W. Trucks, H. B. Schlegel, G. E. Scuseria, 
 M. A. Robb, J. R. Cheeseman, G. Scalmani, V. Barone, 
 G. A. Petersson, H. Nakatsuji, X. Li, M. Caricato, A. V. Marenich, 
 J. Bloino, B. G. Janesko, R. Gomperts, B. Mennucci, H. P. Hratchian, 
 J. V. Ortiz, A. F. Izmaylov, J. L. Sonnenberg, D. Williams-Young, 
 F. Ding, F. Lipparini, F. Egidi, J. Goings, B. Peng, A. Petrone, 
 T. Henderson, D. Ranasinghe, V. G. Zakrzewski, J. Gao, N. Rega, 
 G. Zheng, W. Liang, M. Hada, M. Ehara, K. Toyota, R. Fukuda, 
 J. Hasegawa, M. Ishida, T. Nakajima, Y. Honda, O. Kitao, H. Nakai, 
 T. Vreven, K. Throssell, J. A. Montgomery, Jr., J. E. Peralta, 
 F. Ogliaro, M. J. Bearpark, J. J. Heyd, E. N. Brothers, K. N. Kudin, 
 V. N. Staroverov, T. A. Keith, R. Kobayashi, J. Normand, 
 K. Raghavachari, A. P. Rendell, J. C. Burant, S. S. Iyengar, 
 J. Tomasi, M. Cossi, J. M. Millam, M. Klene, C. Adamo, R. Cammi, 
 J. W. Ochterski, R. L. Martin, K. Morokuma, O. Farkas, 
 J. B. Foresman, and D. J. Fox, Gaussian, Inc., Wallingford CT, 2016.
 
 ******************************************
 Gaussian 16:  ES64L-G16RevA.03 25-Dec-2016
                17-May-2023 
 ******************************************
 %chk=NN1NdCCdCCdCCdc2ccsc2dCC1dS.chk
 %NProcShared=20
 Will use up to   20 processors via shared memory.
 -----------------------------
 # opt freq b3lyp/6-31g(2df,p)
 -----------------------------
 1/18=20,19=15,26=3,38=1/1,3;
 2/9=110,12=2,17=6,18=5,40=1/2;
 3/5=1,6=6,7=104,11=2,25=1,30=1,71=1,74=-5/1,2,3;
 4//1;
 5/5=2,38=5/2;
 6/7=2,8=2,9=2,10=2,28=1/1;
 7//1,2,3,16;
 1/18=20,19=15,26=3/3(2);
 2/9=110/2;
 99//99;
 2/9=110/2;
 3/5=1,6=6,7=104,11=2,25=1,30=1,71=1,74=-5/1,2,3;
 4/5=5,16=3,69=1/1;
 5/5=2,38=5/2;
 7//1,2,3,16;
 1/18=20,19=15,26=3/3(-5);
 2/9=110/2;
 6/7=2,8=2,9=2,10=2,19=2,28=1/1;
 99/9=1/99;
 -------------------
 Title Card Required
 -------------------
 Symbolic Z-matrix:
 Charge =  0 Multiplicity = 1
 N                     2.39724   0.07598   0.14904 
 N                     4.3552    0.1843    0.02336 
 N                     3.41872   0.95567  -0.99396 
 C                     4.36039   1.41902  -1.55226 
 C                     5.01556   2.15303  -2.41479 
 C                     6.29049   2.04274  -2.27638 
 C                     6.9122    2.81612  -3.17492 
 C                     8.15552   2.86648  -3.23337 
 C                     9.08041   3.4741   -3.9433 
 C                     10.1375   2.98632  -3.36856 
 C                     11.29292   3.83832  -4.37002 
 C                     12.49422   3.49488  -3.95242 
 S                     11.92805   2.12022  -2.35987 
 C                     9.746     1.75313  -1.91688 
 C                     8.35275   0.96989  -0.97534 
 C                     6.33381   0.34108  -0.17834 
 S                     5.67612  -0.90793   1.14954 
 H                     1.59476   0.51309  -0.62118 
 H                     1.54512   0.28247   0.89068 
 H                     5.13206   0.99929  -1.12672 
 H                     4.41295   2.67222  -3.00815 
 H                     6.73843   1.43626  -1.57763 
 H                     6.45944   3.39878  -3.85704 
 H                     8.29432   2.22664  -2.47954 
 H                     8.89707   4.1486   -4.73231 
 H                     11.16775   4.61068  -5.27937 
 H                     13.50833   4.01025  -4.54545 
 H                     9.43148   0.62865  -0.63538 
 
 Add virtual bond connecting atoms H24        and C14        Dist= 3.08D+00.
 Add virtual bond connecting atoms H20        and C16        Dist= 3.15D+00.
 Add virtual bond connecting atoms H22        and C16        Dist= 3.44D+00.
 Add virtual bond connecting atoms C15        and C14        Dist= 3.51D+00.
 Add virtual bond connecting atoms C15        and H22        Dist= 3.37D+00.
 Add virtual bond connecting atoms H28        and C14        Dist= 3.28D+00.
 Add virtual bond connecting atoms N3         and N1         Dist= 3.34D+00.
 Add virtual bond connecting atoms N3         and H18        Dist= 3.62D+00.

 GradGradGradGradGradGradGradGradGradGradGradGradGradGradGradGradGradGrad
 Berny optimization.
 Initialization pass.
                           ----------------------------
                           !    Initial Parameters    !
                           ! (Angstroms and Degrees)  !
 --------------------------                            --------------------------
 ! Name  Definition              Value          Derivative Info.                !
 --------------------------------------------------------------------------------
 ! R1    R(1,3)                  1.7674         estimate D2E/DX2                !
 ! R2    R(1,18)                 1.1951         estimate D2E/DX2                !
 ! R3    R(1,19)                 1.1484         estimate D2E/DX2                !
 ! R4    R(2,3)                  1.5833         estimate D2E/DX2                !
 ! R5    R(3,4)                  1.1888         estimate D2E/DX2                !
 ! R6    R(3,18)                 1.9135         estimate D2E/DX2                !
 ! R7    R(4,5)                  1.3084         estimate D2E/DX2                !
 ! R8    R(4,20)                 0.9761         estimate D2E/DX2                !
 ! R9    R(5,6)                  1.2872         estimate D2E/DX2                !
 ! R10   R(5,21)                 0.9924         estimate D2E/DX2                !
 ! R11   R(6,7)                  1.3387         estimate D2E/DX2                !
 ! R12   R(6,22)                 1.028          estimate D2E/DX2                !
 ! R13   R(7,8)                  1.2457         estimate D2E/DX2                !
 ! R14   R(7,23)                 1.0049         estimate D2E/DX2                !
 ! R15   R(8,9)                  1.3148         estimate D2E/DX2                !
 ! R16   R(8,24)                 0.9985         estimate D2E/DX2                !
 ! R17   R(9,10)                 1.2983         estimate D2E/DX2                !
 ! R18   R(9,25)                 1.0541         estimate D2E/DX2                !
 ! R19   R(10,11)                1.7504         estimate D2E/DX2                !
 ! R20   R(11,12)                1.3174         estimate D2E/DX2                !
 ! R21   R(11,26)                1.1996         estimate D2E/DX2                !
 ! R22   R(12,13)                2.1786         estimate D2E/DX2                !
 ! R23   R(12,27)                1.2829         estimate D2E/DX2                !
 ! R24   R(14,15)                1.855          estimate D2E/DX2                !
 ! R25   R(14,24)                1.6273         estimate D2E/DX2                !
 ! R26   R(14,28)                1.7337         estimate D2E/DX2                !
 ! R27   R(15,22)                1.785          estimate D2E/DX2                !
 ! R28   R(15,28)                1.1814         estimate D2E/DX2                !
 ! R29   R(16,17)                1.938          estimate D2E/DX2                !
 ! R30   R(16,20)                1.6664         estimate D2E/DX2                !
 ! R31   R(16,22)                1.8224         estimate D2E/DX2                !
 ! A1    A(3,1,19)             139.2014         estimate D2E/DX2                !
 ! A2    A(18,1,19)             81.5007         estimate D2E/DX2                !
 ! A3    A(1,3,2)               71.5686         estimate D2E/DX2                !
 ! A4    A(1,3,4)              162.8544         estimate D2E/DX2                !
 ! A5    A(2,3,4)               91.3252         estimate D2E/DX2                !
 ! A6    A(2,3,18)             109.0214         estimate D2E/DX2                !
 ! A7    A(4,3,18)             159.5055         estimate D2E/DX2                !
 ! A8    A(3,4,5)              157.6555         estimate D2E/DX2                !
 ! A9    A(3,4,20)             104.708          estimate D2E/DX2                !
 ! A10   A(5,4,20)              97.6291         estimate D2E/DX2                !
 ! A11   A(4,5,6)              112.1493         estimate D2E/DX2                !
 ! A12   A(4,5,21)             112.5565         estimate D2E/DX2                !
 ! A13   A(6,5,21)             135.2845         estimate D2E/DX2                !
 ! A14   A(5,6,7)              109.7755         estimate D2E/DX2                !
 ! A15   A(5,6,22)             123.7286         estimate D2E/DX2                !
 ! A16   A(7,6,22)             126.4932         estimate D2E/DX2                !
 ! A17   A(6,7,8)              121.224          estimate D2E/DX2                !
 ! A18   A(6,7,23)             125.5466         estimate D2E/DX2                !
 ! A19   A(8,7,23)             113.229          estimate D2E/DX2                !
 ! A20   A(7,8,9)              138.2562         estimate D2E/DX2                !
 ! A21   A(7,8,24)              94.44           estimate D2E/DX2                !
 ! A22   A(9,8,24)             127.3034         estimate D2E/DX2                !
 ! A23   A(8,9,10)              99.2123         estimate D2E/DX2                !
 ! A24   A(8,9,25)             125.2781         estimate D2E/DX2                !
 ! A25   A(10,9,25)            135.5095         estimate D2E/DX2                !
 ! A26   A(9,10,11)             95.8141         estimate D2E/DX2                !
 ! A27   A(10,11,12)           107.0782         estimate D2E/DX2                !
 ! A28   A(10,11,26)           132.7035         estimate D2E/DX2                !
 ! A29   A(12,11,26)           120.2175         estimate D2E/DX2                !
 ! A30   A(11,12,13)            99.1626         estimate D2E/DX2                !
 ! A31   A(11,12,27)           118.0077         estimate D2E/DX2                !
 ! A32   A(13,12,27)           142.8289         estimate D2E/DX2                !
 ! A33   A(15,14,24)            68.1824         estimate D2E/DX2                !
 ! A34   A(24,14,28)           106.4077         estimate D2E/DX2                !
 ! A35   A(14,15,22)           113.4328         estimate D2E/DX2                !
 ! A36   A(17,16,20)           113.5642         estimate D2E/DX2                !
 ! A37   A(20,16,22)            59.0533         estimate D2E/DX2                !
 ! A38   A(6,22,15)            141.0395         estimate D2E/DX2                !
 ! A39   A(6,22,16)            141.2353         estimate D2E/DX2                !
 ! A40   A(15,22,16)            77.5673         estimate D2E/DX2                !
 ! A41   A(8,24,14)            124.8563         estimate D2E/DX2                !
 ! A42   L(22,15,28,9,-1)      178.7347         estimate D2E/DX2                !
 ! A43   L(17,16,22,20,-1)     172.6175         estimate D2E/DX2                !
 ! A44   L(4,20,16,2,-1)       173.5058         estimate D2E/DX2                !
 ! A45   L(22,15,28,9,-2)      183.1331         estimate D2E/DX2                !
 ! A46   L(17,16,22,20,-2)     184.9715         estimate D2E/DX2                !
 ! A47   L(4,20,16,2,-2)       186.1344         estimate D2E/DX2                !
 ! D1    D(19,1,3,2)           124.4738         estimate D2E/DX2                !
 ! D2    D(19,1,3,4)           120.4583         estimate D2E/DX2                !
 ! D3    D(3,1,18,19)         -144.6094         estimate D2E/DX2                !
 ! D4    D(1,3,4,5)           -172.5472         estimate D2E/DX2                !
 ! D5    D(1,3,4,20)             8.9521         estimate D2E/DX2                !
 ! D6    D(2,3,4,5)           -176.3574         estimate D2E/DX2                !
 ! D7    D(2,3,4,20)             5.1419         estimate D2E/DX2                !
 ! D8    D(18,3,4,5)            10.4109         estimate D2E/DX2                !
 ! D9    D(18,3,4,20)         -168.0899         estimate D2E/DX2                !
 ! D10   D(3,4,5,6)            178.59           estimate D2E/DX2                !
 ! D11   D(3,4,5,21)            -0.4575         estimate D2E/DX2                !
 ! D12   D(20,4,5,6)            -2.8731         estimate D2E/DX2                !
 ! D13   D(20,4,5,21)          178.0795         estimate D2E/DX2                !
 ! D14   D(3,4,16,17)            4.2093         estimate D2E/DX2                !
 ! D15   D(3,4,16,22)          178.947          estimate D2E/DX2                !
 ! D16   D(5,4,16,17)         -176.8269         estimate D2E/DX2                !
 ! D17   D(5,4,16,22)           -2.0893         estimate D2E/DX2                !
 ! D18   D(4,5,6,7)           -179.6857         estimate D2E/DX2                !
 ! D19   D(4,5,6,22)             0.8778         estimate D2E/DX2                !
 ! D20   D(21,5,6,7)            -0.936          estimate D2E/DX2                !
 ! D21   D(21,5,6,22)          179.6275         estimate D2E/DX2                !
 ! D22   D(5,6,7,8)           -179.6852         estimate D2E/DX2                !
 ! D23   D(5,6,7,23)             0.0808         estimate D2E/DX2                !
 ! D24   D(22,6,7,8)            -0.268          estimate D2E/DX2                !
 ! D25   D(22,6,7,23)          179.4979         estimate D2E/DX2                !
 ! D26   D(5,6,22,15)         -178.2235         estimate D2E/DX2                !
 ! D27   D(5,6,22,16)           -4.9279         estimate D2E/DX2                !
 ! D28   D(7,6,22,15)            2.436          estimate D2E/DX2                !
 ! D29   D(7,6,22,16)          175.7316         estimate D2E/DX2                !
 ! D30   D(6,7,8,9)            179.8293         estimate D2E/DX2                !
 ! D31   D(6,7,8,24)            -0.3908         estimate D2E/DX2                !
 ! D32   D(23,7,8,9)             0.0365         estimate D2E/DX2                !
 ! D33   D(23,7,8,24)          179.8164         estimate D2E/DX2                !
 ! D34   D(7,8,9,10)           179.8771         estimate D2E/DX2                !
 ! D35   D(7,8,9,25)            -0.0232         estimate D2E/DX2                !
 ! D36   D(24,8,9,10)            0.1531         estimate D2E/DX2                !
 ! D37   D(24,8,9,25)         -179.7472         estimate D2E/DX2                !
 ! D38   D(7,8,24,14)         -179.8933         estimate D2E/DX2                !
 ! D39   D(9,8,24,14)           -0.0775         estimate D2E/DX2                !
 ! D40   D(8,9,10,11)          179.88           estimate D2E/DX2                !
 ! D41   D(25,9,10,11)          -0.2362         estimate D2E/DX2                !
 ! D42   D(9,10,11,12)         179.6298         estimate D2E/DX2                !
 ! D43   D(9,10,11,26)          -0.0232         estimate D2E/DX2                !
 ! D44   D(10,11,12,13)          0.5852         estimate D2E/DX2                !
 ! D45   D(10,11,12,27)       -179.6702         estimate D2E/DX2                !
 ! D46   D(26,11,12,13)       -179.7099         estimate D2E/DX2                !
 ! D47   D(26,11,12,27)          0.0347         estimate D2E/DX2                !
 ! D48   D(24,14,15,22)          1.091          estimate D2E/DX2                !
 ! D49   D(15,14,24,8)         179.4763         estimate D2E/DX2                !
 ! D50   D(28,14,24,8)        -179.0783         estimate D2E/DX2                !
 ! D51   D(14,15,22,6)          -3.1477         estimate D2E/DX2                !
 ! D52   D(14,15,22,16)       -178.8549         estimate D2E/DX2                !
 ! D53   D(20,16,22,6)           6.8357         estimate D2E/DX2                !
 ! D54   D(20,16,22,15)       -177.4754         estimate D2E/DX2                !
 --------------------------------------------------------------------------------
 Trust Radius=3.00D-01 FncErr=1.00D-07 GrdErr=1.00D-06 EigMax=2.50D+02 EigMin=1.00D-04
 Number of steps in this run=    142 maximum allowed number of steps=    168.
 GradGradGradGradGradGradGradGradGradGradGradGradGradGradGradGradGradGrad

                          Input orientation:                          
 ---------------------------------------------------------------------
 Center     Atomic      Atomic             Coordinates (Angstroms)
 Number     Number       Type             X           Y           Z
 ---------------------------------------------------------------------
      1          7           0        2.397240    0.075980    0.149040
      2          7           0        4.355200    0.184300    0.023360
      3          7           0        3.418720    0.955670   -0.993960
      4          6           0        4.360390    1.419020   -1.552260
      5          6           0        5.015560    2.153030   -2.414790
      6          6           0        6.290490    2.042740   -2.276380
      7          6           0        6.912200    2.816120   -3.174920
      8          6           0        8.155520    2.866480   -3.233370
      9          6           0        9.080410    3.474100   -3.943300
     10          6           0       10.137500    2.986320   -3.368560
     11          6           0       11.292920    3.838320   -4.370020
     12          6           0       12.494220    3.494880   -3.952420
     13         16           0       11.928050    2.120220   -2.359870
     14          6           0        9.746000    1.753130   -1.916880
     15          6           0        8.352750    0.969890   -0.975340
     16          6           0        6.333810    0.341080   -0.178340
     17         16           0        5.676120   -0.907930    1.149540
     18          1           0        1.594760    0.513090   -0.621180
     19          1           0        1.545120    0.282470    0.890680
     20          1           0        5.132060    0.999290   -1.126720
     21          1           0        4.412950    2.672220   -3.008150
     22          1           0        6.738430    1.436260   -1.577630
     23          1           0        6.459440    3.398780   -3.857040
     24          1           0        8.294320    2.226640   -2.479540
     25          1           0        8.897070    4.148600   -4.732310
     26          1           0       11.167750    4.610680   -5.279370
     27          1           0       13.508330    4.010250   -4.545450
     28          1           0        9.431480    0.628650   -0.635380
 ---------------------------------------------------------------------
                    Distance matrix (angstroms):
                    1          2          3          4          5
     1  N    0.000000
     2  N    1.964977   0.000000
     3  N    1.767406   1.583334   0.000000
     4  C    2.924404   2.001784   1.188753   0.000000
     5  C    4.212239   3.202585   2.449965   1.308425   0.000000
     6  C    4.990812   3.533829   3.327670   2.153755   1.287155
     7  C    6.240348   4.867620   4.519100   3.331163   2.148192
     8  C    7.237774   5.678275   5.577045   4.395939   3.322414
     9  C    8.541617   6.991766   6.862640   5.676180   4.539226
    10  C    8.986390   7.265771   7.409742   6.255428   5.276203
    11  C   10.663500   8.988081   9.039385   7.864652   6.787369
    12  C   11.421902   9.644191   9.877488   8.730931   7.752111
    13  S   10.065281   8.171636   8.696585   7.642866   6.912786
    14  C    7.815698   5.940243   6.443772   5.408269   4.773353
    15  C    6.126288   4.194635   4.934086   4.058755   3.822129
    16  C    3.959045   1.995034   3.088803   2.635147   3.165858
    17  S    3.566530   2.050872   3.628147   3.800732   4.744498
    18  H    1.195106   2.853693   1.913550   3.055541   4.196226
    19  H    1.148380   2.942521   2.741431   3.896851   5.144811
    20  H    3.155837   1.609473   1.719029   0.976080   1.733151
    21  H    4.557565   3.922134   2.827012   1.921689   0.992357
    22  H    4.865972   3.132149   3.404719   2.378238   2.045208
    23  H    6.602359   5.460605   4.838594   3.692895   2.390976
    24  H    6.805169   5.094343   5.252979   4.121638   3.280225
    25  H    9.091843   7.678584   7.360868   6.176147   4.941591
    26  H   11.267342   9.701681   9.579734   8.391555   7.217708
    27  H   12.687515  10.922074  11.124018   9.967872   8.950761
    28  H    7.099387   5.138093   6.032313   5.213570   4.999038
                    6          7          8          9         10
     6  C    0.000000
     7  C    1.338661   0.000000
     8  C    2.252269   1.245712   0.000000
     9  C    3.551206   2.392589   1.314772   0.000000
    10  C    4.108855   3.235587   1.990197   1.298343   0.000000
    11  C    5.712420   4.654446   3.475590   2.282531   1.750378
    12  C    6.588178   5.676634   4.442548   3.413885   2.480656
    13  S    5.638711   5.129068   3.943588   3.528356   2.230169
    14  C    3.486210   3.277657   2.345703   2.740643   1.944583
    15  C    2.663950   3.212772   2.955445   3.950866   3.602614
    16  C    2.701721   3.929357   4.362279   5.615563   5.625198
    17  S    4.562985   5.839298   6.293131   7.531826   7.448646
    18  H    5.208589   6.332512   7.443491   8.708560   9.308242
    19  H    5.970541   7.194028   8.208671   9.504444   9.963981
    20  H    1.937128   3.265715   4.131063   5.444931   5.833401
    21  H    2.111134   2.508938   3.754370   4.827287   5.744478
    22  H    1.027969   2.117911   2.606751   3.903083   4.142921
    23  H    2.089468   1.004874   1.883878   2.623471   3.733211
    24  H    2.022481   1.655686   0.998459   2.077664   2.182838
    25  H    4.154576   2.853187   2.107261   1.054088   2.179306
    26  H    6.276936   5.075319   4.037559   2.726515   2.711301
    27  H    7.817736   6.842019   5.628707   4.500724   3.714296
    28  H    3.815541   4.192977   3.658621   4.377462   3.677954
                   11         12         13         14         15
    11  C    0.000000
    12  C    1.317370   0.000000
    13  S    2.719552   2.178636   0.000000
    14  C    3.571957   3.837946   2.256621   0.000000
    15  C    5.328822   5.691252   4.002868   1.855022   0.000000
    16  C    7.375204   7.882943   6.262582   4.081599   2.259807
    17  S    9.194611   9.586512   7.782820   5.748747   3.899445
    18  H   10.916284  11.780767  10.601075   8.346212   6.782664
    19  H   11.633514  12.395886  11.033976   8.792023   7.092137
    20  H    7.518995   8.271273   6.997330   4.741421   3.224380
    21  H    7.109744   8.177734   7.563180   5.520600   4.748923
    22  H    5.857535   6.557947   5.292623   3.043185   1.785016
    23  H    4.880458   6.036299   5.812222   4.156184   4.217621
    24  H    3.893973   4.627847   3.637257   1.627321   1.960982
    25  H    2.442872   3.738324   4.350820   3.792836   4.951293
    26  H    1.199635   2.182963   3.912023   4.636087   6.301131
    27  H    2.228986   1.282852   3.293366   5.114597   6.969181
    28  H    5.264454   5.347748   3.381051   1.733673   1.181387
                   16         17         18         19         20
    16  C    0.000000
    17  S    1.938001   0.000000
    18  H    4.762803   4.670358   0.000000
    19  H    4.906913   4.306881   1.530154   0.000000
    20  H    1.666394   3.019081   3.606169   4.177304   0.000000
    21  H    4.139051   5.630227   4.278044   5.397799   2.618319
    22  H    1.822402   3.749825   5.312662   5.864661   1.724728
    23  H    4.785201   6.650352   6.516372   7.510178   3.869643
    24  H    3.562928   5.463581   7.160577   7.790371   3.651903
    25  H    6.465768   8.398760   9.134662  10.030760   6.090462
    26  H    8.222954  10.096729  11.407503  12.222844   8.167998
    27  H    9.165598  10.861166  13.021642  13.658926   9.534962
    28  H    3.144383   4.432803   7.837585   8.040110   4.343248
                   21         22         23         24         25
    21  H    0.000000
    22  H    2.996972   0.000000
    23  H    2.331657   3.020766   0.000000
    24  H    3.942462   1.964417   2.576471   0.000000
    25  H    5.025909   4.687059   2.696362   3.021955   0.000000
    26  H    7.385350   6.587769   5.065561   4.666829   2.380920
    27  H    9.320920   7.827191   7.108773   5.885163   4.617118
    28  H    5.915392   2.965230   5.185146   2.692142   5.427751
                   26         27         28
    26  H    0.000000
    27  H    2.525365   0.000000
    28  H    6.359075   6.583659   0.000000
 Stoichiometry    C12H11N3S2
 Framework group  C1[X(C12H11N3S2)]
 Deg. of freedom    78
 Full point group                 C1      NOp   1
 Largest Abelian subgroup         C1      NOp   1
 Largest concise Abelian subgroup C1      NOp   1
                         Standard orientation:                         
 ---------------------------------------------------------------------
 Center     Atomic      Atomic             Coordinates (Angstroms)
 Number     Number       Type             X           Y           Z
 ---------------------------------------------------------------------
      1          7           0        5.633978   -0.558310    0.036252
      2          7           0        3.877617    0.322734    0.045915
      3          7           0        4.010280   -1.253159   -0.030937
      4          6           0        2.828328   -1.380026   -0.036159
      5          6           0        1.678117   -2.003715   -0.033961
      6          6           0        0.683278   -1.187058   -0.022456
      7          6           0       -0.466023   -1.873386   -0.013796
      8          6           0       -1.566596   -1.289862   -0.007831
      9          6           0       -2.843337   -1.603738   -0.001660
     10          6           0       -3.351113   -0.408824    0.004539
     11          6           0       -5.023121   -0.926699    0.008668
     12          6           0       -5.765202    0.161676    0.023458
     13         16           0       -4.183751    1.660079    0.007497
     14          6           0       -2.022472    1.011076    0.005671
     15          6           0       -0.194705    1.327788    0.013955
     16          6           0        2.056966    1.138444    0.043250
     17         16           0        3.568405    2.347933   -0.049138
     18          1           0        5.863456   -1.718731   -0.134161
     19          1           0        6.587946   -0.637620    0.670627
     20          1           0        2.481423   -0.468552   -0.076203
     21          1           0        1.780325   -2.990766   -0.026303
     22          1           0        0.784438   -0.164099   -0.028891
     23          1           0       -0.548422   -2.874876   -0.014727
     24          1           0       -1.168572   -0.374170   -0.005313
     25          1           0       -3.229089   -2.584705   -0.000813
     26          1           0       -5.539476   -2.009517    0.006212
     27          1           0       -7.040291    0.021285    0.035628
     28          1           0       -0.864054    2.300651   -0.020482
 ---------------------------------------------------------------------
 Rotational constants (GHZ):           0.8833389           0.1564125           0.1329311
 Standard basis: 6-31G(2df,p) (6D, 7F)
 There are   590 symmetry adapted cartesian basis functions of A   symmetry.
 There are   539 symmetry adapted basis functions of A   symmetry.
   539 basis functions,   873 primitive gaussians,   590 cartesian basis functions
    68 alpha electrons       68 beta electrons
       nuclear repulsion energy      1243.6626440790 Hartrees.
 NAtoms=   28 NActive=   28 NUniq=   28 SFac= 1.00D+00 NAtFMM=   60 NAOKFM=F Big=F
 Integral buffers will be    131072 words long.
 Raffenetti 2 integral format.
 Two-electron integral symmetry is turned on.
 One-electron integrals computed using PRISM.
 PrsmSu:  requested number of processors reduced to:  12 ShMem   1 Linda.
 NBasis=   539 RedAO= T EigKep=  7.24D-05  NBF=   539
 NBsUse=   539 1.00D-06 EigRej= -1.00D+00 NBFU=   539
 ExpMin= 1.17D-01 ExpMax= 2.19D+04 ExpMxC= 3.30D+03 IAcc=3 IRadAn=         5 AccDes= 0.00D+00
 Harris functional with IExCor=  402 and IRadAn=       5 diagonalized for initial guess.
 HarFok:  IExCor=  402 AccDes= 0.00D+00 IRadAn=         5 IDoV= 1 UseB2=F ITyADJ=14
 ICtDFT=  3500011 ScaDFX=  1.000000  1.000000  1.000000  1.000000
 FoFCou: FMM=F IPFlag=           0 FMFlag=      100000 FMFlg1=           0
         NFxFlg=           0 DoJE=T BraDBF=F KetDBF=T FulRan=T
         wScrn=  0.000000 ICntrl=       500 IOpCl=  0 I1Cent=   200000004 NGrid=           0
         NMat0=    1 NMatS0=      1 NMatT0=    0 NMatD0=    1 NMtDS0=    0 NMtDT0=    0
 Petite list used in FoFCou.
 Requested convergence on RMS density matrix=1.00D-08 within 128 cycles.
 Requested convergence on MAX density matrix=1.00D-06.
 Requested convergence on             energy=1.00D-06.
 No special actions if energy rises.
 Integral accuracy reduced to 1.0D-05 until final iterations.
 EnCoef did     5 forward-backward iterations
 EnCoef did   100 forward-backward iterations
 EnCoef did    10 forward-backward iterations
 EnCoef did   100 forward-backward iterations
 EnCoef did     4 forward-backward iterations
 EnCoef did     1 forward-backward iterations
 EnCoef did     3 forward-backward iterations
 EnCoef did     3 forward-backward iterations
 EnCoef did     3 forward-backward iterations
 Initial convergence to 1.0D-05 achieved.  Increase integral accuracy.
 SCF Done:  E(RB3LYP) =  -1422.96908863     A.U. after   38 cycles
            NFock= 38  Conv=0.86D-08     -V/T= 2.0032

 **********************************************************************

            Population analysis using the SCF density.

 **********************************************************************

 Orbital symmetries:
       Occupied  (A) (A) (A) (A) (A) (A) (A) (A) (A) (A) (A) (A)
                 (A) (A) (A) (A) (A) (A) (A) (A) (A) (A) (A) (A)
                 (A) (A) (A) (A) (A) (A) (A) (A) (A) (A) (A) (A)
                 (A) (A) (A) (A) (A) (A) (A) (A) (A) (A) (A) (A)
                 (A) (A) (A) (A) (A) (A) (A) (A) (A) (A) (A) (A)
                 (A) (A) (A) (A) (A) (A) (A) (A)
       Virtual   (A) (A) (A) (A) (A) (A) (A) (A) (A) (A) (A) (A)
                 (A) (A) (A) (A) (A) (A) (A) (A) (A) (A) (A) (A)
                 (A) (A) (A) (A) (A) (A) (A) (A) (A) (A) (A) (A)
                 (A) (A) (A) (A) (A) (A) (A) (A) (A) (A) (A) (A)
                 (A) (A) (A) (A) (A) (A) (A) (A) (A) (A) (A) (A)
                 (A) (A) (A) (A) (A) (A) (A) (A) (A) (A) (A) (A)
                 (A) (A) (A) (A) (A) (A) (A) (A) (A) (A) (A) (A)
                 (A) (A) (A) (A) (A) (A) (A) (A) (A) (A) (A) (A)
                 (A) (A) (A) (A) (A) (A) (A) (A) (A) (A) (A) (A)
                 (A) (A) (A) (A) (A) (A) (A) (A) (A) (A) (A) (A)
                 (A) (A) (A) (A) (A) (A) (A) (A) (A) (A) (A) (A)
                 (A) (A) (A) (A) (A) (A) (A) (A) (A) (A) (A) (A)
                 (A) (A) (A) (A) (A) (A) (A) (A) (A) (A) (A) (A)
                 (A) (A) (A) (A) (A) (A) (A) (A) (A) (A) (A) (A)
                 (A) (A) (A) (A) (A) (A) (A) (A) (A) (A) (A) (A)
                 (A) (A) (A) (A) (A) (A) (A) (A) (A) (A) (A) (A)
                 (A) (A) (A) (A) (A) (A) (A) (A) (A) (A) (A) (A)
                 (A) (A) (A) (A) (A) (A) (A) (A) (A) (A) (A) (A)
                 (A) (A) (A) (A) (A) (A) (A) (A) (A) (A) (A) (A)
                 (A) (A) (A) (A) (A) (A) (A) (A) (A) (A) (A) (A)
                 (A) (A) (A) (A) (A) (A) (A) (A) (A) (A) (A) (A)
                 (A) (A) (A) (A) (A) (A) (A) (A) (A) (A) (A) (A)
                 (A) (A) (A) (A) (A) (A) (A) (A) (A) (A) (A) (A)
                 (A) (A) (A) (A) (A) (A) (A) (A) (A) (A) (A) (A)
                 (A) (A) (A) (A) (A) (A) (A) (A) (A) (A) (A) (A)
                 (A) (A) (A) (A) (A) (A) (A) (A) (A) (A) (A) (A)
                 (A) (A) (A) (A) (A) (A) (A) (A) (A) (A) (A) (A)
                 (A) (A) (A) (A) (A) (A) (A) (A) (A) (A) (A) (A)
                 (A) (A) (A) (A) (A) (A) (A) (A) (A) (A) (A) (A)
                 (A) (A) (A) (A) (A) (A) (A) (A) (A) (A) (A) (A)
                 (A) (A) (A) (A) (A) (A) (A) (A) (A) (A) (A) (A)
                 (A) (A) (A) (A) (A) (A) (A) (A) (A) (A) (A) (A)
                 (A) (A) (A) (A) (A) (A) (A) (A) (A) (A) (A) (A)
                 (A) (A) (A) (A) (A) (A) (A) (A) (A) (A) (A) (A)
                 (A) (A) (A) (A) (A) (A) (A) (A) (A) (A) (A) (A)
                 (A) (A) (A) (A) (A) (A) (A) (A) (A) (A) (A) (A)
                 (A) (A) (A) (A) (A) (A) (A) (A) (A) (A) (A) (A)
                 (A) (A) (A) (A) (A) (A) (A) (A) (A) (A) (A) (A)
                 (A) (A) (A) (A) (A) (A) (A) (A) (A) (A) (A) (A)
                 (A) (A) (A)
 The electronic state is 1-A.
 Alpha  occ. eigenvalues --  -88.92889 -88.90384 -14.42652 -14.42315 -14.41827
 Alpha  occ. eigenvalues --  -10.32560 -10.29131 -10.23805 -10.22445 -10.22088
 Alpha  occ. eigenvalues --  -10.22020 -10.21200 -10.18626 -10.18433 -10.17682
 Alpha  occ. eigenvalues --  -10.14864 -10.14602  -7.98779  -7.95966  -5.95148
 Alpha  occ. eigenvalues --   -5.94930  -5.94457  -5.92397  -5.92257  -5.91466
 Alpha  occ. eigenvalues --   -1.04303  -0.90212  -0.87282  -0.84586  -0.81814
 Alpha  occ. eigenvalues --   -0.79738  -0.75783  -0.70229  -0.69764  -0.66887
 Alpha  occ. eigenvalues --   -0.66083  -0.63763  -0.59165  -0.57517  -0.55221
 Alpha  occ. eigenvalues --   -0.54636  -0.52828  -0.49478  -0.47688  -0.46599
 Alpha  occ. eigenvalues --   -0.46023  -0.45566  -0.44603  -0.42687  -0.40828
 Alpha  occ. eigenvalues --   -0.39228  -0.38401  -0.35469  -0.34899  -0.34258
 Alpha  occ. eigenvalues --   -0.32757  -0.32382  -0.32254  -0.29218  -0.28208
 Alpha  occ. eigenvalues --   -0.26453  -0.25489  -0.24422  -0.24144  -0.23420
 Alpha  occ. eigenvalues --   -0.20924  -0.20102  -0.18805
 Alpha virt. eigenvalues --   -0.16228  -0.15180  -0.13178  -0.12750  -0.07158
 Alpha virt. eigenvalues --   -0.05471  -0.04499  -0.01446  -0.00689   0.00956
 Alpha virt. eigenvalues --    0.01435   0.03673   0.04799   0.06311   0.07485
 Alpha virt. eigenvalues --    0.08540   0.09095   0.10148   0.11351   0.12509
 Alpha virt. eigenvalues --    0.14325   0.15675   0.16238   0.17362   0.20265
 Alpha virt. eigenvalues --    0.23687   0.25112   0.25301   0.27439   0.27858
 Alpha virt. eigenvalues --    0.29906   0.30895   0.31966   0.32960   0.34050
 Alpha virt. eigenvalues --    0.35161   0.35534   0.36705   0.37854   0.38118
 Alpha virt. eigenvalues --    0.38436   0.39690   0.40151   0.41246   0.41426
 Alpha virt. eigenvalues --    0.41780   0.42683   0.44062   0.45374   0.46357
 Alpha virt. eigenvalues --    0.47355   0.48091   0.49329   0.49943   0.50683
 Alpha virt. eigenvalues --    0.51953   0.52317   0.53548   0.53928   0.54077
 Alpha virt. eigenvalues --    0.54812   0.56130   0.56503   0.57506   0.57994
 Alpha virt. eigenvalues --    0.59507   0.59878   0.60470   0.60692   0.60790
 Alpha virt. eigenvalues --    0.61055   0.61161   0.62190   0.63602   0.64381
 Alpha virt. eigenvalues --    0.64788   0.65377   0.66965   0.68268   0.68745
 Alpha virt. eigenvalues --    0.68882   0.69615   0.70249   0.70995   0.71597
 Alpha virt. eigenvalues --    0.72308   0.73013   0.74323   0.74910   0.75610
 Alpha virt. eigenvalues --    0.76507   0.76925   0.77904   0.78287   0.79123
 Alpha virt. eigenvalues --    0.79764   0.80830   0.81959   0.82861   0.83475
 Alpha virt. eigenvalues --    0.84121   0.85346   0.86038   0.87777   0.88157
 Alpha virt. eigenvalues --    0.88832   0.89121   0.89560   0.91011   0.92799
 Alpha virt. eigenvalues --    0.93566   0.94526   0.95567   0.96734   0.96822
 Alpha virt. eigenvalues --    0.97601   0.98333   0.99019   1.00110   1.00706
 Alpha virt. eigenvalues --    1.00795   1.02893   1.04817   1.05265   1.06312
 Alpha virt. eigenvalues --    1.08233   1.08654   1.10197   1.10912   1.11455
 Alpha virt. eigenvalues --    1.12962   1.13927   1.14228   1.16226   1.16901
 Alpha virt. eigenvalues --    1.18627   1.19429   1.20347   1.21790   1.22705
 Alpha virt. eigenvalues --    1.23977   1.24448   1.25654   1.27755   1.28710
 Alpha virt. eigenvalues --    1.31224   1.32883   1.33544   1.34683   1.35850
 Alpha virt. eigenvalues --    1.36468   1.37053   1.39072   1.39641   1.40201
 Alpha virt. eigenvalues --    1.41136   1.41940   1.43494   1.44051   1.44317
 Alpha virt. eigenvalues --    1.45595   1.46709   1.48019   1.50002   1.52083
 Alpha virt. eigenvalues --    1.53109   1.53937   1.55582   1.56837   1.57172
 Alpha virt. eigenvalues --    1.57980   1.58429   1.60803   1.61365   1.62081
 Alpha virt. eigenvalues --    1.62950   1.63998   1.66239   1.66464   1.67131
 Alpha virt. eigenvalues --    1.67379   1.69774   1.70463   1.71422   1.73134
 Alpha virt. eigenvalues --    1.73376   1.74412   1.75844   1.76515   1.78739
 Alpha virt. eigenvalues --    1.79586   1.79989   1.80708   1.83546   1.84491
 Alpha virt. eigenvalues --    1.87215   1.88451   1.89150   1.89829   1.92667
 Alpha virt. eigenvalues --    1.94340   1.95505   1.98780   2.00388   2.01382
 Alpha virt. eigenvalues --    2.05067   2.06328   2.06913   2.09573   2.12387
 Alpha virt. eigenvalues --    2.13748   2.14455   2.15640   2.16273   2.16701
 Alpha virt. eigenvalues --    2.17752   2.18904   2.19302   2.22591   2.22838
 Alpha virt. eigenvalues --    2.23824   2.24516   2.24604   2.27434   2.29300
 Alpha virt. eigenvalues --    2.29766   2.31722   2.33152   2.35734   2.36911
 Alpha virt. eigenvalues --    2.37108   2.38493   2.39676   2.42205   2.43718
 Alpha virt. eigenvalues --    2.46280   2.47009   2.47753   2.51724   2.53879
 Alpha virt. eigenvalues --    2.54391   2.55936   2.57010   2.57439   2.58988
 Alpha virt. eigenvalues --    2.61091   2.62689   2.64480   2.66148   2.67114
 Alpha virt. eigenvalues --    2.68517   2.69555   2.72462   2.74536   2.75890
 Alpha virt. eigenvalues --    2.77433   2.77621   2.79128   2.80234   2.81657
 Alpha virt. eigenvalues --    2.82030   2.84550   2.86141   2.87796   2.88278
 Alpha virt. eigenvalues --    2.90517   2.90888   2.91996   2.93580   2.94580
 Alpha virt. eigenvalues --    2.96242   2.97075   2.98062   2.98769   3.00585
 Alpha virt. eigenvalues --    3.03160   3.04130   3.04877   3.06560   3.07397
 Alpha virt. eigenvalues --    3.09172   3.09751   3.10326   3.10949   3.11636
 Alpha virt. eigenvalues --    3.14101   3.15490   3.15951   3.17218   3.19623
 Alpha virt. eigenvalues --    3.20190   3.21103   3.22132   3.24506   3.25397
 Alpha virt. eigenvalues --    3.25743   3.28973   3.29709   3.30756   3.30976
 Alpha virt. eigenvalues --    3.32145   3.33101   3.34803   3.35486   3.37837
 Alpha virt. eigenvalues --    3.39440   3.39696   3.42563   3.43315   3.45978
 Alpha virt. eigenvalues --    3.47677   3.48738   3.49373   3.49923   3.51459
 Alpha virt. eigenvalues --    3.51766   3.53077   3.53488   3.53534   3.56416
 Alpha virt. eigenvalues --    3.57727   3.59086   3.60695   3.61630   3.62881
 Alpha virt. eigenvalues --    3.63630   3.64992   3.65907   3.67001   3.69787
 Alpha virt. eigenvalues --    3.70246   3.71973   3.72846   3.74907   3.76214
 Alpha virt. eigenvalues --    3.77588   3.78186   3.79341   3.81624   3.83228
 Alpha virt. eigenvalues --    3.84324   3.85832   3.86586   3.87788   3.91550
 Alpha virt. eigenvalues --    3.92555   3.95271   3.95554   3.97983   3.99584
 Alpha virt. eigenvalues --    4.00597   4.03135   4.05990   4.06894   4.07544
 Alpha virt. eigenvalues --    4.09837   4.11687   4.12669   4.15122   4.16696
 Alpha virt. eigenvalues --    4.18181   4.20040   4.21131   4.21462   4.24708
 Alpha virt. eigenvalues --    4.26092   4.27393   4.28752   4.30359   4.31192
 Alpha virt. eigenvalues --    4.31876   4.33714   4.34230   4.36256   4.36720
 Alpha virt. eigenvalues --    4.39537   4.41361   4.41680   4.43286   4.44842
 Alpha virt. eigenvalues --    4.46288   4.46771   4.47654   4.49907   4.50155
 Alpha virt. eigenvalues --    4.51699   4.52094   4.54548   4.55125   4.55864
 Alpha virt. eigenvalues --    4.57080   4.58210   4.58451   4.58851   4.60363
 Alpha virt. eigenvalues --    4.61497   4.62454   4.64102   4.66039   4.68207
 Alpha virt. eigenvalues --    4.69084   4.70057   4.71714   4.72312   4.72845
 Alpha virt. eigenvalues --    4.74175   4.74764   4.77541   4.77931   4.80302
 Alpha virt. eigenvalues --    4.81001   4.82016   4.84092   4.85419   4.88201
 Alpha virt. eigenvalues --    4.89311   4.91356   4.94006   4.97646   4.99254
 Alpha virt. eigenvalues --    5.03802   5.05015   5.07434   5.08033   5.12630
 Alpha virt. eigenvalues --    5.15352   5.15609   5.16389   5.20776   5.21953
 Alpha virt. eigenvalues --    5.25285   5.28160   5.32929   5.35717   5.37275
 Alpha virt. eigenvalues --    5.38162   5.41097   5.42113   5.50232   5.54571
 Alpha virt. eigenvalues --    5.57344   5.65232   5.68731   5.76917   5.91231
 Alpha virt. eigenvalues --    5.94164   5.98315   6.07424   6.13774   6.50845
 Alpha virt. eigenvalues --    6.58535   6.84011   7.25012   7.56011   9.93834
 Alpha virt. eigenvalues --   10.01614  10.17644  10.22050  10.44781  10.58427
 Alpha virt. eigenvalues --   10.90665  11.03931  11.26622  11.28583  11.37678
 Alpha virt. eigenvalues --   11.56436  11.68312  11.87215  12.34313  12.42530
 Alpha virt. eigenvalues --   23.48480
          Condensed to atoms (all electrons):
               1          2          3          4          5          6
     1  N    6.901583   0.013492  -0.000096  -0.000577  -0.000233  -0.000030
     2  N    0.013492   7.217164   0.092467  -0.141472  -0.003902   0.003427
     3  N   -0.000096   0.092467   6.751293   0.530150  -0.009670  -0.009081
     4  C   -0.000577  -0.141472   0.530150   4.581376   0.444428   0.035465
     5  C   -0.000233  -0.003902  -0.009670   0.444428   5.054594   0.418822
     6  C   -0.000030   0.003427  -0.009081   0.035465   0.418822   5.268508
     7  C   -0.000000   0.000007  -0.000656  -0.015141   0.038026   0.335975
     8  C    0.000000  -0.000012   0.000011   0.000260  -0.013731   0.089994
     9  C    0.000000   0.000000   0.000000   0.000045  -0.001693   0.025321
    10  C    0.000000   0.000000  -0.000000  -0.000001   0.000018   0.000388
    11  C    0.000000  -0.000000   0.000000   0.000000  -0.000000  -0.000002
    12  C   -0.000000  -0.000000  -0.000000  -0.000000   0.000000  -0.000000
    13  S   -0.000000   0.000000  -0.000000  -0.000000   0.000008  -0.000038
    14  C    0.000000  -0.000003   0.000001   0.000063  -0.000568   0.003800
    15  C   -0.000001   0.000676  -0.000227   0.001516   0.007330  -0.047614
    16  C    0.000252   0.071021  -0.024237  -0.035763  -0.021388   0.006498
    17  S   -0.001266   0.018128   0.008758   0.010526   0.000079   0.000557
    18  H    0.273383   0.005839  -0.069368  -0.008345   0.000067  -0.000028
    19  H    0.207316  -0.005097   0.010582  -0.000831   0.000028   0.000001
    20  H    0.004728  -0.041232  -0.050490   0.292038   0.011581  -0.052469
    21  H    0.000106  -0.000707  -0.005805  -0.039826   0.361961  -0.041280
    22  H   -0.000023   0.000866   0.002556  -0.022016  -0.048881   0.293389
    23  H   -0.000000  -0.000001  -0.000005   0.000662  -0.008727  -0.088634
    24  H   -0.000000   0.000020  -0.000020  -0.000427   0.004328  -0.091031
    25  H    0.000000  -0.000000   0.000000  -0.000000  -0.000042  -0.000320
    26  H   -0.000000   0.000000  -0.000000  -0.000000   0.000000   0.000000
    27  H    0.000000   0.000000   0.000000   0.000000  -0.000000  -0.000000
    28  H   -0.000000  -0.000018   0.000001  -0.000033  -0.000083   0.002424
               7          8          9         10         11         12
     1  N   -0.000000   0.000000   0.000000   0.000000   0.000000  -0.000000
     2  N    0.000007  -0.000012   0.000000   0.000000  -0.000000  -0.000000
     3  N   -0.000656   0.000011   0.000000  -0.000000   0.000000  -0.000000
     4  C   -0.015141   0.000260   0.000045  -0.000001   0.000000  -0.000000
     5  C    0.038026  -0.013731  -0.001693   0.000018  -0.000000   0.000000
     6  C    0.335975   0.089994   0.025321   0.000388  -0.000002  -0.000000
     7  C    5.173929   0.497492  -0.087016   0.012085  -0.001304   0.000038
     8  C    0.497492   4.596066   0.412346  -0.017309  -0.002086  -0.000522
     9  C   -0.087016   0.412346   5.245727   0.456011  -0.013414  -0.004428
    10  C    0.012085  -0.017309   0.456011   5.285934   0.218585  -0.035868
    11  C   -0.001304  -0.002086  -0.013414   0.218585   4.931164   0.638313
    12  C    0.000038  -0.000522  -0.004428  -0.035868   0.638313   5.199042
    13  S   -0.000928   0.009677  -0.003882  -0.066049  -0.011500   0.179656
    14  C   -0.010631  -0.064988  -0.000673   0.199272  -0.013910   0.002483
    15  C   -0.018115  -0.030210   0.001673   0.001277  -0.000013  -0.000016
    16  C    0.003863  -0.000246  -0.000012  -0.000010   0.000000   0.000000
    17  S   -0.000054   0.000003  -0.000000  -0.000000  -0.000000   0.000000
    18  H    0.000000   0.000000  -0.000000  -0.000000   0.000000  -0.000000
    19  H    0.000000  -0.000000  -0.000000  -0.000000   0.000000   0.000000
    20  H    0.005043   0.000208  -0.000010   0.000001  -0.000000   0.000000
    21  H   -0.010047   0.000760  -0.000056  -0.000000  -0.000000   0.000000
    22  H   -0.052004  -0.018612   0.000859   0.000204   0.000000  -0.000000
    23  H    0.350435  -0.035772  -0.029250   0.000082   0.000021  -0.000000
    24  H    0.003714   0.373355  -0.086181  -0.051037   0.001942  -0.000146
    25  H   -0.010195  -0.036928   0.370941  -0.026024  -0.016240   0.000962
    26  H   -0.000040   0.000938   0.006801  -0.034173   0.348905  -0.057532
    27  H   -0.000000  -0.000000  -0.000303   0.004481  -0.024597   0.298602
    28  H    0.000948   0.004460  -0.000128   0.000386  -0.000008   0.000006
              13         14         15         16         17         18
     1  N   -0.000000   0.000000  -0.000001   0.000252  -0.001266   0.273383
     2  N    0.000000  -0.000003   0.000676   0.071021   0.018128   0.005839
     3  N   -0.000000   0.000001  -0.000227  -0.024237   0.008758  -0.069368
     4  C   -0.000000   0.000063   0.001516  -0.035763   0.010526  -0.008345
     5  C    0.000008  -0.000568   0.007330  -0.021388   0.000079   0.000067
     6  C   -0.000038   0.003800  -0.047614   0.006498   0.000557  -0.000028
     7  C   -0.000928  -0.010631  -0.018115   0.003863  -0.000054   0.000000
     8  C    0.009677  -0.064988  -0.030210  -0.000246   0.000003   0.000000
     9  C   -0.003882  -0.000673   0.001673  -0.000012  -0.000000  -0.000000
    10  C   -0.066049   0.199272   0.001277  -0.000010  -0.000000  -0.000000
    11  C   -0.011500  -0.013910  -0.000013   0.000000  -0.000000   0.000000
    12  C    0.179656   0.002483  -0.000016   0.000000   0.000000  -0.000000
    13  S   15.816393   0.134948  -0.008913  -0.000011   0.000002  -0.000000
    14  C    0.134948   5.804357   0.175039   0.001586  -0.000093   0.000000
    15  C   -0.008913   0.175039   5.949193   0.029389   0.003814   0.000000
    16  C   -0.000011   0.001586   0.029389   5.806285   0.186291  -0.000192
    17  S    0.000002  -0.000093   0.003814   0.186291  15.766173  -0.000123
    18  H   -0.000000   0.000000   0.000000  -0.000192  -0.000123   0.597260
    19  H    0.000000  -0.000000   0.000000  -0.000003   0.000587  -0.044202
    20  H    0.000001  -0.000121   0.001247   0.022175  -0.003643  -0.000074
    21  H    0.000000  -0.000015   0.000004  -0.000534   0.000063  -0.000005
    22  H   -0.000072   0.002236   0.034900  -0.028196  -0.001636   0.000003
    23  H    0.000045  -0.000507  -0.000954  -0.000069   0.000001   0.000000
    24  H    0.005728  -0.059634  -0.005023  -0.000071   0.000033  -0.000000
    25  H    0.000334   0.002123  -0.000104   0.000000  -0.000000  -0.000000
    26  H    0.006930   0.000062  -0.000001  -0.000000   0.000000  -0.000000
    27  H   -0.011765  -0.000046   0.000000  -0.000000  -0.000000  -0.000000
    28  H    0.001839  -0.029597   0.215269   0.001192  -0.000419   0.000000
              19         20         21         22         23         24
     1  N    0.207316   0.004728   0.000106  -0.000023  -0.000000  -0.000000
     2  N   -0.005097  -0.041232  -0.000707   0.000866  -0.000001   0.000020
     3  N    0.010582  -0.050490  -0.005805   0.002556  -0.000005  -0.000020
     4  C   -0.000831   0.292038  -0.039826  -0.022016   0.000662  -0.000427
     5  C    0.000028   0.011581   0.361961  -0.048881  -0.008727   0.004328
     6  C    0.000001  -0.052469  -0.041280   0.293389  -0.088634  -0.091031
     7  C    0.000000   0.005043  -0.010047  -0.052004   0.350435   0.003714
     8  C   -0.000000   0.000208   0.000760  -0.018612  -0.035772   0.373355
     9  C   -0.000000  -0.000010  -0.000056   0.000859  -0.029250  -0.086181
    10  C   -0.000000   0.000001  -0.000000   0.000204   0.000082  -0.051037
    11  C    0.000000  -0.000000  -0.000000   0.000000   0.000021   0.001942
    12  C    0.000000   0.000000   0.000000  -0.000000  -0.000000  -0.000146
    13  S    0.000000   0.000001   0.000000  -0.000072   0.000045   0.005728
    14  C   -0.000000  -0.000121  -0.000015   0.002236  -0.000507  -0.059634
    15  C    0.000000   0.001247   0.000004   0.034900  -0.000954  -0.005023
    16  C   -0.000003   0.022175  -0.000534  -0.028196  -0.000069  -0.000071
    17  S    0.000587  -0.003643   0.000063  -0.001636   0.000001   0.000033
    18  H   -0.044202  -0.000074  -0.000005   0.000003   0.000000  -0.000000
    19  H    0.587293  -0.000123  -0.000004   0.000000   0.000000   0.000000
    20  H   -0.000123   0.560368   0.006624   0.000421   0.000140  -0.000001
    21  H   -0.000004   0.006624   0.602229   0.004593   0.002604   0.000067
    22  H    0.000000   0.000421   0.004593   0.535306   0.004096  -0.002256
    23  H    0.000000   0.000140   0.002604   0.004096   0.733716   0.017309
    24  H    0.000000  -0.000001   0.000067  -0.002256   0.017309   0.680992
    25  H   -0.000000  -0.000000   0.000001  -0.000010   0.004573   0.004874
    26  H    0.000000   0.000000   0.000000   0.000000  -0.000001   0.000002
    27  H    0.000000  -0.000000  -0.000000   0.000000   0.000000   0.000001
    28  H    0.000000   0.000089   0.000000  -0.004636   0.000027  -0.001994
              25         26         27         28
     1  N    0.000000  -0.000000   0.000000  -0.000000
     2  N   -0.000000   0.000000   0.000000  -0.000018
     3  N    0.000000  -0.000000   0.000000   0.000001
     4  C   -0.000000  -0.000000   0.000000  -0.000033
     5  C   -0.000042   0.000000  -0.000000  -0.000083
     6  C   -0.000320   0.000000  -0.000000   0.002424
     7  C   -0.010195  -0.000040  -0.000000   0.000948
     8  C   -0.036928   0.000938  -0.000000   0.004460
     9  C    0.370941   0.006801  -0.000303  -0.000128
    10  C   -0.026024  -0.034173   0.004481   0.000386
    11  C   -0.016240   0.348905  -0.024597  -0.000008
    12  C    0.000962  -0.057532   0.298602   0.000006
    13  S    0.000334   0.006930  -0.011765   0.001839
    14  C    0.002123   0.000062  -0.000046  -0.029597
    15  C   -0.000104  -0.000001   0.000000   0.215269
    16  C    0.000000  -0.000000  -0.000000   0.001192
    17  S   -0.000000   0.000000  -0.000000  -0.000419
    18  H   -0.000000  -0.000000  -0.000000   0.000000
    19  H   -0.000000   0.000000   0.000000   0.000000
    20  H   -0.000000   0.000000  -0.000000   0.000089
    21  H    0.000001   0.000000  -0.000000   0.000000
    22  H   -0.000010   0.000000   0.000000  -0.004636
    23  H    0.004573  -0.000001   0.000000   0.000027
    24  H    0.004874   0.000002   0.000001  -0.001994
    25  H    0.586140   0.002107  -0.000028   0.000007
    26  H    0.002107   0.615792  -0.006693   0.000000
    27  H   -0.000028  -0.006693   0.637855   0.000000
    28  H    0.000007   0.000000   0.000000   0.669846
 Mulliken charges:
               1
     1  N   -0.398634
     2  N   -0.230663
     3  N   -0.226164
     4  C    0.367904
     5  C   -0.232354
     6  C   -0.154041
     7  C   -0.215424
     8  C    0.234846
     9  C   -0.292678
    10  C    0.051749
    11  C   -0.055855
    12  C   -0.220589
    13  S   -0.052404
    14  C   -0.145184
    15  C   -0.310140
    16  C   -0.017819
    17  S    0.012220
    18  H    0.245785
    19  H    0.244453
    20  H    0.243497
    21  H    0.119268
    22  H    0.298912
    23  H    0.050209
    24  H    0.205457
    25  H    0.117830
    26  H    0.116903
    27  H    0.102493
    28  H    0.140423
 Sum of Mulliken charges =  -0.00000
 Mulliken charges with hydrogens summed into heavy atoms:
               1
     1  N    0.091605
     2  N   -0.230663
     3  N   -0.226164
     4  C    0.611401
     5  C   -0.113086
     6  C    0.144871
     7  C   -0.165215
     8  C    0.440303
     9  C   -0.174848
    10  C    0.051749
    11  C    0.061047
    12  C   -0.118096
    13  S   -0.052404
    14  C   -0.145184
    15  C   -0.169716
    16  C   -0.017819
    17  S    0.012220
 Electronic spatial extent (au):  <R**2>=           7413.5671
 Charge=             -0.0000 electrons
 Dipole moment (field-independent basis, Debye):
    X=              4.3525    Y=             -5.8180    Z=              0.5187  Tot=              7.2844
 Quadrupole moment (field-independent basis, Debye-Ang):
   XX=            -90.0775   YY=           -106.4588   ZZ=           -119.5122
   XY=              0.6680   XZ=              3.9840   YZ=              0.1125
 Traceless Quadrupole moment (field-independent basis, Debye-Ang):
   XX=             15.2720   YY=             -1.1093   ZZ=            -14.1627
   XY=              0.6680   XZ=              3.9840   YZ=              0.1125
 Octapole moment (field-independent basis, Debye-Ang**2):
  XXX=            158.7878  YYY=            -37.7186  ZZZ=              0.2197  XYY=             25.0825
  XXY=           -120.0431  XXZ=             26.2158  XZZ=             21.3318  YZZ=             -5.3255
  YYZ=              2.5447  XYZ=             -0.7486
 Hexadecapole moment (field-independent basis, Debye-Ang**3):
 XXXX=          -6720.6493 YYYY=          -1531.1770 ZZZZ=           -132.1090 XXXY=           -106.9597
 XXXZ=            182.1043 YYYX=              6.4404 YYYZ=              9.8301 ZZZX=              3.6027
 ZZZY=              0.2654 XXYY=          -1541.0459 XXZZ=          -1520.2387 YYZZ=           -306.1961
 XXYZ=            -17.6896 YYXZ=              9.9926 ZZXY=             -0.9653
 N-N= 1.243662644079D+03 E-N=-5.837703861281D+03  KE= 1.418445752708D+03
 PrsmSu:  requested number of processors reduced to:  13 ShMem   1 Linda.
 Calling FoFJK, ICntrl=      2127 FMM=F ISym2X=0 I1Cent= 0 IOpClX= 0 NMat=1 NMatS=1 NMatT=0.
 ***** Axes restored to original set *****
 -------------------------------------------------------------------
 Center     Atomic                   Forces (Hartrees/Bohr)
 Number     Number              X              Y              Z
 -------------------------------------------------------------------
      1        7          -0.169134185   -0.012018022   -0.012447170
      2        7           0.017514496    0.015671800    0.081781754
      3        7          -0.029469028   -0.048510934    0.029963614
      4        6          -0.048130858    0.065115316   -0.086312297
      5        6          -0.064591388    0.004043367    0.002077280
      6        6           0.013179485    0.031832295   -0.043585397
      7        6          -0.058827484    0.026683408   -0.031360141
      8        6          -0.024530121    0.006158299   -0.007014346
      9        6          -0.028225431    0.004728965   -0.009405313
     10        6           0.094896775    0.047151992   -0.055352257
     11        6           0.002505631   -0.011948420    0.015689261
     12        6           0.039406948    0.009869723   -0.011563363
     13       16           0.013498385   -0.004554505    0.007361277
     14        6           0.057976174    0.003793241   -0.006515147
     15        6           0.114902193    0.013600774   -0.017051250
     16        6          -0.036069957   -0.046631818    0.060941479
     17       16           0.014742042    0.006426870   -0.045275727
     18        1           0.043778290   -0.049216587    0.036867316
     19        1           0.063397649    0.015989142   -0.001509445
     20        1           0.091496913   -0.057344123    0.054372210
     21        1          -0.028123733    0.059271030   -0.061382684
     22        1           0.020658902   -0.012591376    0.014909778
     23        1          -0.058920923    0.038127083   -0.042925158
     24        1           0.049241543   -0.028897347    0.037452963
     25        1           0.003674129    0.012919755   -0.015274174
     26        1          -0.012602296   -0.036700113    0.043847577
     27        1          -0.045581034   -0.038920006    0.044520983
     28        1          -0.036663118   -0.014049810    0.017188378
 -------------------------------------------------------------------
 Cartesian Forces:  Max     0.169134185 RMS     0.044692394

 GradGradGradGradGradGradGradGradGradGradGradGradGradGradGradGradGradGrad
 Berny optimization.
 FormGI is forming the generalized inverse of G from B-inverse, IUseBI=4.
 Internal  Forces:  Max     0.328096872 RMS     0.067255412
 Search for a local minimum.
 Step number   1 out of a maximum of  142
 All quantities printed in internal units (Hartrees-Bohrs-Radians)
 Mixed Optimization -- RFO/linear search
 Second derivative matrix not updated -- first step.
 ITU=  0
     Eigenvalues ---    0.00230   0.00230   0.00234   0.00362   0.00521
     Eigenvalues ---    0.01104   0.01145   0.01350   0.01687   0.01975
     Eigenvalues ---    0.02202   0.02679   0.03016   0.03123   0.03182
     Eigenvalues ---    0.03182   0.03216   0.03262   0.03304   0.03433
     Eigenvalues ---    0.03478   0.03625   0.03784   0.04324   0.04485
     Eigenvalues ---    0.04619   0.05333   0.06441   0.06786   0.06894
     Eigenvalues ---    0.08274   0.09020   0.09923   0.10013   0.10829
     Eigenvalues ---    0.10952   0.15204   0.15389   0.15790   0.15997
     Eigenvalues ---    0.16000   0.16000   0.16000   0.16000   0.17686
     Eigenvalues ---    0.18753   0.19415   0.19486   0.20073   0.20148
     Eigenvalues ---    0.21712   0.21807   0.22000   0.22000   0.22000
     Eigenvalues ---    0.22739   0.22943   0.23363   0.24692   0.24881
     Eigenvalues ---    0.25000   0.25000   0.25495   0.28852   0.38369
     Eigenvalues ---    0.39316   0.46729   0.46842   0.49058   0.49763
     Eigenvalues ---    0.55941   0.61763   0.62591   0.63252   0.67655
     Eigenvalues ---    0.67966   0.81492   1.10683
 RFO step:  Lambda=-6.44050248D-01 EMin= 2.30000000D-03
 Linear search not attempted -- first point.
 Maximum step size (   0.300) exceeded in Quadratic search.
    -- Step size scaled by   0.362
 Iteration  1 RMS(Cart)=  0.18159795 RMS(Int)=  0.01520879
 Iteration  2 RMS(Cart)=  0.18303489 RMS(Int)=  0.00667518
 Iteration  3 RMS(Cart)=  0.01199497 RMS(Int)=  0.00012915
 Iteration  4 RMS(Cart)=  0.00000682 RMS(Int)=  0.00012913
 Iteration  5 RMS(Cart)=  0.00000000 RMS(Int)=  0.00012913
 Variable       Old X    -DE/DX   Delta X   Delta X   Delta X     New X
                                 (Linear)    (Quad)   (Total)
    R1        3.33991   0.06607   0.00000   0.02994   0.02990   3.36982
    R2        2.25842  -0.07042   0.00000  -0.02863  -0.02862   2.22981
    R3        2.17012  -0.04514   0.00000  -0.01753  -0.01753   2.15259
    R4        2.99207   0.05550   0.00000   0.02248   0.02248   3.01455
    R5        2.24642   0.15230   0.00000   0.03150   0.03150   2.27792
    R6        3.61608   0.00608   0.00000   0.00342   0.00344   3.61953
    R7        2.47257   0.12451   0.00000   0.03574   0.03578   2.50834
    R8        1.84452   0.09860   0.00000   0.02979   0.02970   1.87422
    R9        2.43237   0.13947   0.00000   0.03844   0.03855   2.47092
   R10        1.87528   0.08479   0.00000   0.02706   0.02706   1.90235
   R11        2.52970   0.09358   0.00000   0.02851   0.02867   2.55838
   R12        1.94258   0.13836   0.00000   0.04699   0.04700   1.98958
   R13        2.35405   0.15795   0.00000   0.03894   0.03918   2.39323
   R14        1.89894   0.07779   0.00000   0.02533   0.02533   1.92426
   R15        2.48456   0.02876   0.00000   0.00816   0.00816   2.49272
   R16        1.88681   0.01372   0.00000   0.00408   0.00405   1.89086
   R17        2.45351   0.10789   0.00000   0.02959   0.02959   2.48310
   R18        1.99194   0.01906   0.00000   0.00666   0.00666   1.99859
   R19        3.30773  -0.09900   0.00000  -0.04471  -0.04471   3.26303
   R20        2.48947   0.02822   0.00000   0.00805   0.00805   2.49752
   R21        2.26698  -0.05555   0.00000  -0.02258  -0.02258   2.24440
   R22        4.11703   0.00475   0.00000   0.00231   0.00231   4.11934
   R23        2.42424  -0.07225   0.00000  -0.03119  -0.03119   2.39305
   R24        3.50548  -0.05447   0.00000  -0.02848  -0.02883   3.47665
   R25        3.07519   0.03720   0.00000   0.01922   0.01941   3.09460
   R26        3.27617   0.01243   0.00000   0.00781   0.00793   3.28410
   R27        3.37319   0.08093   0.00000   0.04064   0.04045   3.41364
   R28        2.23250  -0.01152   0.00000  -0.00446  -0.00442   2.22808
   R29        3.66229  -0.04017   0.00000  -0.01772  -0.01772   3.64457
   R30        3.14903  -0.02404   0.00000  -0.01322  -0.01332   3.13571
   R31        3.44384   0.04682   0.00000   0.02308   0.02308   3.46692
    A1        2.42952  -0.02064   0.00000  -0.01021  -0.01024   2.41928
    A2        1.42246  -0.00115   0.00000  -0.00011  -0.00002   1.42244
    A3        1.24911   0.00206   0.00000   0.00054   0.00065   1.24975
    A4        2.84235   0.03645   0.00000   0.01496   0.01494   2.85728
    A5        1.59393   0.03331   0.00000   0.01384   0.01384   1.60777
    A6        1.90278  -0.02146   0.00000  -0.00893  -0.00903   1.89375
    A7        2.78390  -0.00981   0.00000  -0.00381  -0.00382   2.78008
    A8        2.75161   0.04256   0.00000   0.01778   0.01786   2.76947
    A9        1.82750  -0.05192   0.00000  -0.02282  -0.02276   1.80474
   A10        1.70395   0.00928   0.00000   0.00499   0.00485   1.70880
   A11        1.95737  -0.02610   0.00000  -0.00860  -0.00856   1.94881
   A12        1.96448   0.04029   0.00000   0.01657   0.01655   1.98103
   A13        2.36116  -0.01426   0.00000  -0.00800  -0.00802   2.35314
   A14        1.91594   0.09341   0.00000   0.03816   0.03807   1.95401
   A15        2.15947  -0.03335   0.00000  -0.01274  -0.01274   2.14673
   A16        2.20772  -0.06011   0.00000  -0.02545  -0.02536   2.18237
   A17        2.11576  -0.12311   0.00000  -0.04975  -0.04932   2.06644
   A18        2.19120   0.03617   0.00000   0.01344   0.01323   2.20443
   A19        1.97622   0.08693   0.00000   0.03631   0.03609   2.01231
   A20        2.41303   0.21401   0.00000   0.08919   0.08903   2.50205
   A21        1.64829   0.06156   0.00000   0.03215   0.03249   1.68078
   A22        2.22186  -0.27557   0.00000  -0.12135  -0.12151   2.10035
   A23        1.73158  -0.21138   0.00000  -0.08860  -0.08860   1.64298
   A24        2.18652   0.11276   0.00000   0.04748   0.04748   2.23400
   A25        2.36509   0.09862   0.00000   0.04111   0.04111   2.40620
   A26        1.67227   0.32810   0.00000   0.13291   0.13291   1.80518
   A27        1.86887  -0.04899   0.00000  -0.02053  -0.02053   1.84833
   A28        2.31611   0.00354   0.00000   0.00083   0.00083   2.31694
   A29        2.09819   0.04545   0.00000   0.01971   0.01971   2.11790
   A30        1.73071   0.02670   0.00000   0.01119   0.01119   1.74191
   A31        2.05962   0.00948   0.00000   0.00469   0.00469   2.06431
   A32        2.49283  -0.03616   0.00000  -0.01587  -0.01587   2.47696
   A33        1.19001  -0.05620   0.00000  -0.02754  -0.02775   1.16226
   A34        1.85717  -0.05357   0.00000  -0.02576  -0.02600   1.83117
   A35        1.97978   0.01638   0.00000   0.00582   0.00529   1.98506
   A36        1.98207  -0.00709   0.00000  -0.00058  -0.00042   1.98165
   A37        1.03067   0.01083   0.00000  -0.00056  -0.00088   1.02980
   A38        2.46160   0.04202   0.00000   0.01690   0.01674   2.47834
   A39        2.46502   0.00742   0.00000   0.00226   0.00227   2.46729
   A40        1.35380  -0.04895   0.00000  -0.01891  -0.01877   1.33503
   A41        2.17915  -0.11953   0.00000  -0.04790  -0.04794   2.13121
   A42        3.11951   0.04307   0.00000   0.02021   0.01991   3.13942
   A43        3.01274   0.00374   0.00000  -0.00114  -0.00130   3.01145
   A44        3.02825  -0.03699   0.00000  -0.01742  -0.01710   3.01115
   A45        3.19628  -0.00148   0.00000  -0.00078  -0.00075   3.19553
   A46        3.22836   0.02892   0.00000   0.01600   0.01594   3.24430
   A47        3.24866  -0.04132   0.00000  -0.02236  -0.02274   3.22592
    D1        2.17248  -0.05404   0.00000  -0.02977  -0.02974   2.14274
    D2        2.10239  -0.00271   0.00000  -0.00207  -0.00205   2.10035
    D3       -2.52391   0.01902   0.00000   0.00965   0.00967  -2.51424
    D4       -3.01152   0.00722   0.00000   0.00349   0.00342  -3.00810
    D5        0.15624   0.01752   0.00000   0.00900   0.00907   0.16531
    D6       -3.07802   0.05581   0.00000   0.02973   0.02966  -3.04835
    D7        0.08974   0.06612   0.00000   0.03524   0.03532   0.12506
    D8        0.18170   0.00789   0.00000   0.00413   0.00404   0.18575
    D9       -2.93372   0.01820   0.00000   0.00965   0.00970  -2.92402
   D10        3.11698   0.01615   0.00000   0.00878   0.00879   3.12577
   D11       -0.00798   0.01950   0.00000   0.01051   0.01047   0.00248
   D12       -0.05014   0.00572   0.00000   0.00323   0.00307  -0.04707
   D13        3.10807   0.00907   0.00000   0.00496   0.00475   3.11282
   D14        0.07347   0.02292   0.00000   0.01326   0.01347   0.08694
   D15        3.12321  -0.00326   0.00000  -0.00141  -0.00111   3.12211
   D16       -3.08621   0.03742   0.00000   0.02076   0.02061  -3.06560
   D17       -0.03647   0.01124   0.00000   0.00609   0.00603  -0.03043
   D18       -3.13611   0.00894   0.00000   0.00475   0.00455  -3.13156
   D19        0.01532   0.01446   0.00000   0.00782   0.00763   0.02295
   D20       -0.01634   0.00522   0.00000   0.00280   0.00270  -0.01363
   D21        3.13509   0.01075   0.00000   0.00587   0.00578   3.14087
   D22       -3.13610   0.00350   0.00000   0.00197   0.00198  -3.13412
   D23        0.00141   0.00415   0.00000   0.00227   0.00225   0.00366
   D24       -0.00468  -0.00199   0.00000  -0.00110  -0.00108  -0.00576
   D25        3.13283  -0.00134   0.00000  -0.00080  -0.00080   3.13203
   D26       -3.11059  -0.00671   0.00000  -0.00387  -0.00379  -3.11437
   D27       -0.08601   0.00058   0.00000   0.00030   0.00028  -0.08573
   D28        0.04252  -0.00114   0.00000  -0.00065  -0.00067   0.04185
   D29        3.06710   0.00615   0.00000   0.00352   0.00340   3.07049
   D30        3.13861   0.00087   0.00000   0.00037   0.00031   3.13892
   D31       -0.00682   0.00154   0.00000   0.00077   0.00076  -0.00606
   D32        0.00064   0.00034   0.00000   0.00013   0.00009   0.00073
   D33        3.13839   0.00101   0.00000   0.00052   0.00054   3.13893
   D34        3.13945  -0.00260   0.00000  -0.00142  -0.00144   3.13801
   D35       -0.00040   0.00057   0.00000   0.00028   0.00026  -0.00015
   D36        0.00267  -0.00448   0.00000  -0.00237  -0.00235   0.00033
   D37       -3.13718  -0.00130   0.00000  -0.00067  -0.00066  -3.13784
   D38       -3.13973  -0.00321   0.00000  -0.00179  -0.00178  -3.14151
   D39       -0.00135  -0.00120   0.00000  -0.00083  -0.00091  -0.00226
   D40        3.13950   0.00310   0.00000   0.00165   0.00166   3.14116
   D41       -0.00412  -0.00064   0.00000  -0.00034  -0.00035  -0.00447
   D42        3.13513  -0.00091   0.00000  -0.00052  -0.00052   3.13462
   D43       -0.00040  -0.00133   0.00000  -0.00074  -0.00074  -0.00114
   D44        0.01021  -0.00269   0.00000  -0.00145  -0.00145   0.00877
   D45       -3.13584  -0.00044   0.00000  -0.00024  -0.00024  -3.13608
   D46       -3.13653  -0.00246   0.00000  -0.00131  -0.00131  -3.13784
   D47        0.00061  -0.00021   0.00000  -0.00011  -0.00011   0.00050
   D48        0.01904  -0.00022   0.00000  -0.00008  -0.00005   0.01899
   D49        3.13245   0.00225   0.00000   0.00116   0.00111   3.13356
   D50       -3.12551   0.00177   0.00000   0.00075   0.00068  -3.12483
   D51       -0.05494   0.00064   0.00000   0.00051   0.00055  -0.05439
   D52       -3.12161  -0.00390   0.00000  -0.00205  -0.00194  -3.12355
   D53        0.11931  -0.01906   0.00000  -0.01080  -0.01067   0.10864
   D54       -3.09753  -0.01127   0.00000  -0.00686  -0.00685  -3.10438
         Item               Value     Threshold  Converged?
 Maximum Force            0.328097     0.000450     NO 
 RMS     Force            0.067255     0.000300     NO 
 Maximum Displacement     1.485976     0.001800     NO 
 RMS     Displacement     0.362417     0.001200     NO 
 Predicted change in Energy=-2.214253D-01
 GradGradGradGradGradGradGradGradGradGradGradGradGradGradGradGradGradGrad

                          Input orientation:                          
 ---------------------------------------------------------------------
 Center     Atomic      Atomic             Coordinates (Angstroms)
 Number     Number       Type             X           Y           Z
 ---------------------------------------------------------------------
      1          7           0        2.659030   -0.094352    0.359662
      2          7           0        4.596903    0.225326    0.091656
      3          7           0        3.507185    0.859311   -0.885757
      4          6           0        4.353365    1.408284   -1.545795
      5          6           0        4.877649    2.190583   -2.481215
      6          6           0        6.184627    2.176904   -2.444910
      7          6           0        6.725705    2.982730   -3.388705
      8          6           0        7.987625    3.054999   -3.467538
      9          6           0        8.975813    3.622202   -4.132190
     10          6           0        9.914913    3.034222   -3.425814
     11          6           0       11.376200    3.632628   -4.124463
     12          6           0       12.359686    3.074992   -3.439994
     13         16           0       11.201343    1.871714   -2.039226
     14          6           0        9.710105    2.050707   -2.263677
     15          6           0        8.423431    1.211004   -1.251696
     16          6           0        6.504892    0.471931   -0.327732
     17         16           0        6.032712   -0.823919    1.020379
     18          1           0        1.774765    0.249946   -0.341654
     19          1           0        1.861183    0.059660    1.157957
     20          1           0        5.201359    1.051582   -1.175221
     21          1           0        4.188169    2.666628   -3.039248
     22          1           0        6.733205    1.591845   -1.762824
     23          1           0        6.214459    3.550047   -4.062252
     24          1           0        8.180968    2.423596   -2.715774
     25          1           0        8.911529    4.304184   -4.937985
     26          1           0       11.593894    4.384656   -5.017582
     27          1           0       13.550958    3.362523   -3.759105
     28          1           0        9.527137    0.916348   -0.959858
 ---------------------------------------------------------------------
                    Distance matrix (angstroms):
                    1          2          3          4          5
     1  N    0.000000
     2  N    1.982265   0.000000
     3  N    1.783230   1.595230   0.000000
     4  C    2.959637   2.034687   1.205422   0.000000
     5  C    4.267761   3.249726   2.489165   1.327357   0.000000
     6  C    5.045202   3.572631   3.366854   2.180070   1.307554
     7  C    6.329023   4.924225   4.597013   3.391636   2.205980
     8  C    7.277348   5.672028   5.617916   4.428613   3.375203
     9  C    8.596002   6.968105   6.933887   5.740897   4.644373
    10  C    8.761601   6.967333   7.227801   6.091713   5.194037
    11  C   10.487459   8.680105   8.949966   7.804963   6.856451
    12  C   10.889668   8.991883   9.476294   8.394468   7.594888
    13  S    9.087969   7.132312   7.845732   6.881355   6.347136
    14  C    7.823097   5.918145   6.464852   5.442677   4.839372
    15  C    6.126071   4.173544   4.942375   4.085444   3.878642
    16  C    3.947637   1.969041   3.073711   2.643767   3.199870
    17  S    3.514334   2.006237   3.583979   3.793177   4.762621
    18  H    1.179962   2.855316   1.915372   3.072601   4.239302
    19  H    1.139103   2.940852   2.743270   3.916636   5.184928
    20  H    3.183154   1.628817   1.729446   0.991795   1.762876
    21  H    4.638305   3.991188   2.892691   1.959878   1.006679
    22  H    4.893578   3.141696   3.422434   2.396755   2.077898
    23  H    6.743593   5.561044   4.965835   3.792542   2.476869
    24  H    6.803687   5.055648   5.257394   4.129195   3.319823
    25  H    9.300856   7.781412   7.582522   6.377308   5.174478
    26  H   11.349364   9.610527   9.741401   8.563724   7.507001
    27  H   12.146947  10.239408  10.742420   9.659892   8.844927
    28  H    7.066366   5.088260   6.020678   5.230033   5.055288
                    6          7          8          9         10
     6  C    0.000000
     7  C    1.353835   0.000000
     8  C    2.251137   1.266443   0.000000
     9  C    3.567424   2.454522   1.319089   0.000000
    10  C    3.951228   3.189840   1.927852   1.314001   0.000000
    11  C    5.647341   4.752979   3.499664   2.400422   1.726719
    12  C    6.318870   5.634970   4.372194   3.497024   2.445154
    13  S    5.042337   4.804871   3.710555   3.521036   2.220124
    14  C    3.532389   3.322800   2.329125   2.549535   1.536168
    15  C    2.714584   3.253935   2.915510   3.796874   3.205532
    16  C    2.737141   3.965151   4.327714   5.523002   5.271782
    17  S    4.586529   5.866076   6.245726   7.414770   7.051622
    18  H    5.252022   6.423740   7.499273   8.808823   9.139269
    19  H    6.012948   7.271868   8.240179   9.554859   9.732500
    20  H    1.960937   3.309452   4.126944   5.440427   5.586915
    21  H    2.139839   2.580917   3.843193   5.002917   5.751536
    22  H    1.052841   2.139651   2.573021   3.842595   3.869012
    23  H    2.121840   1.018276   1.934651   2.763181   3.790051
    24  H    2.029680   1.698015   1.000600   2.018581   1.970682
    25  H    4.263419   2.987363   2.139224   1.057610   2.215005
    26  H    6.383806   5.321457   4.144370   2.866986   2.678876
    27  H    7.575991   6.845840   5.579450   4.597672   3.666018
    28  H    3.868689   4.244673   3.637634   4.205865   3.273637
                   11         12         13         14         15
    11  C    0.000000
    12  C    1.321628   0.000000
    13  S    2.734887   2.179860   0.000000
    14  C    2.956497   3.074600   1.518620   0.000000
    15  C    4.778692   4.874137   2.962016   1.839766   0.000000
    16  C    6.937925   7.123252   5.190882   4.063718   2.254047
    17  S    8.653501   8.667586   6.583492   5.707164   3.875406
    18  H   10.860006  11.385128   9.714538   8.361013   6.779127
    19  H   11.454502  11.851243  10.037137   8.790758   7.084851
    20  H    7.313582   7.775926   6.117101   4.744658   3.226919
    21  H    7.333392   8.191524   7.128572   5.610049   4.821995
    22  H    5.594599   6.055569   4.485419   3.053415   1.806421
    23  H    5.162776   6.194893   5.637237   4.207426   4.271990
    24  H    3.695358   4.290746   3.144035   1.637590   1.916427
    25  H    2.680935   3.955336   4.423004   3.587173   4.836811
    26  H    1.187686   2.188708   3.916577   4.071852   5.857116
    27  H    2.221715   1.266347   3.271267   4.325427   6.099809
    28  H    4.562010   4.339834   2.209237   1.737870   1.179050
                   16         17         18         19         20
    16  C    0.000000
    17  S    1.928624   0.000000
    18  H    4.735353   4.597655   0.000000
    19  H    4.892982   4.266297   1.514105   0.000000
    20  H    1.659346   3.004882   3.616490   4.193377   0.000000
    21  H    4.187627   5.662759   4.352227   5.461473   2.666369
    22  H    1.834617   3.751377   5.329778   5.883464   1.727342
    23  H    4.848276   6.708036   6.666663   7.640969   3.950145
    24  H    3.510123   5.396314   7.169423   7.780339   3.624057
    25  H    6.460069   8.371806   9.407258  10.241283   6.205092
    26  H    7.949971   9.721779  11.635094  12.311318   8.169310
    27  H    8.353256   9.843465  12.650922  13.104856   9.040614
    28  H    3.119463   4.377314   7.805481   7.999119   4.333246
                   21         22         23         24         25
    21  H    0.000000
    22  H    3.043292   0.000000
    23  H    2.435738   3.064477   0.000000
    24  H    4.013246   1.922483   2.636105   0.000000
    25  H    5.347609   4.709940   2.934249   3.001426   0.000000
    26  H    7.855584   6.482249   5.526984   4.559840   2.684752
    27  H    9.416172   7.321353   7.345153   5.550399   4.878606
    28  H    5.990987   2.984477   5.247385   2.677164   5.261360
                   26         27         28
    26  H    0.000000
    27  H    2.541382   0.000000
    28  H    5.724140   5.478202   0.000000
 Stoichiometry    C12H11N3S2
 Framework group  C1[X(C12H11N3S2)]
 Deg. of freedom    78
 Full point group                 C1      NOp   1
 Largest Abelian subgroup         C1      NOp   1
 Largest concise Abelian subgroup C1      NOp   1
[...]
    A6        1.93130   0.00594   0.01472   0.01089   0.02563   1.95693
    A7        2.36154   0.00043   0.02245  -0.02571  -0.00302   2.35853
    A8        2.46644  -0.05796   0.01270  -0.04914  -0.03643   2.43001
    A9        1.80085   0.07163   0.00998   0.00822   0.01821   1.81906
   A10        2.01403  -0.01340  -0.02257   0.04194   0.01913   2.03316
   A11        1.91513   0.02720  -0.00088   0.01704   0.01565   1.93078
   A12        2.21102  -0.01379  -0.00083  -0.00090  -0.00161   2.20941
   A13        2.15446  -0.01341   0.00192  -0.01545  -0.01330   2.14116
   A14        2.33294  -0.06282  -0.01732   0.00857  -0.00905   2.32388
   A15        1.92452   0.00454   0.01421  -0.01395   0.00045   1.92497
   A16        2.02568   0.05830   0.00313   0.00543   0.00864   2.03432
   A17        1.93841   0.12676   0.00897   0.00933   0.01842   1.95684
   A18        2.15521  -0.06320  -0.00737  -0.00153  -0.00903   2.14618
   A19        2.18954  -0.06351  -0.00159  -0.00771  -0.00942   2.18012
   A20        2.44560  -0.25674   0.00608  -0.02190  -0.01583   2.42978
   A21        1.91856  -0.04911  -0.00049   0.02345   0.02288   1.94144
   A22        1.91895   0.30580  -0.00556  -0.00142  -0.00698   1.91197
   A23        2.03351   0.22883  -0.00666  -0.00601  -0.01273   2.02077
   A24        2.19605  -0.11530   0.00319   0.00157   0.00469   2.20074
   A25        2.05316  -0.11289   0.00325   0.00529   0.00848   2.06163
   A26        2.12652  -0.08234   0.00604  -0.02583  -0.01978   2.10673
   A27        1.99517   0.00676   0.00646  -0.00280   0.00366   1.99883
   A28        2.14591  -0.00312  -0.00562  -0.00075  -0.00637   2.13954
   A29        2.14210  -0.00364  -0.00083   0.00355   0.00272   2.14482
   A30        1.99550  -0.02781  -0.00085   0.00169   0.00111   1.99660
   A31        2.17766   0.01295   0.00316   0.00178   0.00520   2.18287
   A32        2.10936   0.01540  -0.00202  -0.00485  -0.00660   2.10276
   A33        0.95800   0.08723   0.00493   0.02786   0.03262   0.99062
   A34        1.48198   0.09174   0.00460   0.02066   0.02504   1.50702
   A35        2.15531   0.07838   0.01609  -0.00436   0.01079   2.16610
   A36        2.21169  -0.00347  -0.03542  -0.06890  -0.10445   2.10724
   A37        0.34485   0.03422   0.04751  -0.04859   0.00011   0.34496
   A38        2.33955   0.03336   0.01108  -0.01689  -0.00616   2.33339
   A39        2.14420   0.01798   0.02157  -0.04051  -0.01774   2.12646
   A40        1.79943  -0.05133  -0.03293   0.05746   0.02389   1.82332
   A41        1.90957   0.33430   0.04395   0.04383   0.08771   1.99728
   A42        4.11114   0.05314   0.00499   0.03953   0.04495   4.15610
   A43        2.55654   0.03075   0.01209  -0.11749  -0.10434   2.45220
   A44        2.07566   0.06779   0.05552  -0.04224   0.01219   2.08786
   A45        3.06289  -0.00100   0.01416  -0.03718  -0.02330   3.03959
   A46        4.25869   0.00239   0.03287   0.00679   0.03763   4.29632
   A47        2.89249   0.03529   0.05267   0.02869   0.08163   2.97412
    D1        2.61592  -0.00751   0.02944  -0.06696  -0.03755   2.57836
    D2        0.20057   0.00436   0.03669  -0.09334  -0.05680   0.14377
    D3       -1.99392  -0.00213  -0.00169  -0.00938  -0.01031  -2.00423
    D4       -0.51130   0.00306  -0.01023   0.04021   0.02930  -0.48200
    D5        2.70483  -0.00410  -0.01123   0.01678   0.00706   2.71189
    D6       -2.91379   0.01209  -0.02709   0.03353   0.00543  -2.90836
    D7        0.30234   0.00492  -0.02809   0.01010  -0.01682   0.28553
    D8        0.06280   0.00847   0.00664   0.04574   0.05095   0.11376
    D9       -3.00425   0.00130   0.00564   0.02230   0.02871  -2.97554
   D10       -3.00202  -0.00514   0.02257  -0.06527  -0.04231  -3.04434
   D11        0.21491  -0.00500   0.01938  -0.07471  -0.05358   0.16133
   D12        0.05922   0.00444   0.02462  -0.04145  -0.01860   0.04062
   D13       -3.00704   0.00459   0.02143  -0.05089  -0.02987  -3.03691
   D14        0.72982   0.01598   0.03586   0.10711   0.14784   0.87766
   D15        3.03181   0.00218  -0.01814   0.03993   0.02449   3.05630
   D16       -2.31145   0.01594   0.01538   0.06553   0.07846  -2.23299
   D17       -0.00947   0.00214  -0.03862  -0.00166  -0.04489  -0.05436
   D18       -3.11951   0.00363  -0.00235  -0.00307  -0.00347  -3.12299
   D19        0.03311   0.00100  -0.01219  -0.00960  -0.01952   0.01360
   D20       -0.05032   0.00339   0.00059   0.00669   0.00782  -0.04251
   D21        3.10231   0.00075  -0.00925   0.00016  -0.00823   3.09408
   D22       -3.12754  -0.00624  -0.00771  -0.01460  -0.02179   3.13385
   D23        0.00686   0.00094  -0.00426  -0.00120  -0.00469   0.00217
   D24        0.00252  -0.00380   0.00254  -0.00787  -0.00501  -0.00249
   D25        3.13693   0.00338   0.00598   0.00553   0.01209  -3.13417
   D26        3.10550  -0.00516   0.01109  -0.00569   0.00482   3.11032
   D27       -0.04140  -0.00088  -0.00957   0.01262   0.00413  -0.03727
   D28       -0.02721  -0.00650   0.00308  -0.01100  -0.00815  -0.03536
   D29        3.10908  -0.00222  -0.01758   0.00731  -0.00884   3.10024
   D30        3.09973   0.00859   0.00137   0.03239   0.03438   3.13411
   D31       -0.02679   0.01036  -0.00297   0.01836   0.01653  -0.01026
   D32       -0.03450   0.00121  -0.00215   0.01864   0.01688  -0.01762
   D33        3.12216   0.00298  -0.00649   0.00461  -0.00097   3.12120
   D34       -3.08848  -0.02797  -0.00334  -0.03047  -0.03345  -3.12193
   D35        0.01905  -0.00667  -0.01009   0.00053  -0.00920   0.00985
   D36        0.03804  -0.03168   0.00102  -0.01630  -0.01563   0.02240
   D37       -3.13762  -0.01038  -0.00573   0.01470   0.00861  -3.12900
   D38        3.10723  -0.03226   0.00665  -0.04843  -0.04104   3.06619
   D39       -0.02408  -0.02676   0.00364  -0.05773  -0.05324  -0.07732
   D40       -3.13953  -0.00358  -0.02582   0.03479   0.00897  -3.13056
   D41        0.03323  -0.02232  -0.01968   0.00647  -0.01321   0.02003
   D42       -3.07792  -0.02240  -0.05381   0.07461   0.02080  -3.05712
   D43        0.06741  -0.02110  -0.05581   0.07120   0.01540   0.08280
   D44        0.03072  -0.01685  -0.03692   0.04056   0.00364   0.03435
   D45        3.13329  -0.00067  -0.00407  -0.00025  -0.00433   3.12896
   D46       -3.11460  -0.01815  -0.03492   0.04395   0.00904  -3.10556
   D47       -0.01203  -0.00197  -0.00207   0.00315   0.00107  -0.01096
   D48        0.01937   0.00622  -0.00436   0.03281   0.02925   0.04862
   D49       -3.07809   0.00048  -0.00036  -0.02957  -0.02916  -3.10726
   D50       -3.10690   0.00835   0.00201  -0.01782  -0.01370  -3.12060
   D51        0.03342  -0.00680  -0.00033  -0.04261  -0.04320  -0.00977
   D52       -3.10360  -0.01061   0.01675  -0.05821  -0.04251   3.13708
   D53       -0.09587   0.00123   0.03008   0.06772   0.09499  -0.00089
   D54        3.04181   0.00457   0.01536   0.08112   0.09442   3.13623
         Item               Value     Threshold  Converged?
 Maximum Force            0.334299     0.000450     NO 
 RMS     Force            0.059958     0.000300     NO 
 Maximum Displacement     0.320331     0.001800     NO 
 RMS     Displacement     0.097559     0.001200     NO 
 Predicted change in Energy=-2.338328D-02
 GradGradGradGradGradGradGradGradGradGradGradGradGradGradGradGradGradGrad

                          Input orientation:                          
 ---------------------------------------------------------------------
 Center     Atomic      Atomic             Coordinates (Angstroms)
 Number     Number       Type             X           Y           Z
 ---------------------------------------------------------------------
      1          7           0        2.253448    0.712721   -0.140513
      2          7           0        4.181679   -0.103612    0.900113
      3          7           0        3.636972    0.358380   -0.302111
      4          6           0        4.537796    1.075202   -1.043027
      5          6           0        4.555874    1.900105   -2.106118
      6          6           0        5.902795    2.228584   -2.467162
      7          6           0        6.440776    3.021872   -3.435117
      8          6           0        7.854504    3.036433   -3.387040
      9          6           0        8.896452    3.593745   -4.046520
     10          6           0       10.201775    3.234298   -3.569162
     11          6           0       11.367927    3.768904   -4.176019
     12          6           0       12.552403    3.259301   -3.687346
     13         16           0       12.360833    2.046027   -2.484127
     14          6           0       10.532845    2.230585   -2.487794
     15          6           0        9.723861    1.602733   -1.647838
     16          6           0        5.561748   -0.223715    0.772857
     17         16           0        4.978296   -1.856846    0.671782
     18          1           0        1.697289   -0.042043   -0.447089
     19          1           0        2.068672    1.484620   -0.777809
     20          1           0        5.508723    0.821231   -0.605365
     21          1           0        3.696221    2.327114   -2.605992
     22          1           0        6.610142    1.719742   -1.800834
     23          1           0        5.837750    3.578161   -4.145405
     24          1           0        8.229313    2.412620   -2.571706
     25          1           0        8.829381    4.270131   -4.895624
     26          1           0       11.327743    4.514803   -4.959725
     27          1           0       13.536889    3.536857   -4.033433
     28          1           0       10.246701    1.002326   -0.882437
 ---------------------------------------------------------------------
                    Distance matrix (angstroms):
                    1          2          3          4          5
     1  N    0.000000
     2  N    2.338242   0.000000
     3  N    1.437293   1.398387   0.000000
     4  C    2.482774   2.300481   1.369041   0.000000
     5  C    3.251868   3.632125   2.544747   1.345717   0.000000
     6  C    4.585725   4.442963   3.649529   2.285098   1.432637
     7  C    5.806919   5.802275   4.977070   3.623942   2.564655
     8  C    6.878329   6.459815   5.871655   4.510142   3.716580
     9  C    8.227192   7.769730   7.221517   5.861903   5.047197
    10  C    9.016090   8.207169   7.876621   6.566865   5.983040
    11  C   10.425895   9.612786   9.295509   7.982629   7.360772
    12  C   11.186311  10.120424   9.967952   8.717605   8.263908
    13  S   10.460854   9.108929   9.149595   8.013688   7.815471
    14  C    8.738538   7.567278   7.472310   6.273984   5.998256
    15  C    7.672758   6.333992   6.356855   5.247796   5.196782
    16  C    3.557528   1.391118   2.280165   2.456237   3.716301
    17  S    3.832400   1.939217   2.766739   3.425130   4.691466
    18  H    0.986393   2.826825   1.985883   3.109961   3.833514
    19  H    1.017898   3.130926   1.988534   2.516850   2.850123
    20  H    3.290088   2.209716   1.951831   1.094874   2.079460
    21  H    3.281226   4.293818   3.031054   2.172186   1.082226
    22  H    4.769857   4.064132   3.597112   2.298766   2.084646
    23  H    6.090741   6.461832   5.475519   4.192783   2.935603
    24  H    6.671680   5.896464   5.519108   4.213413   3.738128
    25  H    8.860538   8.620982   7.960104   6.593010   5.626831
    26  H   10.955522  10.331200   9.905412   8.560068   7.799868
    27  H   12.265668  11.185385  11.046892   9.797242   9.330174
    28  H    8.032833   6.417560   6.666330   5.711628   5.889730
                    6          7          8          9         10
     6  C    0.000000
     7  C    1.362229   0.000000
     8  C    2.303902   1.414620   0.000000
     9  C    3.649660   2.594455   1.353205   0.000000
    10  C    4.550505   3.769378   2.362626   1.435598   0.000000
    11  C    5.929624   5.038235   3.674662   2.481056   1.419151
    12  C    6.838750   6.121436   4.712760   3.688744   2.353730
    13  S    6.460640   6.074845   4.701400   4.103466   2.692734
    14  C    4.630096   4.274177   2.937949   2.639244   1.512086
    15  C    3.957717   3.998371   2.928278   3.225276   2.565519
    16  C    4.077721   5.386425   5.761080   6.994258   7.234697
    17  S    5.234348   6.542734   6.977879   8.205075   8.437422
    18  H    5.188712   6.388784   7.485428   8.831920   9.633693
    19  H    4.255337   5.342258   6.533916   7.858209   8.774986
    20  H    2.366902   3.703923   4.259992   5.568221   6.052415
    21  H    2.213132   2.950037   4.290045   5.542732   6.638743
    22  H    1.096929   2.096452   2.407937   3.712439   4.280268
    23  H    2.154550   1.085175   2.221685   3.060340   4.415316
    24  H    2.336126   2.077386   1.092884   2.003797   2.358109
    25  H    4.316277   3.065398   2.179041   1.087646   2.171616
    26  H    6.392944   5.332516   4.089292   2.755625   2.200265
    27  H    7.902162   7.139889   5.740884   4.640804   3.380839
    28  H    4.783783   5.007975   4.016620   4.306976   3.493166
                   11         12         13         14         15
    11  C    0.000000
    12  C    1.378941   0.000000
    13  S    2.610874   1.719438   0.000000
    14  C    2.431849   2.564331   1.837285   0.000000
    15  C    3.713078   3.860629   2.801698   1.324454   0.000000
    16  C    8.610697   8.994113   7.873198   6.431737   5.149647
    17  S    9.796817  10.126404   8.927152   7.585712   6.314247
    18  H   11.043074  11.799646  11.055349   9.348603   8.280879
    19  H   10.160803  11.023770  10.447740   8.667337   7.705376
    20  H    7.467839   8.065743   7.209805   5.547217   4.411902
    21  H    7.962337   8.970521   8.670027   6.838327   6.146156
    22  H    5.698867   6.421809   5.800327   4.015030   3.119670
    23  H    5.533551   6.737808   6.903470   5.158251   5.024143
    24  H    3.776801   4.544296   4.148677   2.312236   1.934715
    25  H    2.685754   4.042599   4.820073   3.585970   4.296884
    26  H    1.082671   2.166801   3.645644   3.458318   4.692674
    27  H    2.185995   1.079827   2.450720   3.622103   4.896027
    28  H    4.445085   4.275244   2.850312   2.041487   1.104396
                   16         17         18         19         20
    16  C    0.000000
    17  S    1.737167   0.000000
    18  H    4.056516   3.912849   0.000000
    19  H    4.186233   4.661826   1.605616   0.000000
    20  H    1.730381   3.014059   3.911180   3.507673   0.000000
    21  H    4.626396   5.467453   3.777499   2.588622   3.091174
    22  H    3.391171   4.644215   5.391905   4.661203   1.857308
    23  H    6.222519   7.313224   6.627732   5.470792   4.498978
    24  H    5.025164   6.270380   7.294293   6.483267   3.714920
    25  H    7.937490   9.130537   9.447277   8.391821   6.428686
    26  H    9.410779  10.612600  11.570410  10.601926   8.152541
    27  H   10.042171  11.157087  12.878142  12.096725   9.142085
    28  H    5.117808   6.192459   8.623960   8.192906   4.749526
                   21         22         23         24         25
    21  H    0.000000
    22  H    3.083524   0.000000
    23  H    2.919085   3.089874   0.000000
    24  H    4.534028   1.922508   3.091049   0.000000
    25  H    5.947021   4.583364   3.160935   3.034966   0.000000
    26  H    8.280470   6.328248   5.628538   4.440955   2.511132
    27  H   10.016976   7.501082   7.700064   5.618800   4.841662
    28  H    6.901775   3.818730   6.059764   2.985367   5.365912
                   26         27         28
    26  H    0.000000
    27  H    2.587416   0.000000
    28  H    5.489119   5.213249   0.000000
 Stoichiometry    C12H11N3S2
 Framework group  C1[X(C12H11N3S2)]
 Deg. of freedom    78
 Full point group                 C1      NOp   1
 Largest Abelian subgroup         C1      NOp   1
 Largest concise Abelian subgroup C1      NOp   1
                         Standard orientation:                         
 ---------------------------------------------------------------------
 Center     Atomic      Atomic             Coordinates (Angstroms)
 Number     Number       Type             X           Y           Z
 ---------------------------------------------------------------------
      1          7           0        5.355817   -1.259853    0.383363
      2          7           0        4.399379    0.853110    0.679998
      3          7           0        4.238058   -0.404891    0.091018
      4          6           0        2.931839   -0.814761    0.082715
      5          6           0        2.216392   -1.934525   -0.129935
      6          6           0        0.812716   -1.649088   -0.104077
      7          6           0       -0.298416   -2.424710   -0.243587
      8          6           0       -1.490924   -1.672282   -0.129897
      9          6           0       -2.830008   -1.860547   -0.180662
     10          6           0       -3.632978   -0.682255   -0.013907
     11          6           0       -5.049735   -0.761712   -0.035709
     12          6           0       -5.692426    0.456471    0.031056
     13         16           0       -4.638322    1.814260    0.072762
     14          6           0       -3.145394    0.743933    0.107128
     15          6           0       -1.910644    1.200375    0.252844
     16          6           0        3.215384    1.575437    0.572260
     17         16           0        4.248760    2.262586   -0.643352
     18          1           0        5.977632   -1.237858   -0.382035
     19          1           0        4.996179   -2.210672    0.435513
     20          1           0        2.361695    0.099712    0.276168
     21          1           0        2.606752   -2.937269   -0.245411
     22          1           0        0.645228   -0.579041    0.069704
     23          1           0       -0.253553   -3.495793   -0.412037
     24          1           0       -1.276867   -0.617185    0.058102
     25          1           0       -3.338082   -2.808512   -0.342517
     26          1           0       -5.579997   -1.703371   -0.101129
     27          1           0       -6.763260    0.594674    0.015507
     28          1           0       -1.850340    2.289197    0.427546
 ---------------------------------------------------------------------
 Rotational constants (GHZ):           0.7462472           0.1322826           0.1138622
 Standard basis: 6-31G(2df,p) (6D, 7F)
 There are   590 symmetry adapted cartesian basis functions of A   symmetry.
 There are   539 symmetry adapted basis functions of A   symmetry.
   539 basis functions,   873 primitive gaussians,   590 cartesian basis functions
    68 alpha electrons       68 beta electrons
       nuclear repulsion energy      1214.1943508321 Hartrees.
 NAtoms=   28 NActive=   28 NUniq=   28 SFac= 1.00D+00 NAtFMM=   60 NAOKFM=F Big=F
 Integral buffers will be    131072 words long.
 Raffenetti 2 integral format.
 Two-electron integral symmetry is turned on.
 One-electron integrals computed using PRISM.
 PrsmSu:  requested number of processors reduced to:  12 ShMem   1 Linda.
 NBasis=   539 RedAO= T EigKep=  1.82D-04  NBF=   539
 NBsUse=   539 1.00D-06 EigRej= -1.00D+00 NBFU=   539
 Lowest energy guess from the checkpoint file:  "NN1NdCCdCCdCCdc2ccsc2dCC1dS.chk"
 B after Tr=    -0.000000    0.000000   -0.000000
         Rot=    0.999974    0.001316    0.001369    0.006924 Ang=   0.82 deg.
 B after Tr=    -0.000000    0.000000   -0.000000
         Rot=    0.999999   -0.001141   -0.000483   -0.000894 Ang=  -0.18 deg.
 Requested convergence on RMS density matrix=1.00D-08 within 128 cycles.
 Requested convergence on MAX density matrix=1.00D-06.
 Requested convergence on             energy=1.00D-06.
 No special actions if energy rises.
 Integral accuracy reduced to 1.0D-05 until final iterations.
 Initial convergence to 1.0D-05 achieved.  Increase integral accuracy.
slurmstepd: error: *** JOB 27447170 ON lewis4-r630-hpc4-node538 CANCELLED AT 2023-05-17T08:19:22 DUE TO TIME LIMIT ***
