### Starting Gaussian ###
 Entering Gaussian System, Link 0=g16
 Initial command:
 /cluster/software/gaussian/gaussian-16-A.03/avx2/g16/l1.exe "/local/scratch/ks29c/Gau-19072.inp" -scrdir="/local/scratch/ks29c/"
 Entering Link 1 = /cluster/software/gaussian/gaussian-16-A.03/avx2/g16/l1.exe PID=     19073.
  
 Copyright (c) 1988,1990,1992,1993,1995,1998,2003,2009,2016,
            Gaussian, Inc.  All Rights Reserved.
  
 This is part of the Gaussian(R) 16 program.  It is based on
 the Gaussian(R) 09 system (copyright 2009, Gaussian, Inc.),
 the Gaussian(R) 03 system (copyright 2003, Gaussian, Inc.),
 the Gaussian(R) 98 system (copyright 1998, Gaussian, Inc.),
 the Gaussian(R) 94 system (copyright 1995, Gaussian, Inc.),
 the Gaussian 92(TM) system (copyright 1992, Gaussian, Inc.),
 the Gaussian 90(TM) system (copyright 1990, Gaussian, Inc.),
 the Gaussian 88(TM) system (copyright 1988, Gaussian, Inc.),
 the Gaussian 86(TM) system (copyright 1986, Carnegie Mellon
 University), and the Gaussian 82(TM) system (copyright 1983,
 Carnegie Mellon University). Gaussian is a federally registered
 trademark of Gaussian, Inc.
  
 This software contains proprietary and confidential information,
 including trade secrets, belonging to Gaussian, Inc.
  
 This software is provided under written license and may be
 used, copied, transmitted, or stored only in accord with that
 written license.
  
 The following legend is applicable only to US Government
 contracts under FAR:
  
                    RESTRICTED RIGHTS LEGEND
  
 Use, reproduction and disclosure by the US Government is
 subject to restrictions as set forth in subparagraphs (a)
 and (c) of the Commercial Computer Software - Restricted
 Rights clause in FAR 52.227-19.
  
 Gaussian, Inc.
 340 Quinnipiac St., Bldg. 40, Wallingford CT 06492
  
  
 ---------------------------------------------------------------
 Warning -- This program may not be used in any manner that
 competes with the business of Gaussian, Inc. or will provide
 assistance to any competitor of Gaussian, Inc.  The licensee
 of this program is prohibited from giving any competitor of
 Gaussian, Inc. access to this program.  By using this program,
 the user acknowledges that Gaussian, Inc. is engaged in the
 business of creating and licensing software in the field of
 computational chemistry and represents and warrants to the
 licensee that it is not a competitor of Gaussian, Inc. and that
 it will not use this program in any manner prohibited above.
 ---------------------------------------------------------------
  

 Cite this work as:
 Gaussian 16, Revision A.03,
 M. J. Frisch, G. W. Trucks, H. B. Schlegel, G. E. Scuseria, 
 M. A. Robb, J. R. Cheeseman, G. Scalmani, V. Barone, 
 G. A. Petersson, H. Nakatsuji, X. Li, M. Caricato, A. V. Marenich, 
 J. Bloino, B. G. Janesko, R. Gomperts, B. Mennucci, H. P. Hratchian, 
 J. V. Ortiz, A. F. Izmaylov, J. L. Sonnenberg, D. Williams-Young, 
 F. Ding, F. Lipparini, F. Egidi, J. Goings, B. Peng, A. Petrone, 
 T. Henderson, D. Ranasinghe, V. G. Zakrzewski, J. Gao, N. Rega, 
 G. Zheng, W. Liang, M. Hada, M. Ehara, K. Toyota, R. Fukuda, 
 J. Hasegawa, M. Ishida, T. Nakajima, Y. Honda, O. Kitao, H. Nakai, 
 T. Vreven, K. Throssell, J. A. Montgomery, Jr., J. E. Peralta, 
 F. Ogliaro, M. J. Bearpark, J. J. Heyd, E. N. Brothers, K. N. Kudin, 
 V. N. Staroverov, T. A. Keith, R. Kobayashi, J. Normand, 
 K. Raghavachari, A. P. Rendell, J. C. Burant, S. S. Iyengar, 
 J. Tomasi, M. Cossi, J. M. Millam, M. Klene, C. Adamo, R. Cammi, 
 J. W. Ochterski, R. L. Martin, K. Morokuma, O. Farkas, 
 J. B. Foresman, and D. J. Fox, Gaussian, Inc., Wallingford CT, 2016.
 
 ******************************************
 Gaussian 16:  ES64L-G16RevA.03 25-Dec-2016
                19-May-2023 
 ******************************************
 %chk=NN1NCdCCdC2CCCCdC2CdCCdC1O.chk
 %NProcShared=20
 Will use up to   20 processors via shared memory.
 -----------------------------
 # opt freq b3lyp/6-31g(2df,p)
 -----------------------------
 1/18=20,19=15,26=3,38=1/1,3;
 2/9=110,12=2,17=6,18=5,40=1/2;
 3/5=1,6=6,7=104,11=2,25=1,30=1,71=1,74=-5/1,2,3;
 4//1;
 5/5=2,38=5/2;
 6/7=2,8=2,9=2,10=2,28=1/1;
 7//1,2,3,16;
 1/18=20,19=15,26=3/3(2);
 2/9=110/2;
 99//99;
 2/9=110/2;
 3/5=1,6=6,7=104,11=2,25=1,30=1,71=1,74=-5/1,2,3;
 4/5=5,16=3,69=1/1;
 5/5=2,38=5/2;
 7//1,2,3,16;
 1/18=20,19=15,26=3/3(-5);
 2/9=110/2;
 6/7=2,8=2,9=2,10=2,19=2,28=1/1;
 99/9=1/99;
 -------------------
 Title Card Required
 -------------------
 Symbolic Z-matrix:
 Charge =  0 Multiplicity = 1
 N                     1.03901   0.16292  -0.3296 
 N                     2.24554   0.29355  -0.98912 
 N                     3.1544    1.30563  -0.93325 
 C                     4.72287   0.91456  -0.8806 
 C                     5.54739   0.70626  -1.90882 
 C                     6.91953   0.33319  -2.25745 
 C                     7.49386   0.41976  -3.50163 
 C                     8.97205   0.4432   -3.46499 
 C                     9.75481   0.60764  -4.72912 
 C                     8.98994   0.77234  -6.02312 
 C                     7.47866   0.75987  -5.94764 
 C                     6.8093    0.60314  -4.82438 
 C                     5.35199   0.4148   -4.6178 
 C                     4.07969   0.32081  -4.72407 
 C                     3.11983  -0.28167  -3.2779 
 C                     2.86796  -0.70351  -1.71257 
 O                     3.57771  -1.13476  -0.35419 
 H                     0.34096   0.26476  -1.06576 
 H                     0.7919    0.85004   0.39166 
 H                     2.8899    1.54628  -1.91542 
 H                     5.10257   0.41277   0.01244 
 H                     4.9173    0.9535   -2.70119 
 H                     7.57969   0.1779   -1.41146 
 H                     9.30121  -0.47786  -2.97545 
 H                     9.22884   1.3061   -2.83408 
 H                     10.43277  -0.25105  -4.80661 
 H                     10.37444   1.50195  -4.59247 
 H                     9.33452  -0.02367  -6.69499 
 H                     9.30015   1.73523  -6.43842 
 H                     6.99041   0.8559   -6.92842 
 H                     5.36029  -0.28646  -3.83312 
 H                     3.8391    0.62313  -5.78769 
 H                     2.28317   0.2329   -3.79081 
 H                     3.16209  -0.51877   0.42409 
 

 GradGradGradGradGradGradGradGradGradGradGradGradGradGradGradGradGradGrad
 Berny optimization.
 Initialization pass.
                           ----------------------------
                           !    Initial Parameters    !
                           ! (Angstroms and Degrees)  !
 --------------------------                            --------------------------
 ! Name  Definition              Value          Derivative Info.                !
 --------------------------------------------------------------------------------
 ! R1    R(1,2)                  1.3812         estimate D2E/DX2                !
 ! R2    R(1,18)                 1.0196         estimate D2E/DX2                !
 ! R3    R(1,19)                 1.0264         estimate D2E/DX2                !
 ! R4    R(2,3)                  1.3614         estimate D2E/DX2                !
 ! R5    R(2,16)                 1.3802         estimate D2E/DX2                !
 ! R6    R(3,4)                  1.6173         estimate D2E/DX2                !
 ! R7    R(3,20)                 1.0452         estimate D2E/DX2                !
 ! R8    R(4,5)                  1.3343         estimate D2E/DX2                !
 ! R9    R(4,21)                 1.0925         estimate D2E/DX2                !
 ! R10   R(5,6)                  1.4641         estimate D2E/DX2                !
 ! R11   R(5,22)                 1.0421         estimate D2E/DX2                !
 ! R12   R(6,7)                  1.3731         estimate D2E/DX2                !
 ! R13   R(6,23)                 1.0843         estimate D2E/DX2                !
 ! R14   R(7,8)                  1.4788         estimate D2E/DX2                !
 ! R15   R(7,12)                 1.5006         estimate D2E/DX2                !
 ! R16   R(8,9)                  1.4959         estimate D2E/DX2                !
 ! R17   R(8,24)                 1.0938         estimate D2E/DX2                !
 ! R18   R(8,25)                 1.0994         estimate D2E/DX2                !
 ! R19   R(9,10)                 1.5121         estimate D2E/DX2                !
 ! R20   R(9,26)                 1.0968         estimate D2E/DX2                !
 ! R21   R(9,27)                 1.0965         estimate D2E/DX2                !
 ! R22   R(10,11)                1.5132         estimate D2E/DX2                !
 ! R23   R(10,28)                1.0972         estimate D2E/DX2                !
 ! R24   R(10,29)                1.0936         estimate D2E/DX2                !
 ! R25   R(11,12)                1.3169         estimate D2E/DX2                !
 ! R26   R(11,30)                1.0998         estimate D2E/DX2                !
 ! R27   R(12,13)                1.4839         estimate D2E/DX2                !
 ! R28   R(13,14)                1.2802         estimate D2E/DX2                !
 ! R29   R(13,31)                1.0524         estimate D2E/DX2                !
 ! R30   R(14,32)                1.1316         estimate D2E/DX2                !
 ! R31   R(15,16)                1.6406         estimate D2E/DX2                !
 ! R32   R(15,33)                1.1081         estimate D2E/DX2                !
 ! R33   R(16,17)                1.5921         estimate D2E/DX2                !
 ! R34   R(17,34)                1.0761         estimate D2E/DX2                !
 ! A1    A(2,1,18)             104.1136         estimate D2E/DX2                !
 ! A2    A(2,1,19)             118.8521         estimate D2E/DX2                !
 ! A3    A(18,1,19)            106.0025         estimate D2E/DX2                !
 ! A4    A(1,2,3)              129.3361         estimate D2E/DX2                !
 ! A5    A(1,2,16)             125.1626         estimate D2E/DX2                !
 ! A6    A(3,2,16)             104.9213         estimate D2E/DX2                !
 ! A7    A(2,3,4)              117.969          estimate D2E/DX2                !
 ! A8    A(2,3,20)              87.9175         estimate D2E/DX2                !
 ! A9    A(4,3,20)             109.3698         estimate D2E/DX2                !
 ! A10   A(3,4,5)              127.7279         estimate D2E/DX2                !
 ! A11   A(3,4,21)             118.3419         estimate D2E/DX2                !
 ! A12   A(5,4,21)             110.087          estimate D2E/DX2                !
 ! A13   A(4,5,6)              143.3598         estimate D2E/DX2                !
 ! A14   A(4,5,22)             100.094          estimate D2E/DX2                !
 ! A15   A(6,5,22)             116.4913         estimate D2E/DX2                !
 ! A16   A(5,6,7)              126.2793         estimate D2E/DX2                !
 ! A17   A(5,6,23)             114.9184         estimate D2E/DX2                !
 ! A18   A(7,6,23)             117.4748         estimate D2E/DX2                !
 ! A19   A(6,7,8)              113.3688         estimate D2E/DX2                !
 ! A20   A(6,7,12)             127.996          estimate D2E/DX2                !
 ! A21   A(8,7,12)             118.4169         estimate D2E/DX2                !
 ! A22   A(7,8,9)              120.2545         estimate D2E/DX2                !
 ! A23   A(7,8,24)             107.3706         estimate D2E/DX2                !
 ! A24   A(7,8,25)             105.0784         estimate D2E/DX2                !
 ! A25   A(9,8,24)             108.2592         estimate D2E/DX2                !
 ! A26   A(9,8,25)             106.049          estimate D2E/DX2                !
 ! A27   A(24,8,25)            109.5008         estimate D2E/DX2                !
 ! A28   A(8,9,10)             118.0628         estimate D2E/DX2                !
 ! A29   A(8,9,26)             107.2825         estimate D2E/DX2                !
 ! A30   A(8,9,27)             106.2618         estimate D2E/DX2                !
 ! A31   A(10,9,26)            109.7228         estimate D2E/DX2                !
 ! A32   A(10,9,27)            107.6761         estimate D2E/DX2                !
 ! A33   A(26,9,27)            107.3394         estimate D2E/DX2                !
 ! A34   A(9,10,11)            117.4896         estimate D2E/DX2                !
 ! A35   A(9,10,28)            106.6273         estimate D2E/DX2                !
 ! A36   A(9,10,29)            106.1052         estimate D2E/DX2                !
 ! A37   A(11,10,28)           109.769          estimate D2E/DX2                !
 ! A38   A(11,10,29)           108.0296         estimate D2E/DX2                !
 ! A39   A(28,10,29)           108.4922         estimate D2E/DX2                !
 ! A40   A(10,11,12)           123.4457         estimate D2E/DX2                !
 ! A41   A(10,11,30)           113.4643         estimate D2E/DX2                !
 ! A42   A(12,11,30)           123.0508         estimate D2E/DX2                !
 ! A43   A(7,12,11)            122.3105         estimate D2E/DX2                !
 ! A44   A(7,12,13)            108.0464         estimate D2E/DX2                !
 ! A45   A(11,12,13)           129.2731         estimate D2E/DX2                !
 ! A46   A(12,13,31)           100.4064         estimate D2E/DX2                !
 ! A47   A(14,13,31)            91.1924         estimate D2E/DX2                !
 ! A48   A(13,14,32)           105.6467         estimate D2E/DX2                !
 ! A49   A(16,15,33)           116.4311         estimate D2E/DX2                !
 ! A50   A(2,16,15)            112.5567         estimate D2E/DX2                !
 ! A51   A(2,16,17)             87.1052         estimate D2E/DX2                !
 ! A52   A(15,16,17)           144.6101         estimate D2E/DX2                !
 ! A53   A(16,17,34)           106.8485         estimate D2E/DX2                !
 ! A54   L(12,13,14,31,-1)     191.5988         estimate D2E/DX2                !
 ! A55   L(12,13,14,31,-2)     186.2111         estimate D2E/DX2                !
 ! D1    D(18,1,2,3)           110.1069         estimate D2E/DX2                !
 ! D2    D(18,1,2,16)          -79.9776         estimate D2E/DX2                !
 ! D3    D(19,1,2,3)            -7.4787         estimate D2E/DX2                !
 ! D4    D(19,1,2,16)          162.4369         estimate D2E/DX2                !
 ! D5    D(1,2,3,4)            138.4779         estimate D2E/DX2                !
 ! D6    D(1,2,3,20)          -110.639          estimate D2E/DX2                !
 ! D7    D(16,2,3,4)           -33.0028         estimate D2E/DX2                !
 ! D8    D(16,2,3,20)           77.8803         estimate D2E/DX2                !
 ! D9    D(1,2,16,15)          121.3766         estimate D2E/DX2                !
 ! D10   D(1,2,16,17)          -88.9813         estimate D2E/DX2                !
 ! D11   D(3,2,16,15)          -66.6802         estimate D2E/DX2                !
 ! D12   D(3,2,16,17)           82.9618         estimate D2E/DX2                !
 ! D13   D(2,3,4,5)             88.1837         estimate D2E/DX2                !
 ! D14   D(2,3,4,21)           -67.4156         estimate D2E/DX2                !
 ! D15   D(20,3,4,5)           -10.0419         estimate D2E/DX2                !
 ! D16   D(20,3,4,21)         -165.6412         estimate D2E/DX2                !
 ! D17   D(3,4,5,6)           -178.095          estimate D2E/DX2                !
 ! D18   D(3,4,5,22)             4.9981         estimate D2E/DX2                !
 ! D19   D(21,4,5,6)           -20.872          estimate D2E/DX2                !
 ! D20   D(21,4,5,22)          162.2212         estimate D2E/DX2                !
 ! D21   D(4,5,6,7)           -168.8862         estimate D2E/DX2                !
 ! D22   D(4,5,6,23)            -2.4633         estimate D2E/DX2                !
 ! D23   D(22,5,6,7)             7.7109         estimate D2E/DX2                !
 ! D24   D(22,5,6,23)          174.1338         estimate D2E/DX2                !
 ! D25   D(5,6,7,8)            159.2823         estimate D2E/DX2                !
 ! D26   D(5,6,7,12)           -15.2041         estimate D2E/DX2                !
 ! D27   D(23,6,7,8)            -6.8333         estimate D2E/DX2                !
 ! D28   D(23,6,7,12)          178.6803         estimate D2E/DX2                !
 ! D29   D(6,7,8,9)           -176.7672         estimate D2E/DX2                !
 ! D30   D(6,7,8,24)            59.0029         estimate D2E/DX2                !
 ! D31   D(6,7,8,25)           -57.5178         estimate D2E/DX2                !
 ! D32   D(12,7,8,9)            -1.7059         estimate D2E/DX2                !
 ! D33   D(12,7,8,24)         -125.9358         estimate D2E/DX2                !
 ! D34   D(12,7,8,25)          117.5435         estimate D2E/DX2                !
 ! D35   D(6,7,12,11)          175.4377         estimate D2E/DX2                !
 ! D36   D(6,7,12,13)          -10.9485         estimate D2E/DX2                !
 ! D37   D(8,7,12,11)            1.1932         estimate D2E/DX2                !
 ! D38   D(8,7,12,13)          174.807          estimate D2E/DX2                !
 ! D39   D(7,8,9,10)             1.1003         estimate D2E/DX2                !
 ! D40   D(7,8,9,26)          -123.3981         estimate D2E/DX2                !
 ! D41   D(7,8,9,27)           122.0268         estimate D2E/DX2                !
 ! D42   D(24,8,9,10)          124.9071         estimate D2E/DX2                !
 ! D43   D(24,8,9,26)            0.4087         estimate D2E/DX2                !
 ! D44   D(24,8,9,27)         -114.1664         estimate D2E/DX2                !
 ! D45   D(25,8,9,10)         -117.6615         estimate D2E/DX2                !
 ! D46   D(25,8,9,26)          117.8401         estimate D2E/DX2                !
 ! D47   D(25,8,9,27)            3.265          estimate D2E/DX2                !
 ! D48   D(8,9,10,11)            0.0313         estimate D2E/DX2                !
 ! D49   D(8,9,10,28)         -123.5627         estimate D2E/DX2                !
 ! D50   D(8,9,10,29)          120.9213         estimate D2E/DX2                !
 ! D51   D(26,9,10,11)         123.3138         estimate D2E/DX2                !
 ! D52   D(26,9,10,28)          -0.2802         estimate D2E/DX2                !
 ! D53   D(26,9,10,29)        -115.7962         estimate D2E/DX2                !
 ! D54   D(27,9,10,11)        -120.1643         estimate D2E/DX2                !
 ! D55   D(27,9,10,28)         116.2417         estimate D2E/DX2                !
 ! D56   D(27,9,10,29)           0.7257         estimate D2E/DX2                !
 ! D57   D(9,10,11,12)          -0.5848         estimate D2E/DX2                !
 ! D58   D(9,10,11,30)        -178.3678         estimate D2E/DX2                !
 ! D59   D(28,10,11,12)        121.4058         estimate D2E/DX2                !
 ! D60   D(28,10,11,30)        -56.3771         estimate D2E/DX2                !
 ! D61   D(29,10,11,12)       -120.4672         estimate D2E/DX2                !
 ! D62   D(29,10,11,30)         61.7499         estimate D2E/DX2                !
 ! D63   D(10,11,12,7)          -0.0341         estimate D2E/DX2                !
 ! D64   D(10,11,12,13)       -172.1821         estimate D2E/DX2                !
 ! D65   D(30,11,12,7)         177.5394         estimate D2E/DX2                !
 ! D66   D(30,11,12,13)          5.3914         estimate D2E/DX2                !
 ! D67   D(7,12,13,31)         -31.4011         estimate D2E/DX2                !
 ! D68   D(11,12,13,31)        141.6239         estimate D2E/DX2                !
 ! D69   D(7,12,14,32)         173.7274         estimate D2E/DX2                !
 ! D70   D(11,12,14,32)        -12.3771         estimate D2E/DX2                !
 ! D71   D(31,13,14,32)       -155.3328         estimate D2E/DX2                !
 ! D72   D(33,15,16,2)         -43.0722         estimate D2E/DX2                !
 ! D73   D(33,15,16,17)       -162.4313         estimate D2E/DX2                !
 ! D74   D(2,16,17,34)           5.0087         estimate D2E/DX2                !
 ! D75   D(15,16,17,34)        131.3097         estimate D2E/DX2                !
 --------------------------------------------------------------------------------
 Trust Radius=3.00D-01 FncErr=1.00D-07 GrdErr=1.00D-06 EigMax=2.50D+02 EigMin=1.00D-04
 Number of steps in this run=    174 maximum allowed number of steps=    204.
 GradGradGradGradGradGradGradGradGradGradGradGradGradGradGradGradGradGrad

                          Input orientation:                          
 ---------------------------------------------------------------------
 Center     Atomic      Atomic             Coordinates (Angstroms)
 Number     Number       Type             X           Y           Z
 ---------------------------------------------------------------------
      1          7           0        1.039010    0.162920   -0.329600
      2          7           0        2.245540    0.293550   -0.989120
      3          7           0        3.154400    1.305630   -0.933250
      4          6           0        4.722870    0.914560   -0.880600
      5          6           0        5.547390    0.706260   -1.908820
      6          6           0        6.919530    0.333190   -2.257450
      7          6           0        7.493860    0.419760   -3.501630
      8          6           0        8.972050    0.443200   -3.464990
      9          6           0        9.754810    0.607640   -4.729120
     10          6           0        8.989940    0.772340   -6.023120
     11          6           0        7.478660    0.759870   -5.947640
     12          6           0        6.809300    0.603140   -4.824380
     13          6           0        5.351990    0.414800   -4.617800
     14          6           0        4.079690    0.320810   -4.724070
     15          6           0        3.119830   -0.281670   -3.277900
     16          6           0        2.867960   -0.703510   -1.712570
     17          8           0        3.577710   -1.134760   -0.354190
     18          1           0        0.340960    0.264760   -1.065760
     19          1           0        0.791900    0.850040    0.391660
     20          1           0        2.889900    1.546280   -1.915420
     21          1           0        5.102570    0.412770    0.012440
     22          1           0        4.917300    0.953500   -2.701190
     23          1           0        7.579690    0.177900   -1.411460
     24          1           0        9.301210   -0.477860   -2.975450
     25          1           0        9.228840    1.306100   -2.834080
     26          1           0       10.432770   -0.251050   -4.806610
     27          1           0       10.374440    1.501950   -4.592470
     28          1           0        9.334520   -0.023670   -6.694990
     29          1           0        9.300150    1.735230   -6.438420
     30          1           0        6.990410    0.855900   -6.928420
     31          1           0        5.360290   -0.286460   -3.833120
     32          1           0        3.839100    0.623130   -5.787690
     33          1           0        2.283170    0.232900   -3.790810
     34          1           0        3.162090   -0.518770    0.424090
 ---------------------------------------------------------------------
                    Distance matrix (angstroms):
                    1          2          3          4          5
     1  N    0.000000
     2  N    1.381212   0.000000
     3  N    2.478922   1.361416   0.000000
     4  C    3.799919   2.556285   1.617345   0.000000
     5  C    4.807769   3.452302   2.652807   1.334338   0.000000
     6  C    6.190809   4.843182   4.107962   2.656882   1.464067
     7  C    7.196724   5.820094   5.119790   3.846168   2.531377
     8  C    8.534773   7.169258   6.403011   4.995676   3.770830
     9  C    9.773368   8.394962   7.645994   6.342375   5.066182
    10  C    9.798206   8.429551   7.761746   6.683833   5.364977
    11  C    8.566669   7.224259   6.643883   5.770026   4.477136
    12  C    7.327557   5.969336   5.384485   4.472535   3.178607
    13  C    6.087191   4.778290   4.381654   3.822593   2.731612
    14  C    5.346216   4.161094   4.024469   3.941888   3.198179
    15  C    3.635924   2.516699   2.831625   3.122139   2.956930
    16  C    2.451197   1.380187   2.173944   2.598272   3.034025
    17  O    2.851241   2.053748   2.543620   2.405870   3.112213
    18  H    1.019596   1.906339   3.002734   4.433696   5.292692
    19  H    1.026359   2.080698   2.746699   4.132231   5.284654
    20  H    2.802553   1.685990   1.045242   2.197658   2.787101
    21  H    4.085577   3.029844   2.342412   1.092468   1.993801
    22  H    4.614173   3.241145   2.521393   1.831357   1.042109
    23  H    6.629566   5.352093   4.591694   2.997649   2.157956
    24  H    8.699142   7.370418   6.718236   5.223833   4.078113
    25  H    8.640173   7.293532   6.364902   4.926779   3.843044
    26  H   10.414303   9.049892   8.390521   7.026746   5.760258
    27  H   10.349653   8.973482   8.096753   6.786991   5.579920
    28  H   10.457939   9.105560   8.553278   7.480289   6.146753
    29  H   10.394050   9.029996   8.262064   7.246679   5.971538
    30  H    8.913126   7.622684   7.131570   6.459203   5.225044
    31  H    5.581223   4.257513   3.976172   3.250558   2.173345
    32  H    6.151670   5.066984   4.949768   4.994548   4.239198
    33  H    3.678696   2.802599   3.174183   3.858253   3.797511
    34  H    2.353767   1.870051   2.273954   2.488511   3.554268
                    6          7          8          9         10
     6  C    0.000000
     7  C    1.373074   0.000000
     8  C    2.383924   1.478830   0.000000
     9  C    3.771377   2.579520   1.495921   0.000000
    10  C    4.319690   2.953046   2.579279   1.512147   0.000000
    11  C    3.756619   2.469589   2.914454   2.586276   1.513215
    12  C    2.583438   1.500639   2.559494   2.947053   2.494153
    13  C    2.834624   2.415257   3.799291   4.408447   3.916304
    14  C    3.761523   3.627769   5.053261   5.682366   5.099212
    15  C    3.982096   4.435561   5.899908   6.849808   6.565467
    16  C    4.217447   5.085413   6.453358   7.631998   7.631357
    17  O    4.116435   5.259196   6.423857   7.767402   8.066352
    18  H    6.685985   7.557874   8.960126  10.107341   9.981879
    19  H    6.695728   7.762675   9.052852  10.325449  10.409769
    20  H    4.222143   4.998155   6.372637   7.478298   7.394773
    21  H    2.908621   4.250530   5.202530   6.645578   7.188110
    22  H    2.142572   2.750317   4.157499   5.256769   5.258748
    23  H    1.084263   2.105866   2.495203   3.990325   4.858968
    24  H    2.616434   2.085450   1.093777   2.111734   3.308804
    25  H    2.571375   2.059460   1.099357   2.087024   3.242214
    26  H    4.379773   3.284837   2.101340   1.096806   2.146854
    27  H    4.330672   3.264783   2.087788   1.096542   2.120361
    28  H    5.064710   3.712440   3.283634   2.107093   1.097168
    29  H    5.011345   3.690241   3.258570   2.097589   1.093555
    30  H    4.700661   3.490927   4.011554   3.541251   2.196513
    31  H    2.301724   2.271729   3.703071   4.573187   4.369384
    32  H    4.694221   4.315634   5.636886   6.009695   5.158376
    33  H    4.884372   5.222052   6.700112   7.539646   7.089074
    34  H    4.694129   5.920840   7.057334   8.443242   8.786200
                   11         12         13         14         15
    11  C    0.000000
    12  C    1.316936   0.000000
    13  C    2.531852   1.483880   0.000000
    14  C    3.639079   2.746005   1.280185   0.000000
    15  C    5.216485   4.097155   2.694984   1.837314   0.000000
    16  C    6.429296   5.188917   3.982635   3.403917   1.640624
    17  O    7.077691   5.783258   4.871096   4.633198   3.079853
    18  H    8.661677   7.488735   6.144097   5.231107   3.593643
    19  H    9.214533   7.967254   6.788118   6.104125   4.490623
    20  H    6.159055   4.971243   3.826878   3.287232   2.291423
    21  H    6.425639   5.132640   4.636953   4.846573   3.903824
    22  H    4.139746   2.865371   2.037780   2.279020   2.255912
    23  H    4.574475   3.524536   3.911443   4.821183   4.856455
    24  H    3.699673   3.285836   4.369267   5.564155   6.191884
    25  H    3.613275   3.210860   4.359592   5.572845   6.327558
    26  H    3.324255   3.722834   5.127702   6.379300   7.471076
    27  H    3.282181   3.684001   5.138827   6.405957   7.585431
    28  H    2.148647   3.204498   4.513039   5.622849   7.096861
    29  H    2.123680   3.176647   4.543805   5.673868   7.228632
    30  H    1.099791   2.126893   2.866697   3.690226   5.440749
    31  H    3.170724   1.968150   1.052405   1.674068   2.308236
    32  H    3.645638   3.122572   1.923767   1.131622   2.763161
    33  H    5.650020   4.657381   3.183497   2.026373   1.108088
    34  H    7.801708   6.489011   5.575650   5.296266   3.709816
                   16         17         18         19         20
    16  C    0.000000
    17  O    1.592143   0.000000
    18  H    2.782380   3.597435   0.000000
    19  H    3.339360   3.500923   1.634005   0.000000
    20  H    2.259023   3.177813   2.976795   3.195148   0.000000
    21  H    3.035658   2.203285   4.884399   4.349355   3.146013
    22  H    2.814755   3.415222   4.908348   5.157068   2.253702
    23  H    4.802911   4.342435   7.247501   7.055289   4.911270
    24  H    6.559915   6.329374   9.191544   9.247113   6.806299
    25  H    6.764400   6.636484   9.121719   9.044078   6.409663
    26  H    8.185607   8.221729  10.775187  11.008214   8.275522
    27  H    8.336973   8.432722  10.706962  10.820888   7.949019
    28  H    8.191648   8.636037  10.613932  11.133748   8.175705
    29  H    8.345908   8.831818  10.549637  10.946409   7.847582
    30  H    6.828722   7.670055   8.884560   9.591931   6.513139
    31  H    3.298844   4.000020   5.758107   6.325392   3.624822
    32  H    4.394279   5.716767   5.887447   6.893568   4.092391
    33  H    2.353280   3.918761   3.346504   4.483057   2.368581
    34  H    2.164707   1.076059   3.285171   2.737242   3.132383
                   21         22         23         24         25
    21  H    0.000000
    22  H    2.773175   0.000000
    23  H    2.866841   3.058313   0.000000
    24  H    5.229655   4.619814   2.416551   0.000000
    25  H    5.091838   4.327975   2.452831   1.791015   0.000000
    26  H    7.216296   6.025292   4.455458   2.164490   2.786582
    27  H    7.084075   5.801561   4.436503   2.772404   2.107769
    28  H    7.942890   6.034661   5.570974   3.747316   4.084860
    29  H    7.809108   5.812690   5.536749   4.109736   3.630496
    30  H    7.206653   4.709223   5.589614   4.769139   4.687949
    31  H    3.917100   1.736377   3.317500   4.037708   4.301163
    32  H    5.939875   3.286053   5.774221   6.241436   6.183814
    33  H    4.737729   2.940268   5.806673   7.100907   7.092914
    34  H    2.191503   3.875012   4.834230   7.017645   7.123993
                   26         27         28         29         30
    26  H    0.000000
    27  H    1.766994   0.000000
    28  H    2.196323   2.798132   0.000000
    29  H    2.809082   2.148499   1.777847   0.000000
    30  H    4.192524   4.162415   2.514555   2.519567   0.000000
    31  H    5.165171   5.377427   4.904474   5.137832   3.680103
    32  H    6.723332   6.701608   5.607244   5.610997   3.359494
    33  H    8.226909   8.229325   7.630310   7.648846   5.691295
    34  H    8.960730   9.014831   9.435323   9.478942   8.402687
                   31         32         33         34
    31  H    0.000000
    32  H    2.638507   0.000000
    33  H    3.120928   2.561392   0.000000
    34  H    4.796862   6.352046   4.370685   0.000000
 Stoichiometry    C13H17N3O
 Framework group  C1[X(C13H17N3O)]
 Deg. of freedom    96
 Full point group                 C1      NOp   1
 Largest Abelian subgroup         C1      NOp   1
 Largest concise Abelian subgroup C1      NOp   1
                         Standard orientation:                         
 ---------------------------------------------------------------------
 Center     Atomic      Atomic             Coordinates (Angstroms)
 Number     Number       Type             X           Y           Z
 ---------------------------------------------------------------------
      1          7           0        5.048472    0.232683   -0.163803
      2          7           0        3.672142    0.121974   -0.198490
      3          7           0        2.872980   -0.406063   -1.165947
      4          6           0        1.622169   -1.320042   -0.701276
      5          6           0        0.386498   -0.919003   -0.396739
      6          6           0       -0.921719   -1.389624    0.062148
      7          6           0       -2.088121   -0.665234    0.072019
      8          6           0       -3.301977   -1.508570    0.119713
      9          6           0       -4.658607   -0.880755    0.063315
     10          6           0       -4.741475    0.623380   -0.068214
     11          6           0       -3.439406    1.391513   -0.134595
     12          6           0       -2.255015    0.819067   -0.072603
     13          6           0       -0.913599    1.444827    0.031931
     14          6           0        0.095512    2.231737    0.068568
     15          6           0        1.730695    1.541320    0.543142
     16          6           0        2.828076    0.365259    0.866066
     17          8           0        3.011148   -1.167199    1.257189
     18          1           0        5.219919    1.233171   -0.259745
     19          1           0        5.600555   -0.220929   -0.900589
     20          1           0        2.538375    0.563862   -1.365483
     21          1           0        1.830530   -2.283724   -0.230755
     22          1           0        0.460144    0.093699   -0.631265
     23          1           0       -0.997615   -2.461946    0.203536
     24          1           0       -3.242614   -2.115272    1.027863
     25          1           0       -3.231969   -2.160726   -0.762544
     26          1           0       -5.205028   -1.204786    0.957413
     27          1           0       -5.164024   -1.319287   -0.805390
     28          1           0       -5.340001    0.980138    0.779293
     29          1           0       -5.296150    0.817140   -0.990523
     30          1           0       -3.576421    2.480711   -0.201040
     31          1           0       -0.440768    0.772264    0.688929
     32          1           0       -0.308031    3.257643   -0.186850
     33          1           0        2.110560    2.439252    0.016568
     34          1           0        3.740004   -1.577022    0.579903
 ---------------------------------------------------------------------
 Rotational constants (GHZ):           1.2615337           0.2279267           0.2048150
 Standard basis: 6-31G(2df,p) (6D, 7F)
 There are   612 symmetry adapted cartesian basis functions of A   symmetry.
 There are   561 symmetry adapted basis functions of A   symmetry.
   561 basis functions,   867 primitive gaussians,   612 cartesian basis functions
    62 alpha electrons       62 beta electrons
       nuclear repulsion energy      1175.9558654177 Hartrees.
 NAtoms=   34 NActive=   34 NUniq=   34 SFac= 1.00D+00 NAtFMM=   60 NAOKFM=F Big=F
 Integral buffers will be    131072 words long.
 Raffenetti 2 integral format.
 Two-electron integral symmetry is turned on.
 One-electron integrals computed using PRISM.
 PrsmSu:  requested number of processors reduced to:  12 ShMem   1 Linda.
 NBasis=   561 RedAO= T EigKep=  2.16D-04  NBF=   561
 NBsUse=   561 1.00D-06 EigRej= -1.00D+00 NBFU=   561
 ExpMin= 1.61D-01 ExpMax= 5.48D+03 ExpMxC= 8.25D+02 IAcc=3 IRadAn=         5 AccDes= 0.00D+00
 Harris functional with IExCor=  402 and IRadAn=       5 diagonalized for initial guess.
 HarFok:  IExCor=  402 AccDes= 0.00D+00 IRadAn=         5 IDoV= 1 UseB2=F ITyADJ=14
 ICtDFT=  3500011 ScaDFX=  1.000000  1.000000  1.000000  1.000000
 FoFCou: FMM=F IPFlag=           0 FMFlag=      100000 FMFlg1=           0
         NFxFlg=           0 DoJE=T BraDBF=F KetDBF=T FulRan=T
         wScrn=  0.000000 ICntrl=       500 IOpCl=  0 I1Cent=   200000004 NGrid=           0
         NMat0=    1 NMatS0=      1 NMatT0=    0 NMatD0=    1 NMtDS0=    0 NMtDT0=    0
 Petite list used in FoFCou.
 Requested convergence on RMS density matrix=1.00D-08 within 128 cycles.
 Requested convergence on MAX density matrix=1.00D-06.
 Requested convergence on             energy=1.00D-06.
 No special actions if energy rises.
 Integral accuracy reduced to 1.0D-05 until final iterations.
 Initial convergence to 1.0D-05 achieved.  Increase integral accuracy.
 SCF Done:  E(RB3LYP) =  -744.459049326     A.U. after   19 cycles
            NFock= 19  Conv=0.67D-08     -V/T= 2.0077

 **********************************************************************

            Population analysis using the SCF density.

 **********************************************************************

 Orbital symmetries:
       Occupied  (A) (A) (A) (A) (A) (A) (A) (A) (A) (A) (A) (A)
                 (A) (A) (A) (A) (A) (A) (A) (A) (A) (A) (A) (A)
                 (A) (A) (A) (A) (A) (A) (A) (A) (A) (A) (A) (A)
                 (A) (A) (A) (A) (A) (A) (A) (A) (A) (A) (A) (A)
                 (A) (A) (A) (A) (A) (A) (A) (A) (A) (A) (A) (A)
                 (A) (A)
       Virtual   (A) (A) (A) (A) (A) (A) (A) (A) (A) (A) (A) (A)
                 (A) (A) (A) (A) (A) (A) (A) (A) (A) (A) (A) (A)
                 (A) (A) (A) (A) (A) (A) (A) (A) (A) (A) (A) (A)
                 (A) (A) (A) (A) (A) (A) (A) (A) (A) (A) (A) (A)
                 (A) (A) (A) (A) (A) (A) (A) (A) (A) (A) (A) (A)
                 (A) (A) (A) (A) (A) (A) (A) (A) (A) (A) (A) (A)
                 (A) (A) (A) (A) (A) (A) (A) (A) (A) (A) (A) (A)
                 (A) (A) (A) (A) (A) (A) (A) (A) (A) (A) (A) (A)
                 (A) (A) (A) (A) (A) (A) (A) (A) (A) (A) (A) (A)
                 (A) (A) (A) (A) (A) (A) (A) (A) (A) (A) (A) (A)
                 (A) (A) (A) (A) (A) (A) (A) (A) (A) (A) (A) (A)
                 (A) (A) (A) (A) (A) (A) (A) (A) (A) (A) (A) (A)
                 (A) (A) (A) (A) (A) (A) (A) (A) (A) (A) (A) (A)
                 (A) (A) (A) (A) (A) (A) (A) (A) (A) (A) (A) (A)
                 (A) (A) (A) (A) (A) (A) (A) (A) (A) (A) (A) (A)
                 (A) (A) (A) (A) (A) (A) (A) (A) (A) (A) (A) (A)
                 (A) (A) (A) (A) (A) (A) (A) (A) (A) (A) (A) (A)
                 (A) (A) (A) (A) (A) (A) (A) (A) (A) (A) (A) (A)
                 (A) (A) (A) (A) (A) (A) (A) (A) (A) (A) (A) (A)
                 (A) (A) (A) (A) (A) (A) (A) (A) (A) (A) (A) (A)
                 (A) (A) (A) (A) (A) (A) (A) (A) (A) (A) (A) (A)
                 (A) (A) (A) (A) (A) (A) (A) (A) (A) (A) (A) (A)
                 (A) (A) (A) (A) (A) (A) (A) (A) (A) (A) (A) (A)
                 (A) (A) (A) (A) (A) (A) (A) (A) (A) (A) (A) (A)
                 (A) (A) (A) (A) (A) (A) (A) (A) (A) (A) (A) (A)
                 (A) (A) (A) (A) (A) (A) (A) (A) (A) (A) (A) (A)
                 (A) (A) (A) (A) (A) (A) (A) (A) (A) (A) (A) (A)
                 (A) (A) (A) (A) (A) (A) (A) (A) (A) (A) (A) (A)
                 (A) (A) (A) (A) (A) (A) (A) (A) (A) (A) (A) (A)
                 (A) (A) (A) (A) (A) (A) (A) (A) (A) (A) (A) (A)
                 (A) (A) (A) (A) (A) (A) (A) (A) (A) (A) (A) (A)
                 (A) (A) (A) (A) (A) (A) (A) (A) (A) (A) (A) (A)
                 (A) (A) (A) (A) (A) (A) (A) (A) (A) (A) (A) (A)
                 (A) (A) (A) (A) (A) (A) (A) (A) (A) (A) (A) (A)
                 (A) (A) (A) (A) (A) (A) (A) (A) (A) (A) (A) (A)
                 (A) (A) (A) (A) (A) (A) (A) (A) (A) (A) (A) (A)
                 (A) (A) (A) (A) (A) (A) (A) (A) (A) (A) (A) (A)
                 (A) (A) (A) (A) (A) (A) (A) (A) (A) (A) (A) (A)
                 (A) (A) (A) (A) (A) (A) (A) (A) (A) (A) (A) (A)
                 (A) (A) (A) (A) (A) (A) (A) (A) (A) (A) (A) (A)
                 (A) (A) (A) (A) (A) (A) (A) (A) (A) (A) (A) (A)
                 (A) (A) (A) (A) (A) (A) (A)
 The electronic state is 1-A.
 Alpha  occ. eigenvalues --  -19.13638 -14.36380 -14.35702 -14.35611 -10.29596
 Alpha  occ. eigenvalues --  -10.23657 -10.21539 -10.21418 -10.20329 -10.20282
 Alpha  occ. eigenvalues --  -10.19929 -10.19469 -10.19008 -10.18303 -10.18067
 Alpha  occ. eigenvalues --  -10.16774 -10.16061  -1.05535  -0.94336  -0.89015
 Alpha  occ. eigenvalues --   -0.86262  -0.81063  -0.79216  -0.76356  -0.75660
 Alpha  occ. eigenvalues --   -0.73263  -0.68051  -0.65819  -0.63037  -0.59878
 Alpha  occ. eigenvalues --   -0.57631  -0.55779  -0.53753  -0.52732  -0.50229
 Alpha  occ. eigenvalues --   -0.48851  -0.48569  -0.48139  -0.47395  -0.46094
 Alpha  occ. eigenvalues --   -0.44692  -0.43313  -0.42290  -0.41282  -0.39876
 Alpha  occ. eigenvalues --   -0.39584  -0.37762  -0.36330  -0.35069  -0.34271
 Alpha  occ. eigenvalues --   -0.33824  -0.32698  -0.32031  -0.30354  -0.29858
 Alpha  occ. eigenvalues --   -0.27926  -0.27054  -0.25941  -0.23718  -0.19898
 Alpha  occ. eigenvalues --   -0.19463  -0.16136
 Alpha virt. eigenvalues --   -0.08220  -0.04462  -0.01107   0.01188   0.03250
 Alpha virt. eigenvalues --    0.06265   0.06914   0.07372   0.09519   0.10638
 Alpha virt. eigenvalues --    0.11220   0.11694   0.12319   0.13151   0.13748
 Alpha virt. eigenvalues --    0.14543   0.15270   0.16012   0.16922   0.17623
 Alpha virt. eigenvalues --    0.17832   0.18958   0.20085   0.20265   0.20697
 Alpha virt. eigenvalues --    0.22311   0.24777   0.26097   0.26330   0.28376
 Alpha virt. eigenvalues --    0.30382   0.31704   0.32587   0.33970   0.34209
 Alpha virt. eigenvalues --    0.37943   0.38582   0.39277   0.40622   0.42241
 Alpha virt. eigenvalues --    0.44140   0.45968   0.46314   0.46644   0.47202
 Alpha virt. eigenvalues --    0.48011   0.48787   0.49805   0.50872   0.51398
 Alpha virt. eigenvalues --    0.51720   0.52099   0.53129   0.54456   0.54668
 Alpha virt. eigenvalues --    0.55872   0.56003   0.57236   0.57932   0.58546
 Alpha virt. eigenvalues --    0.59684   0.60327   0.61054   0.61148   0.61785
 Alpha virt. eigenvalues --    0.62084   0.62677   0.64471   0.64611   0.65623
 Alpha virt. eigenvalues --    0.66803   0.67114   0.67742   0.68051   0.69385
 Alpha virt. eigenvalues --    0.70467   0.71265   0.72156   0.72319   0.73668
 Alpha virt. eigenvalues --    0.74386   0.74640   0.75573   0.76442   0.77343
 Alpha virt. eigenvalues --    0.77360   0.77731   0.77770   0.78804   0.79035
 Alpha virt. eigenvalues --    0.79430   0.79905   0.80490   0.81454   0.82206
 Alpha virt. eigenvalues --    0.82604   0.83345   0.83933   0.84837   0.85658
 Alpha virt. eigenvalues --    0.86284   0.87086   0.87190   0.88617   0.89322
 Alpha virt. eigenvalues --    0.91513   0.92294   0.92415   0.94400   0.95199
 Alpha virt. eigenvalues --    0.96759   0.97940   0.98496   0.99366   0.99956
 Alpha virt. eigenvalues --    1.01435   1.03512   1.04662   1.05772   1.07103
 Alpha virt. eigenvalues --    1.08250   1.09366   1.10533   1.11484   1.11798
 Alpha virt. eigenvalues --    1.13680   1.14600   1.16056   1.16416   1.17648
 Alpha virt. eigenvalues --    1.19095   1.21357   1.21536   1.23731   1.25832
 Alpha virt. eigenvalues --    1.26441   1.26697   1.28258   1.29092   1.29961
 Alpha virt. eigenvalues --    1.30718   1.32324   1.32912   1.34233   1.34854
 Alpha virt. eigenvalues --    1.35564   1.36370   1.39183   1.39252   1.40847
 Alpha virt. eigenvalues --    1.41816   1.42953   1.43785   1.45136   1.46335
 Alpha virt. eigenvalues --    1.47142   1.48057   1.49198   1.50662   1.52610
 Alpha virt. eigenvalues --    1.53559   1.55070   1.56033   1.57116   1.58196
 Alpha virt. eigenvalues --    1.60351   1.61606   1.62075   1.62737   1.63253
 Alpha virt. eigenvalues --    1.64850   1.66221   1.68813   1.69733   1.71496
 Alpha virt. eigenvalues --    1.73729   1.74572   1.76297   1.77310   1.77904
 Alpha virt. eigenvalues --    1.79088   1.79940   1.81502   1.83058   1.84002
 Alpha virt. eigenvalues --    1.84947   1.85858   1.87710   1.89731   1.90694
 Alpha virt. eigenvalues --    1.91634   1.94268   1.95350   1.97012   1.99912
 Alpha virt. eigenvalues --    2.01670   2.03212   2.04141   2.05777   2.06947
 Alpha virt. eigenvalues --    2.07872   2.09147   2.10828   2.12084   2.13551
 Alpha virt. eigenvalues --    2.14101   2.15260   2.16789   2.19090   2.20765
 Alpha virt. eigenvalues --    2.21164   2.23244   2.23849   2.26537   2.28286
 Alpha virt. eigenvalues --    2.30018   2.30769   2.33276   2.35925   2.37299
 Alpha virt. eigenvalues --    2.38775   2.39327   2.41377   2.42644   2.44144
 Alpha virt. eigenvalues --    2.45740   2.46194   2.47785   2.49407   2.50506
 Alpha virt. eigenvalues --    2.51034   2.51519   2.54031   2.56642   2.58373
 Alpha virt. eigenvalues --    2.61217   2.61593   2.62275   2.63880   2.66302
 Alpha virt. eigenvalues --    2.68144   2.69519   2.70026   2.70469   2.72434
 Alpha virt. eigenvalues --    2.72596   2.75131   2.77319   2.78500   2.80192
 Alpha virt. eigenvalues --    2.81525   2.82878   2.83975   2.84469   2.86051
 Alpha virt. eigenvalues --    2.86518   2.87280   2.87950   2.88827   2.90348
 Alpha virt. eigenvalues --    2.91471   2.92338   2.94414   2.94792   2.95781
 Alpha virt. eigenvalues --    2.96489   2.97621   2.99633   3.00018   3.01847
 Alpha virt. eigenvalues --    3.03917   3.04504   3.05381   3.05986   3.07768
 Alpha virt. eigenvalues --    3.09167   3.10364   3.11830   3.13198   3.14182
 Alpha virt. eigenvalues --    3.15457   3.16832   3.17563   3.19215   3.19888
 Alpha virt. eigenvalues --    3.21508   3.22789   3.23626   3.25017   3.25631
 Alpha virt. eigenvalues --    3.27755   3.28225   3.28602   3.29956   3.31417
 Alpha virt. eigenvalues --    3.31830   3.33431   3.34622   3.36325   3.36913
 Alpha virt. eigenvalues --    3.38242   3.40730   3.41154   3.42212   3.43139
 Alpha virt. eigenvalues --    3.45342   3.46805   3.47308   3.47960   3.49551
 Alpha virt. eigenvalues --    3.49772   3.50214   3.52160   3.53618   3.54733
 Alpha virt. eigenvalues --    3.55422   3.56667   3.58562   3.59774   3.61293
 Alpha virt. eigenvalues --    3.62405   3.63407   3.64213   3.65573   3.66923
 Alpha virt. eigenvalues --    3.68786   3.69194   3.70943   3.72171   3.73478
 Alpha virt. eigenvalues --    3.75241   3.76063   3.77509   3.78732   3.79961
 Alpha virt. eigenvalues --    3.81000   3.82491   3.85028   3.86565   3.88036
 Alpha virt. eigenvalues --    3.90218   3.91726   3.92501   3.94344   3.96337
 Alpha virt. eigenvalues --    3.98125   4.00025   4.00647   4.02253   4.03567
 Alpha virt. eigenvalues --    4.04329   4.07130   4.08089   4.08952   4.11287
 Alpha virt. eigenvalues --    4.13216   4.14711   4.15372   4.17821   4.18486
 Alpha virt. eigenvalues --    4.21110   4.23289   4.23997   4.25237   4.27331
 Alpha virt. eigenvalues --    4.28717   4.29291   4.31595   4.32867   4.33919
 Alpha virt. eigenvalues --    4.34605   4.35621   4.36763   4.37771   4.38866
 Alpha virt. eigenvalues --    4.40176   4.40808   4.41597   4.43252   4.44729
 Alpha virt. eigenvalues --    4.45525   4.46494   4.47441   4.49543   4.49984
 Alpha virt. eigenvalues --    4.51381   4.52306   4.52666   4.53485   4.54435
 Alpha virt. eigenvalues --    4.56274   4.56839   4.58444   4.59243   4.59635
 Alpha virt. eigenvalues --    4.60746   4.62585   4.63140   4.64755   4.65156
 Alpha virt. eigenvalues --    4.66377   4.67419   4.68014   4.68387   4.68671
 Alpha virt. eigenvalues --    4.71649   4.73258   4.74123   4.75142   4.76500
 Alpha virt. eigenvalues --    4.77327   4.78211   4.79457   4.80625   4.80978
 Alpha virt. eigenvalues --    4.82090   4.82814   4.83710   4.85772   4.86892
 Alpha virt. eigenvalues --    4.87873   4.89660   4.90714   4.91164   4.91977
 Alpha virt. eigenvalues --    4.93500   4.94903   4.96555   4.98025   4.99826
 Alpha virt. eigenvalues --    5.01005   5.02810   5.05345   5.06838   5.07433
 Alpha virt. eigenvalues --    5.09204   5.11202   5.12319   5.15643   5.15994
 Alpha virt. eigenvalues --    5.16470   5.19120   5.20924   5.22083   5.23393
 Alpha virt. eigenvalues --    5.24669   5.26925   5.28654   5.32530   5.34186
 Alpha virt. eigenvalues --    5.35522   5.37011   5.38460   5.44531   5.46472
 Alpha virt. eigenvalues --    5.47897   5.48764   5.49929   5.52879   5.53735
 Alpha virt. eigenvalues --    5.57386   5.61968   5.64648   5.66536   5.69200
 Alpha virt. eigenvalues --    5.72665   5.75627   5.78186   5.85421   5.86276
 Alpha virt. eigenvalues --    5.86783   5.98310   6.01617   6.08402   6.13330
 Alpha virt. eigenvalues --    6.23404   6.43798   6.93301   7.78917   8.33722
 Alpha virt. eigenvalues --    9.91441  10.24485  10.50026  10.80924  10.97367
 Alpha virt. eigenvalues --   11.19389  11.23289  11.30026  11.38799  11.46750
 Alpha virt. eigenvalues --   11.76563  11.85432  12.01746  12.24579  12.45321
 Alpha virt. eigenvalues --   12.95588  13.29498  13.71103  21.81873
          Condensed to atoms (all electrons):
               1          2          3          4          5          6
     1  N    6.576410   0.290760  -0.049706   0.001834  -0.000003   0.000001
     2  N    0.290760   6.527797   0.305494  -0.069583  -0.002668  -0.000022
     3  N   -0.049706   0.305494   6.618234   0.346649  -0.034777   0.002929
     4  C    0.001834  -0.069583   0.346649   5.241023   0.555694   0.013408
     5  C   -0.000003  -0.002668  -0.034777   0.555694   4.727620   0.406686
     6  C    0.000001  -0.000022   0.002929   0.013408   0.406686   5.078008
     7  C   -0.000000  -0.000000  -0.000037   0.002007  -0.002682   0.570637
     8  C    0.000000  -0.000000   0.000000  -0.000101   0.005376  -0.073057
     9  C   -0.000000  -0.000000  -0.000000   0.000001  -0.000135   0.001584
    10  C   -0.000000  -0.000000  -0.000000   0.000000  -0.000005   0.000098
    11  C    0.000000  -0.000000   0.000000   0.000003   0.000202   0.009903
    12  C   -0.000000   0.000000   0.000016   0.001473  -0.025067  -0.013160
    13  C   -0.000000   0.000020   0.000355   0.002377  -0.011006  -0.034603
    14  C   -0.000017   0.001433  -0.000117   0.000581  -0.011176   0.005014
    15  C    0.002949  -0.042826  -0.024516  -0.019358   0.009025   0.001596
    16  C   -0.050001   0.354107  -0.141616  -0.033993   0.003141   0.000628
    17  O    0.004757  -0.173483  -0.018801  -0.008932   0.002918  -0.001212
    18  H    0.350960  -0.070195   0.002332  -0.000261  -0.000009  -0.000000
    19  H    0.332054  -0.034853   0.004592   0.000405   0.000001  -0.000000
    20  H    0.009752  -0.092110   0.345996  -0.051377  -0.005568   0.000017
    21  H   -0.000182   0.007348  -0.033804   0.301224  -0.026006  -0.016227
    22  H   -0.000012   0.000213  -0.012035  -0.081596   0.359380  -0.045139
    23  H   -0.000000   0.000002  -0.000070  -0.007882  -0.042798   0.361167
    24  H    0.000000  -0.000000  -0.000000   0.000008   0.000096  -0.001848
    25  H   -0.000000   0.000000   0.000000  -0.000010  -0.000063  -0.007192
    26  H   -0.000000   0.000000   0.000000  -0.000000  -0.000001  -0.000103
    27  H    0.000000  -0.000000   0.000000  -0.000000   0.000007  -0.000095
    28  H   -0.000000  -0.000000  -0.000000  -0.000000   0.000001  -0.000015
    29  H    0.000000   0.000000   0.000000  -0.000000  -0.000001   0.000020
    30  H    0.000000  -0.000000  -0.000000  -0.000000  -0.000005  -0.000039
    31  H    0.000001  -0.000006   0.000295   0.001390  -0.005138   0.000807
    32  H    0.000000  -0.000024   0.000001  -0.000003   0.000093  -0.000063
    33  H    0.000001  -0.001951  -0.001372   0.000538   0.000759  -0.000030
    34  H    0.005418  -0.019994   0.001884   0.003627   0.001088   0.000017
               7          8          9         10         11         12
     1  N   -0.000000   0.000000  -0.000000  -0.000000   0.000000  -0.000000
     2  N   -0.000000  -0.000000  -0.000000  -0.000000  -0.000000   0.000000
     3  N   -0.000037   0.000000  -0.000000  -0.000000   0.000000   0.000016
     4  C    0.002007  -0.000101   0.000001   0.000000   0.000003   0.001473
     5  C   -0.002682   0.005376  -0.000135  -0.000005   0.000202  -0.025067
     6  C    0.570637  -0.073057   0.001584   0.000098   0.009903  -0.013160
     7  C    4.616036   0.362116  -0.007613  -0.040125   0.010441   0.427665
     8  C    0.362116   4.995638   0.390747  -0.025290  -0.038915  -0.013950
     9  C   -0.007613   0.390747   4.863336   0.401315  -0.006639  -0.029185
    10  C   -0.040125  -0.025290   0.401315   4.922927   0.332798   0.046519
    11  C    0.010441  -0.038915  -0.006639   0.332798   5.110156   0.554409
    12  C    0.427665  -0.013950  -0.029185   0.046519   0.554409   4.626144
    13  C   -0.034507   0.005881  -0.000747   0.008723  -0.097503   0.373382
    14  C   -0.001049  -0.000399  -0.000002   0.000103  -0.007142  -0.022799
    15  C    0.000203  -0.000001   0.000000   0.000001  -0.000056   0.004271
    16  C    0.000050  -0.000000  -0.000000   0.000000  -0.000000  -0.000005
    17  O    0.000003  -0.000000  -0.000000  -0.000000  -0.000000  -0.000002
    18  H   -0.000000  -0.000000   0.000000  -0.000000   0.000000   0.000000
    19  H    0.000000  -0.000000   0.000000   0.000000  -0.000000  -0.000000
    20  H   -0.000015  -0.000000   0.000000  -0.000000   0.000000  -0.000010
    21  H   -0.000308  -0.000009  -0.000000  -0.000000   0.000000  -0.000019
    22  H   -0.021106  -0.000189   0.000000  -0.000006   0.000338   0.003842
    23  H   -0.051633  -0.016096   0.000432  -0.000028  -0.000010   0.004728
    24  H   -0.027035   0.357017  -0.028784   0.002947   0.001313  -0.000333
    25  H   -0.028466   0.362624  -0.035949   0.002697   0.001375  -0.001281
    26  H    0.000188  -0.025350   0.367592  -0.025508   0.000016   0.001962
    27  H   -0.000556  -0.023090   0.365994  -0.026620  -0.000419   0.002452
    28  H    0.001028   0.002741  -0.029576   0.360450  -0.022382  -0.003222
    29  H    0.001746   0.001508  -0.027886   0.356137  -0.018333  -0.005856
    30  H    0.005751  -0.000171   0.004486  -0.060740   0.373280  -0.030551
    31  H   -0.004414   0.001442  -0.000015  -0.000276   0.003421  -0.052393
    32  H   -0.000000   0.000009   0.000000  -0.000020   0.001175  -0.009206
    33  H    0.000007   0.000000  -0.000000  -0.000000   0.000001  -0.000398
    34  H   -0.000001   0.000000   0.000000  -0.000000   0.000000   0.000000
              13         14         15         16         17         18
     1  N   -0.000000  -0.000017   0.002949  -0.050001   0.004757   0.350960
     2  N    0.000020   0.001433  -0.042826   0.354107  -0.173483  -0.070195
     3  N    0.000355  -0.000117  -0.024516  -0.141616  -0.018801   0.002332
     4  C    0.002377   0.000581  -0.019358  -0.033993  -0.008932  -0.000261
     5  C   -0.011006  -0.011176   0.009025   0.003141   0.002918  -0.000009
     6  C   -0.034603   0.005014   0.001596   0.000628  -0.001212  -0.000000
     7  C   -0.034507  -0.001049   0.000203   0.000050   0.000003  -0.000000
     8  C    0.005881  -0.000399  -0.000001  -0.000000  -0.000000  -0.000000
     9  C   -0.000747  -0.000002   0.000000  -0.000000  -0.000000   0.000000
    10  C    0.008723   0.000103   0.000001   0.000000  -0.000000  -0.000000
    11  C   -0.097503  -0.007142  -0.000056  -0.000000  -0.000000   0.000000
    12  C    0.373382  -0.022799   0.004271  -0.000005  -0.000002   0.000000
    13  C    4.854355   0.549196  -0.020464  -0.000422   0.000002   0.000000
    14  C    0.549196   5.419227   0.275383  -0.009931   0.000045  -0.000024
    15  C   -0.020464   0.275383   5.376644   0.425418  -0.016161   0.000221
    16  C   -0.000422  -0.009931   0.425418   5.105358   0.294200  -0.003702
    17  O    0.000002   0.000045  -0.016161   0.294200   8.110376  -0.000422
    18  H    0.000000  -0.000024   0.000221  -0.003702  -0.000422   0.505689
    19  H    0.000000   0.000001  -0.000259   0.005943   0.000241  -0.036130
    20  H   -0.000247  -0.002317   0.016108   0.005097   0.000343   0.001149
    21  H   -0.000044  -0.000089  -0.000419  -0.003485   0.008486   0.000022
    22  H    0.002539  -0.012669   0.006936  -0.003913  -0.000183   0.000016
    23  H   -0.000225  -0.000023  -0.000013  -0.000024  -0.000018   0.000000
    24  H   -0.000144   0.000004   0.000000  -0.000000  -0.000000  -0.000000
    25  H   -0.000104   0.000009  -0.000000   0.000000   0.000000  -0.000000
    26  H    0.000017  -0.000000   0.000000   0.000000   0.000000  -0.000000
    27  H    0.000021  -0.000000   0.000000  -0.000000  -0.000000  -0.000000
    28  H   -0.000109   0.000000  -0.000000   0.000000   0.000000   0.000000
    29  H   -0.000247  -0.000002  -0.000000  -0.000000   0.000000   0.000000
    30  H   -0.015130   0.000636  -0.000002   0.000000  -0.000000   0.000000
    31  H    0.403483  -0.104449  -0.034930   0.001765  -0.000021   0.000001
    32  H   -0.024495   0.301559  -0.029410   0.000155  -0.000000   0.000001
    33  H   -0.005622  -0.045795   0.313649  -0.022524   0.000581   0.000351
    34  H    0.000006  -0.000008   0.000800  -0.036140   0.275722  -0.000033
              19         20         21         22         23         24
     1  N    0.332054   0.009752  -0.000182  -0.000012  -0.000000   0.000000
     2  N   -0.034853  -0.092110   0.007348   0.000213   0.000002  -0.000000
     3  N    0.004592   0.345996  -0.033804  -0.012035  -0.000070  -0.000000
     4  C    0.000405  -0.051377   0.301224  -0.081596  -0.007882   0.000008
     5  C    0.000001  -0.005568  -0.026006   0.359380  -0.042798   0.000096
     6  C   -0.000000   0.000017  -0.016227  -0.045139   0.361167  -0.001848
     7  C    0.000000  -0.000015  -0.000308  -0.021106  -0.051633  -0.027035
     8  C   -0.000000  -0.000000  -0.000009  -0.000189  -0.016096   0.357017
     9  C    0.000000   0.000000  -0.000000   0.000000   0.000432  -0.028784
    10  C    0.000000  -0.000000  -0.000000  -0.000006  -0.000028   0.002947
    11  C   -0.000000   0.000000   0.000000   0.000338  -0.000010   0.001313
    12  C   -0.000000  -0.000010  -0.000019   0.003842   0.004728  -0.000333
    13  C    0.000000  -0.000247  -0.000044   0.002539  -0.000225  -0.000144
    14  C    0.000001  -0.002317  -0.000089  -0.012669  -0.000023   0.000004
    15  C   -0.000259   0.016108  -0.000419   0.006936  -0.000013   0.000000
    16  C    0.005943   0.005097  -0.003485  -0.003913  -0.000024  -0.000000
    17  O    0.000241   0.000343   0.008486  -0.000183  -0.000018  -0.000000
    18  H   -0.036130   0.001149   0.000022   0.000016   0.000000  -0.000000
    19  H    0.471432  -0.000476  -0.000005  -0.000002  -0.000000   0.000000
    20  H   -0.000476   0.509888   0.003956   0.010836   0.000009  -0.000000
    21  H   -0.000005   0.003956   0.651418   0.014105   0.004269  -0.000001
    22  H   -0.000002   0.010836   0.014105   0.671449   0.007082  -0.000014
    23  H   -0.000000   0.000009   0.004269   0.007082   0.648126   0.004327
    24  H    0.000000  -0.000000  -0.000001  -0.000014   0.004327   0.621467
    25  H   -0.000000   0.000000   0.000003   0.000061   0.003121  -0.033982
    26  H   -0.000000  -0.000000   0.000000  -0.000000  -0.000023  -0.018589
    27  H   -0.000000  -0.000000  -0.000000  -0.000000  -0.000027   0.005697
    28  H   -0.000000   0.000000  -0.000000  -0.000000  -0.000000  -0.000080
    29  H    0.000000   0.000000   0.000000   0.000000  -0.000000  -0.000205
    30  H   -0.000000   0.000000   0.000000   0.000012   0.000004   0.000021
    31  H   -0.000000   0.000222  -0.000075  -0.025563  -0.000571  -0.000152
    32  H   -0.000000   0.000166   0.000000  -0.000328   0.000000   0.000000
    33  H   -0.000005   0.003486  -0.000018  -0.001435   0.000000   0.000000
    34  H    0.000170  -0.000002  -0.002530  -0.000063   0.000001   0.000000
              25         26         27         28         29         30
     1  N   -0.000000  -0.000000   0.000000  -0.000000   0.000000   0.000000
     2  N    0.000000   0.000000  -0.000000  -0.000000   0.000000  -0.000000
     3  N    0.000000   0.000000   0.000000  -0.000000   0.000000  -0.000000
     4  C   -0.000010  -0.000000  -0.000000  -0.000000  -0.000000  -0.000000
     5  C   -0.000063  -0.000001   0.000007   0.000001  -0.000001  -0.000005
     6  C   -0.007192  -0.000103  -0.000095  -0.000015   0.000020  -0.000039
     7  C   -0.028466   0.000188  -0.000556   0.001028   0.001746   0.005751
     8  C    0.362624  -0.025350  -0.023090   0.002741   0.001508  -0.000171
     9  C   -0.035949   0.367592   0.365994  -0.029576  -0.027886   0.004486
    10  C    0.002697  -0.025508  -0.026620   0.360450   0.356137  -0.060740
    11  C    0.001375   0.000016  -0.000419  -0.022382  -0.018333   0.373280
    12  C   -0.001281   0.001962   0.002452  -0.003222  -0.005856  -0.030551
    13  C   -0.000104   0.000017   0.000021  -0.000109  -0.000247  -0.015130
    14  C    0.000009  -0.000000  -0.000000   0.000000  -0.000002   0.000636
    15  C   -0.000000   0.000000   0.000000  -0.000000  -0.000000  -0.000002
    16  C    0.000000   0.000000  -0.000000   0.000000  -0.000000   0.000000
    17  O    0.000000   0.000000  -0.000000   0.000000   0.000000  -0.000000
    18  H   -0.000000  -0.000000  -0.000000   0.000000   0.000000   0.000000
    19  H   -0.000000  -0.000000  -0.000000  -0.000000   0.000000  -0.000000
    20  H    0.000000  -0.000000  -0.000000   0.000000   0.000000   0.000000
    21  H    0.000003   0.000000  -0.000000  -0.000000   0.000000   0.000000
    22  H    0.000061  -0.000000  -0.000000  -0.000000   0.000000   0.000012
    23  H    0.003121  -0.000023  -0.000027  -0.000000  -0.000000   0.000004
    24  H   -0.033982  -0.018589   0.005697  -0.000080  -0.000205   0.000021
    25  H    0.632513   0.006328  -0.020626  -0.000218  -0.000062   0.000021
    26  H    0.006328   0.641817  -0.041118  -0.015523   0.005337  -0.000162
    27  H   -0.020626  -0.041118   0.647281   0.005713  -0.017768  -0.000181
    28  H   -0.000218  -0.015523   0.005713   0.622358  -0.037895  -0.001044
    29  H   -0.000062   0.005337  -0.017768  -0.037895   0.625108  -0.000065
    30  H    0.000021  -0.000162  -0.000181  -0.001044  -0.000065   0.624297
    31  H    0.000002   0.000002  -0.000001   0.000025  -0.000004  -0.000100
    32  H   -0.000000  -0.000000   0.000000   0.000001  -0.000000   0.000256
    33  H   -0.000000  -0.000000   0.000000   0.000000   0.000000   0.000000
    34  H   -0.000000  -0.000000  -0.000000  -0.000000   0.000000   0.000000
              31         32         33         34
     1  N    0.000001   0.000000   0.000001   0.005418
     2  N   -0.000006  -0.000024  -0.001951  -0.019994
     3  N    0.000295   0.000001  -0.001372   0.001884
     4  C    0.001390  -0.000003   0.000538   0.003627
     5  C   -0.005138   0.000093   0.000759   0.001088
     6  C    0.000807  -0.000063  -0.000030   0.000017
     7  C   -0.004414  -0.000000   0.000007  -0.000001
     8  C    0.001442   0.000009   0.000000   0.000000
     9  C   -0.000015   0.000000  -0.000000   0.000000
    10  C   -0.000276  -0.000020  -0.000000  -0.000000
    11  C    0.003421   0.001175   0.000001   0.000000
    12  C   -0.052393  -0.009206  -0.000398   0.000000
    13  C    0.403483  -0.024495  -0.005622   0.000006
    14  C   -0.104449   0.301559  -0.045795  -0.000008
    15  C   -0.034930  -0.029410   0.313649   0.000800
    16  C    0.001765   0.000155  -0.022524  -0.036140
    17  O   -0.000021  -0.000000   0.000581   0.275722
    18  H    0.000001   0.000001   0.000351  -0.000033
    19  H   -0.000000  -0.000000  -0.000005   0.000170
    20  H    0.000222   0.000166   0.003486  -0.000002
    21  H   -0.000075   0.000000  -0.000018  -0.002530
    22  H   -0.025563  -0.000328  -0.001435  -0.000063
    23  H   -0.000571   0.000000   0.000000   0.000001
    24  H   -0.000152   0.000000   0.000000   0.000000
    25  H    0.000002  -0.000000  -0.000000  -0.000000
    26  H    0.000002  -0.000000  -0.000000  -0.000000
    27  H   -0.000001   0.000000   0.000000  -0.000000
    28  H    0.000025   0.000001   0.000000  -0.000000
    29  H   -0.000004  -0.000000   0.000000   0.000000
    30  H   -0.000100   0.000256   0.000000   0.000000
    31  H    0.606137   0.014204   0.001170  -0.000001
    32  H    0.014204   0.632856   0.005046   0.000000
    33  H    0.001170   0.005046   0.615935  -0.000057
    34  H   -0.000001   0.000000  -0.000057   0.434958
 Mulliken charges:
               1
     1  N   -0.474977
     2  N    0.020541
     3  N   -0.311925
     4  C   -0.199144
     5  C    0.095022
     6  C   -0.259713
     7  C    0.221669
     8  C   -0.268481
     9  C   -0.228960
    10  C   -0.256099
    11  C   -0.207431
    12  C    0.160574
    13  C    0.045262
    14  C   -0.335183
    15  C   -0.244789
    16  C    0.109893
    17  O   -0.478440
    18  H    0.250036
    19  H    0.256890
    20  H    0.245097
    21  H    0.092390
    22  H    0.127442
    23  H    0.086172
    24  H    0.118270
    25  H    0.119199
    26  H    0.103118
    27  H    0.103338
    28  H    0.117747
    29  H    0.118467
    30  H    0.099424
    31  H    0.193742
    32  H    0.108026
    33  H    0.137684
    34  H    0.335136
 Sum of Mulliken charges =  -0.00000
 Mulliken charges with hydrogens summed into heavy atoms:
               1
     1  N    0.031949
     2  N    0.020541
     3  N   -0.066827
     4  C   -0.106754
     5  C    0.222464
     6  C   -0.173540
     7  C    0.221669
     8  C   -0.031012
     9  C   -0.022504
    10  C   -0.019884
    11  C   -0.108007
    12  C    0.160574
    13  C    0.239004
    14  C   -0.227157
    15  C   -0.107105
    16  C    0.109893
    17  O   -0.143305
 Electronic spatial extent (au):  <R**2>=           5272.5256
 Charge=             -0.0000 electrons
 Dipole moment (field-independent basis, Debye):
    X=             -2.3451    Y=              1.0931    Z=             -2.0349  Tot=              3.2916
 Quadrupole moment (field-independent basis, Debye-Ang):
   XX=            -79.5617   YY=            -95.0987   ZZ=           -108.1921
   XY=              2.1716   XZ=             -9.4257   YZ=             -2.1254
 Traceless Quadrupole moment (field-independent basis, Debye-Ang):
   XX=             14.7225   YY=             -0.8146   ZZ=            -13.9079
   XY=              2.1716   XZ=             -9.4257   YZ=             -2.1254
 Octapole moment (field-independent basis, Debye-Ang**2):
  XXX=             54.0261  YYY=             -5.1238  ZZZ=             -1.6257  XYY=             12.9546
  XXY=             10.5756  XXZ=            -46.7899  XZZ=            -10.6606  YZZ=              0.9093
  YYZ=             -4.1985  XYZ=             -1.8600
 Hexadecapole moment (field-independent basis, Debye-Ang**3):
 XXXX=          -4989.5823 YYYY=           -975.1170 ZZZZ=           -315.9011 XXXY=              2.0901
 XXXZ=           -251.4840 YYYX=            -38.0888 YYYZ=            -25.4251 ZZZX=            -12.0362
 ZZZY=            -13.3948 XXYY=          -1025.3978 XXZZ=          -1021.8471 YYZZ=           -236.8820
 XXYZ=            -11.9250 YYXZ=             -7.1067 ZZXY=             18.1143
 N-N= 1.175955865418D+03 E-N=-4.083387327879D+03  KE= 7.387605066633D+02
 PrsmSu:  requested number of processors reduced to:  13 ShMem   1 Linda.
 Calling FoFJK, ICntrl=      2127 FMM=F ISym2X=0 I1Cent= 0 IOpClX= 0 NMat=1 NMatS=1 NMatT=0.
 ***** Axes restored to original set *****
 -------------------------------------------------------------------
 Center     Atomic                   Forces (Hartrees/Bohr)
 Number     Number              X              Y              Z
 -------------------------------------------------------------------
      1        7          -0.033220839   -0.013328426    0.007944613
      2        7          -0.032852763   -0.002839987   -0.059130377
      3        7           0.037384928    0.069304825   -0.033659077
      4        6          -0.002540511   -0.027861688    0.044591338
      5        6          -0.019687811    0.021680923   -0.015266173
      6        6          -0.021968390    0.018080358    0.004911160
      7        6          -0.015448979    0.005631389    0.000642912
      8        6           0.008678605    0.000712240    0.020226474
      9        6           0.020104202    0.000777516   -0.003026887
     10        6          -0.008351114    0.000361726   -0.008036362
     11        6           0.025597598    0.002950810   -0.033877788
     12        6          -0.032352663    0.003793687    0.042510360
     13        6           0.077473412   -0.046238510    0.029197218
     14        6          -0.048250029   -0.006773732   -0.029690531
     15        6          -0.008986028    0.007761842    0.015849613
     16        6           0.006476335    0.021313188   -0.000357280
     17        8           0.016423378   -0.042770951   -0.007031979
     18        1          -0.006641701    0.003932316    0.007061314
     19        1           0.020129562   -0.000380999   -0.007723441
     20        1           0.042897530    0.034100170    0.019927556
     21        1          -0.015483868    0.020143507    0.016457546
     22        1          -0.000954086    0.012780323   -0.032314084
     23        1           0.004616404   -0.002458980    0.000146188
     24        1           0.002169097    0.003170383    0.006849159
     25        1           0.002727485   -0.008359117    0.005843370
     26        1           0.001790946    0.004626026   -0.003817325
     27        1           0.004473974   -0.005154228   -0.003039810
     28        1          -0.004808500    0.004901010   -0.007768388
     29        1          -0.002121432   -0.001079220   -0.010457545
     30        1          -0.001446476   -0.000881281    0.010398845
     31        1           0.026633542   -0.011653512    0.025561386
     32        1          -0.047757015   -0.005830420    0.026325491
     33        1          -0.016503273   -0.013430321    0.036409814
     34        1           0.021798475   -0.046980863   -0.065657310
 -------------------------------------------------------------------
 Cartesian Forces:  Max     0.077473412 RMS     0.024098013

 GradGradGradGradGradGradGradGradGradGradGradGradGradGradGradGradGradGrad
 Berny optimization.
 FormGI is forming the generalized inverse of G from B-inverse, IUseBI=4.
 Internal  Forces:  Max     0.256016162 RMS     0.064073541
 Search for a local minimum.
 Step number   1 out of a maximum of  174
 All quantities printed in internal units (Hartrees-Bohrs-Radians)
 Mixed Optimization -- RFO/linear search
 Second derivative matrix not updated -- first step.
 ITU=  0
     Eigenvalues ---    0.00230   0.00230   0.00230   0.00566   0.00646
     Eigenvalues ---    0.00898   0.01184   0.01241   0.01504   0.01543
     Eigenvalues ---    0.01599   0.01778   0.01793   0.01805   0.01954
     Eigenvalues ---    0.01958   0.02021   0.02114   0.02195   0.02445
     Eigenvalues ---    0.02659   0.02957   0.03019   0.03300   0.03467
     Eigenvalues ---    0.03735   0.04535   0.05146   0.05646   0.05787
     Eigenvalues ---    0.05881   0.07631   0.09250   0.09444   0.09991
     Eigenvalues ---    0.10593   0.11833   0.11938   0.13031   0.15468
     Eigenvalues ---    0.15798   0.15960   0.15988   0.15995   0.16000
     Eigenvalues ---    0.16000   0.16000   0.16000   0.16000   0.16985
     Eigenvalues ---    0.21184   0.22005   0.22075   0.22095   0.22223
     Eigenvalues ---    0.22618   0.22634   0.24177   0.24209   0.24357
     Eigenvalues ---    0.24402   0.24718   0.24783   0.24882   0.24884
     Eigenvalues ---    0.30238   0.30414   0.30682   0.31912   0.32399
     Eigenvalues ---    0.32803   0.33705   0.33753   0.33997   0.34038
     Eigenvalues ---    0.34067   0.34129   0.34221   0.34380   0.34405
     Eigenvalues ---    0.34529   0.35484   0.36460   0.36475   0.39545
     Eigenvalues ---    0.40543   0.40990   0.43339   0.44403   0.48881
     Eigenvalues ---    0.49068   0.50390   0.52662   0.58493   0.60700
     Eigenvalues ---    0.73010
 RFO step:  Lambda=-7.45207615D-01 EMin= 2.30000000D-03
 Linear search not attempted -- first point.
 Maximum step size (   0.300) exceeded in Quadratic search.
    -- Step size scaled by   0.441
 Iteration  1 RMS(Cart)=  0.28378708 RMS(Int)=  0.01453025
 Iteration  2 RMS(Cart)=  0.14693678 RMS(Int)=  0.00264181
 Iteration  3 RMS(Cart)=  0.00508552 RMS(Int)=  0.00019574
 Iteration  4 RMS(Cart)=  0.00000739 RMS(Int)=  0.00019571
 Iteration  5 RMS(Cart)=  0.00000000 RMS(Int)=  0.00019571
 Variable       Old X    -DE/DX   Delta X   Delta X   Delta X     New X
                                 (Linear)    (Quad)   (Total)
    R1        2.61011   0.02164   0.00000   0.00772   0.00772   2.61784
    R2        1.92676  -0.00016   0.00000  -0.00006  -0.00006   1.92670
    R3        1.93954  -0.01053   0.00000  -0.00394  -0.00394   1.93560
    R4        2.57270   0.08974   0.00000   0.03108   0.03108   2.60379
    R5        2.60817   0.07310   0.00000   0.02605   0.02605   2.63423
    R6        3.05634  -0.03864   0.00000  -0.01752  -0.01752   3.03882
    R7        1.97522  -0.02173   0.00000  -0.00832  -0.00832   1.96690
    R8        2.52153  -0.03596   0.00000  -0.01191  -0.01191   2.50962
    R9        2.06446  -0.00118   0.00000  -0.00048  -0.00048   2.06399
   R10        2.76669  -0.01402   0.00000  -0.00556  -0.00556   2.76112
   R11        1.96930   0.02818   0.00000   0.01075   0.01075   1.98005
   R12        2.59473  -0.06138   0.00000  -0.02165  -0.02165   2.57309
   R13        2.04896   0.00328   0.00000   0.00131   0.00131   2.05027
   R14        2.79458   0.01463   0.00000   0.00585   0.00588   2.80046
   R15        2.83580  -0.09852   0.00000  -0.04077  -0.04076   2.79504
   R16        2.82688   0.05473   0.00000   0.02257   0.02258   2.84946
   R17        2.06694   0.00105   0.00000   0.00042   0.00042   2.06736
   R18        2.07748  -0.00257   0.00000  -0.00105  -0.00105   2.07644
   R19        2.85754   0.05880   0.00000   0.02466   0.02465   2.88219
   R20        2.07266  -0.00224   0.00000  -0.00091  -0.00091   2.07175
   R21        2.07216  -0.00205   0.00000  -0.00083  -0.00083   2.07133
   R22        2.85956   0.00832   0.00000   0.00350   0.00348   2.86304
   R23        2.07335  -0.00031   0.00000  -0.00013  -0.00013   2.07322
   R24        2.06652   0.00242   0.00000   0.00098   0.00098   2.06750
   R25        2.48865   0.01410   0.00000   0.00444   0.00444   2.49309
   R26        2.07830  -0.00871   0.00000  -0.00354  -0.00354   2.07476
   R27        2.80413   0.00809   0.00000   0.00328   0.00328   2.80741
   R28        2.41920   0.09668   0.00000   0.02887   0.02887   2.44807
   R29        1.98876   0.02703   0.00000   0.01044   0.01044   1.99920
   R30        2.13846  -0.01615   0.00000  -0.00678  -0.00678   2.13168
   R31        3.10033  -0.05523   0.00000  -0.02542  -0.02542   3.07491
   R32        2.09398  -0.01063   0.00000  -0.00436  -0.00436   2.08962
   R33        3.00871  -0.02067   0.00000  -0.00921  -0.00921   2.99950
   R34        2.03346  -0.08280   0.00000  -0.03286  -0.03286   2.00059
    A1        1.81713   0.01876   0.00000   0.00907   0.00909   1.82621
    A2        2.07436  -0.03486   0.00000  -0.01701  -0.01700   2.05736
    A3        1.85009   0.00203   0.00000   0.00089   0.00092   1.85101
    A4        2.25734  -0.04692   0.00000  -0.02051  -0.02066   2.23668
    A5        2.18450  -0.00307   0.00000  -0.00103  -0.00114   2.18336
    A6        1.83122   0.05680   0.00000   0.02549   0.02539   1.85661
    A7        2.05895  -0.00044   0.00000  -0.00046  -0.00044   2.05851
    A8        1.53445  -0.04477   0.00000  -0.02237  -0.02232   1.51213
    A9        1.90886   0.06550   0.00000   0.03368   0.03367   1.94253
   A10        2.22927  -0.03489   0.00000  -0.01601  -0.01602   2.21325
   A11        2.06546   0.02594   0.00000   0.01205   0.01203   2.07748
   A12        1.92138   0.00293   0.00000   0.00072   0.00071   1.92209
   A13        2.50210   0.04476   0.00000   0.02044   0.02043   2.52253
   A14        1.74697  -0.00097   0.00000   0.00022   0.00021   1.74718
   A15        2.03316  -0.04322   0.00000  -0.02034  -0.02036   2.01280
   A16        2.20399  -0.20925   0.00000  -0.09539  -0.09534   2.10865
   A17        2.00570   0.08494   0.00000   0.03821   0.03828   2.04398
   A18        2.05032   0.12155   0.00000   0.05609   0.05612   2.10645
   A19        1.97866   0.20449   0.00000   0.09074   0.09076   2.06942
   A20        2.23395  -0.25602   0.00000  -0.11348  -0.11354   2.12041
   A21        2.06677   0.05228   0.00000   0.02319   0.02324   2.09001
   A22        2.09884  -0.05992   0.00000  -0.02704  -0.02699   2.07184
   A23        1.87397   0.01749   0.00000   0.00815   0.00828   1.88225
   A24        1.83396   0.01836   0.00000   0.00787   0.00775   1.84172
   A25        1.88948   0.02997   0.00000   0.01389   0.01386   1.90334
   A26        1.85090   0.00655   0.00000   0.00272   0.00276   1.85366
   A27        1.91115  -0.01213   0.00000  -0.00548  -0.00554   1.90561
   A28        2.06058   0.00613   0.00000   0.00340   0.00337   2.06396
   A29        1.87243   0.00333   0.00000   0.00168   0.00168   1.87411
   A30        1.85462  -0.00150   0.00000  -0.00075  -0.00073   1.85389
   A31        1.91502  -0.00439   0.00000  -0.00241  -0.00246   1.91256
   A32        1.87930  -0.00228   0.00000  -0.00113  -0.00107   1.87823
   A33        1.87343  -0.00190   0.00000  -0.00112  -0.00113   1.87230
   A34        2.05058   0.00468   0.00000   0.00267   0.00260   2.05318
   A35        1.86100  -0.00072   0.00000  -0.00050  -0.00056   1.86044
   A36        1.85189   0.01168   0.00000   0.00614   0.00624   1.85812
   A37        1.91583  -0.00885   0.00000  -0.00483  -0.00479   1.91104
   A38        1.88547  -0.00256   0.00000  -0.00118  -0.00121   1.88427
   A39        1.89355  -0.00427   0.00000  -0.00235  -0.00236   1.89118
   A40        2.15453  -0.03739   0.00000  -0.01699  -0.01705   2.13749
   A41        1.98033   0.02372   0.00000   0.01094   0.01095   1.99127
   A42        2.14764   0.01314   0.00000   0.00576   0.00578   2.15342
   A43        2.13472   0.03466   0.00000   0.01502   0.01501   2.14973
   A44        1.88577  -0.18423   0.00000  -0.08178  -0.08175   1.80402
   A45        2.25624   0.14620   0.00000   0.06479   0.06468   2.32092
   A46        1.75242  -0.07240   0.00000  -0.03751  -0.03750   1.71492
   A47        1.59161  -0.01980   0.00000  -0.01191  -0.01190   1.57971
   A48        1.84388   0.11123   0.00000   0.05413   0.05413   1.89802
   A49        2.03211  -0.08417   0.00000  -0.04096  -0.04096   1.99114
   A50        1.96449  -0.19459   0.00000  -0.08556  -0.08575   1.87873
   A51        1.52027   0.23490   0.00000   0.10625   0.10627   1.62655
   A52        2.52392  -0.02479   0.00000  -0.00976  -0.00874   2.51518
   A53        1.86486  -0.02034   0.00000  -0.00990  -0.00990   1.85496
   A54        3.34403  -0.09220   0.00000  -0.04942  -0.04940   3.29463
   A55        3.25000  -0.05354   0.00000  -0.03003  -0.03005   3.21994
    D1        1.92173  -0.03768   0.00000  -0.02148  -0.02133   1.90039
    D2       -1.39587   0.02650   0.00000   0.01510   0.01493  -1.38094
    D3       -0.13053  -0.03447   0.00000  -0.01971  -0.01955  -0.15007
    D4        2.83506   0.02971   0.00000   0.01686   0.01672   2.85178
    D5        2.41689  -0.10617   0.00000  -0.05988  -0.05992   2.35697
    D6       -1.93101  -0.05613   0.00000  -0.03382  -0.03383  -1.96484
    D7       -0.57601  -0.15764   0.00000  -0.08956  -0.08955  -0.66556
    D8        1.35927  -0.10760   0.00000  -0.06350  -0.06346   1.29581
[...]
 12,-0.00028308,0.00013432,-0.00020396,0.00017881,0.00000138,0.00001039
 ,0.00000176,-0.00000230,0.00000934,-0.00000574,0.00000554,-0.00003084,
 -0.00001926,-0.00000065,-0.00000730,-0.00000521,-0.00001320,-0.0000047
 4,-0.00000986,-0.00002829,0.00000810,0.00007287,-0.00000025,0.00020611
 ,-0.00020507,0.00028762,0.00044517,-0.00095032,0.00008975,0.00010522,0
 .00055943,0.00031937,0.00131943,0.00007768,0.00007840,-0.01800081,0.02
 249502,0.00908110,0.13955496,0.00001226,0.00000785,-0.00001555,0.00001
 721,-0.00003836,0.00003084,0.00005775,-0.00000233,-0.00007361,-0.00000
 262,-0.00001839,0.00003677,0.00000669,0.00006528,-0.00004972,0.0001544
 7,-0.00006656,0.00020003,-0.00095889,0.00020276,-0.00011234,-0.0033416
 5,-0.00351476,-0.00246428,0.00188747,0.01354329,-0.02072492,0.00622668
 ,0.11681301,-0.21183457,0.00435215,0.00251124,-0.00584167,-0.00000860,
 0.00121695,0.00196884,0.00047307,-0.00038394,-0.00004812,-0.00016269,0
 .00011828,-0.00012158,0.00014458,0.00005041,-0.00010447,0.00005482,-0.
 00008275,0.00011663,-0.00004004,0.00007076,-0.00003223,-0.00000154,-0.
 00000432,-0.00000324,-0.00000657,-0.00000574,0.00000450,-0.00000518,0.
 00001465,0.00000911,-0.00000737,-0.00000583,-0.00000240,0.00004872,-0.
 00001199,-0.00000881,-0.00002050,-0.00003517,0.00009381,-0.00010845,-0
 .00006330,0.00036539,0.00080251,0.00065501,-0.00143008,-0.00040233,0.0
 0001327,0.00014900,0.00069678,-0.00018366,0.00106510,-0.00059197,-0.00
 277238,0.00442632,-0.00979731,-0.12792399,0.23386124,-0.00000093,-0.00
 000296,-0.00002046,-0.00000760,-0.00006802,-0.00010295,0.00011847,0.00
 002562,0.00003025,-0.00004971,0.00005582,0.00003578,0.00004733,-0.0002
 8931,0.00011338,0.00061084,0.00024056,0.00029906,-0.00076487,-0.002967
 17,0.00275788,-0.00006741,0.00006456,0.00084118,-0.00436507,-0.0002387
 2,0.00313550,-0.01071252,-0.01213253,-0.02263943,-0.12304090,-0.063325
 50,-0.10556128,0.00907939,0.00484624,0.01347507,0.00020481,0.00230915,
 -0.00017160,-0.00001399,0.00010071,0.00029312,-0.00026200,-0.00015955,
 -0.00009332,-0.00012745,-0.00000233,0.00001206,0.00003205,0.00005713,-
 0.00004123,0.00000210,-0.00000282,-0.00000171,0.00000742,0.00000458,0.
 00000009,-0.00000427,0.00000199,0.00000161,-0.00000255,0.00000156,0.00
 000150,-0.00000065,0.00001075,0.00002222,0.00007216,0.00063097,-0.0000
 5672,0.00006532,0.00007228,-0.00002916,0.00016922,0.00010905,-0.000101
 02,-0.00062850,-0.00090808,-0.00136249,-0.00014779,-0.00023699,-0.0001
 8508,0.00066931,0.00092329,0.00005114,0.00091871,-0.00035098,0.0005502
 1,0.12793043,-0.00000330,0.00001943,0.00001516,-0.00000465,0.00001906,
 0.00012852,-0.00005269,-0.00006491,-0.00012147,0.00008501,-0.00006063,
 0.00001574,0.00007916,0.00056620,-0.00024802,0.00034133,-0.00004229,0.
 00033084,-0.00203074,0.01004367,-0.00143508,0.00020092,-0.00023894,-0.
 00030234,-0.00253889,0.00165416,0.00140332,-0.00336572,-0.00168275,-0.
 00635449,-0.06286706,-0.08831799,-0.09255811,-0.00393308,0.00398010,-0
 .00356418,0.00289375,-0.00562392,0.00252084,0.00053623,0.00044258,-0.0
 0107652,0.00037440,0.00003236,0.00015836,0.00025850,-0.00008296,0.0000
 5479,-0.00015713,0.00001746,0.00008226,0.00000121,-0.00000003,0.000000
 25,-0.00001060,-0.00000835,0.00000603,0.00000288,0.00000760,-0.0000075
 6,-0.00000196,-0.00000723,0.00000048,0.00000050,-0.00002139,-0.0000476
 8,-0.00027135,-0.00115372,0.00068591,0.00003582,-0.00003469,-0.0001103
 5,-0.00010943,-0.00014407,-0.00006281,-0.00036530,-0.00042458,-0.00071
 271,0.00031603,0.00009195,0.00032992,-0.00092491,0.00018241,0.00014833
 ,0.00077641,0.00041212,-0.00015190,0.07111787,0.08053497,-0.00000115,0
 .00002888,0.00005686,0.00001630,0.00004052,0.00002499,0.00013531,-0.00
 002224,0.00001465,-0.00004817,0.00002006,0.00003109,-0.00017253,0.0000
 7847,0.00008603,-0.00155511,-0.00019451,-0.00094803,0.00502617,-0.0026
 6541,-0.00221902,0.00042807,0.00003329,0.00024979,0.00196275,0.0001998
 0,0.00011708,0.00468495,0.00343584,0.00646368,-0.10077682,-0.08961605,
 -0.20933454,-0.01568988,-0.01312272,-0.02011118,-0.00262585,0.00207518
 ,0.00064918,0.00051729,-0.00008683,0.00016812,0.00000589,-0.00016991,0
 .00027351,-0.00027774,0.00014305,-0.00026200,0.00019116,-0.00007832,0.
 00012201,0.00000075,-0.00000158,-0.00000147,-0.00002647,-0.00000863,0.
 00001129,-0.00000370,-0.00000975,-0.00001077,-0.00000946,-0.00002925,-
 0.00002190,0.00006118,-0.00004971,0.00000592,0.00022808,-0.00010917,-0
 .00055284,-0.00008012,0.00003071,0.00005684,-0.00007465,0.00001470,-0.
 00001097,0.00032792,0.00018643,0.00043823,-0.00008378,-0.00001345,-0.0
 0010649,-0.00043871,-0.00026301,0.00017392,-0.00093672,-0.00019058,0.0
 0054133,0.10886767,0.10063633,0.22424446,0.00011462,-0.00021991,-0.000
 19462,0.00038058,-0.00009736,-0.00013863,-0.00015248,0.00015070,0.0003
 3869,0.00011366,-0.00006124,0.00009052,0.00007504,-0.00025693,-0.00009
 201,0.00017952,-0.00001137,-0.00064043,0.00030005,0.00043214,0.0016499
 1,-0.00007868,0.00014032,0.00005903,0.00013382,0.00012426,0.00016044,-
 0.00079125,0.00185439,0.00033345,-0.00331106,-0.00197956,-0.00097833,-
 0.00567058,-0.01658751,0.02495263,-0.05453004,-0.01616006,0.01918956,0
 .00439563,0.01745861,-0.02580187,0.00066604,-0.00151930,0.00092786,-0.
 00430517,0.00433498,-0.00136532,-0.00069886,-0.00228456,0.00142031,-0.
 00001087,-0.00006264,0.00000178,0.00005572,-0.00004298,0.00001361,-0.0
 0003561,-0.00001350,-0.00000886,0.00004611,0.00002940,0.00003715,0.000
 00197,0.00001112,-0.00000745,-0.00001636,-0.00000688,-0.00005827,-0.00
 012916,-0.00000990,0.00001381,0.00001373,-0.00000147,-0.00005045,-0.00
 002156,-0.00000608,-0.00006371,0.00004178,-0.00002675,-0.00004657,-0.0
 0065479,-0.00015526,0.00014720,0.00011236,-0.00001620,0.00000354,0.000
 27927,-0.00058773,0.00028576,0.06693855,-0.00002715,-0.00014314,0.0001
 6883,0.00072055,0.00096787,0.00023329,-0.00046265,0.00007485,0.0006195
 6,0.00020118,-0.00021728,-0.00058712,-0.00007079,-0.00095452,-0.000290
 18,-0.00038108,-0.00025758,-0.00027598,-0.00003400,0.00082693,0.000633
 80,-0.00011270,-0.00006775,-0.00023269,0.00013045,0.00002988,0.0001380
 4,0.00043985,0.00012051,0.00018084,-0.00148168,-0.00070236,0.00071252,
 0.00108060,0.00150690,0.00462460,-0.01198503,-0.13525599,0.13073097,0.
 00149026,-0.00548598,0.01362939,-0.00446867,-0.00384034,-0.00001632,-0
 .00114716,0.00098837,-0.00182163,-0.00061999,-0.00083189,0.00034537,-0
 .00001843,0.00002512,0.00003051,-0.00002081,0.00004100,-0.00003454,0.0
 0000757,-0.00007785,-0.00001845,-0.00001637,-0.00005645,-0.00007347,0.
 00005300,-0.00002926,0.00007628,0.00011917,0.00006672,-0.00007070,0.00
 008546,-0.00004998,0.00000537,-0.00005543,-0.00002126,-0.00001800,-0.0
 0001002,0.00000827,-0.00007549,-0.00000213,-0.00003174,-0.00000693,-0.
 00017938,-0.00001086,0.00003213,-0.00014830,-0.00005211,0.00004242,-0.
 00004462,0.00024219,-0.00009000,0.01210002,0.13715618,0.00004869,-0.00
 009332,0.00003936,0.00011861,0.00045045,0.00031217,-0.00010039,0.00002
 325,0.00012299,-0.00015217,-0.00108114,-0.00037905,-0.00019240,-0.0011
 0912,-0.00108369,-0.00051568,-0.00024039,0.00043699,-0.00046089,-0.001
 27764,-0.00047905,0.00016714,0.00001139,0.00008024,-0.00007598,-0.0000
 0217,0.00001438,0.00038818,-0.00030370,-0.00018140,0.00032851,0.000748
 53,0.00179335,0.00435728,0.00519453,-0.00626458,0.01239384,0.14069173,
 -0.23183390,0.00238624,0.00841737,-0.00756088,-0.00207031,-0.00324966,
 -0.00007620,-0.00022830,-0.00004182,-0.00037000,0.00288651,0.00091475,
 -0.00229889,-0.00000004,0.00001657,0.00000293,-0.00001283,0.00001521,0
 .00000013,0.00000232,-0.00004725,-0.00004812,0.00001774,-0.00001529,-0
 .00008708,0.00005869,0.00007306,0.00005673,0.00004025,-0.00000054,-0.0
 0000069,0.00000262,0.00003253,0.00000878,0.00002772,0.00000081,0.00000
 794,-0.00000916,0.00002115,0.00001773,0.00000910,-0.00000852,-0.000004
 45,0.00000080,0.00006637,-0.00004222,-0.00005177,-0.00000452,0.0000120
 6,-0.00015397,0.00033658,-0.00007231,-0.02025805,-0.15430909,0.2442680
 3,0.00005933,0.00007661,0.00047181,-0.00000840,-0.00060458,0.00090762,
 0.00000091,0.00003891,0.00015662,-0.00004383,0.00011548,-0.00009349,0.
 00003865,0.00011023,0.00020306,-0.00006660,-0.00004767,0.00015932,-0.0
 0023224,-0.00010802,-0.00019023,0.00001680,0.00002149,-0.00008118,-0.0
 0000394,-0.00001568,-0.00002638,-0.00009160,0.00000255,0.00003052,0.00
 046086,-0.00014595,0.00058353,0.00275659,-0.00094535,-0.00207080,0.003
 51107,0.01794533,-0.02097911,-0.05538598,-0.00808138,0.01734681,-0.001
 75537,-0.01810456,0.02166259,-0.00288622,0.00324763,0.00224336,0.00027
 876,-0.00017502,-0.00007919,0.00000587,0.00001241,0.00003472,-0.000081
 26,-0.00004960,0.00011353,0.00003344,-0.00003350,0.00001745,0.00000431
 ,-0.00002240,0.00001171,0.00001505,-0.00001066,0.00000515,0.00001680,0
 .00001010,0.00000029,0.00000124,0.00000614,-0.00000357,-0.00001167,0.0
 0001336,0.00001458,0.00001807,0.00000196,0.00001456,-0.00000344,-0.000
 00859,0.00000369,0.00003880,-0.00000676,-0.00002090,0.00002017,0.00003
 248,-0.00001454,-0.00001964,0.00020983,0.00004864,-0.00375820,0.004499
 80,0.00018075,0.05681281,0.00001321,0.00007993,0.00011088,-0.00005346,
 -0.00016289,0.00009426,-0.00008762,0.00002108,0.00010673,0.00016347,0.
 00015677,-0.00004584,-0.00001521,0.00019844,0.00040011,-0.00005349,0.0
 0005491,-0.00017740,-0.00060304,0.00028787,0.00040429,-0.00007570,-0.0
 0007415,-0.00021095,-0.00001937,-0.00001160,-0.00000867,0.00000389,0.0
 0013595,-0.00041673,0.00111444,0.00032488,0.00022181,0.00006028,-0.003
 02756,-0.00479535,-0.00157420,-0.00861360,0.01702508,-0.00954987,-0.15
 466671,0.14084038,0.00419742,0.00016882,-0.00221201,0.00089242,0.00204
 902,0.00013121,-0.00015219,-0.00020945,0.00000829,0.00000554,0.0000236
 1,0.00001830,-0.00002803,0.00000502,0.00001509,0.00000883,-0.00002071,
 -0.00000858,-0.00000671,-0.00003655,-0.00005006,0.00002810,-0.00001535
 ,0.00007938,0.00002993,0.00000113,-0.00001310,0.00000850,-0.00000195,-
 0.00000900,-0.00006566,0.00000177,0.00000592,0.00000087,-0.00000396,-0
 .00002207,0.00000148,0.00000179,0.00000546,0.00000963,0.00000599,0.000
 01018,0.00014658,0.00005609,-0.00003285,0.00019232,-0.00033777,-0.0001
 7522,0.00378411,0.00606086,0.00494854,0.00239633,0.15660712,-0.0000097
 2,-0.00007607,-0.00033885,0.00009952,0.00022622,-0.00041082,-0.0001711
 8,0.00007941,-0.00011468,0.00039622,-0.00005497,0.00016132,-0.00023457
 ,0.00039296,0.00016213,0.00003571,0.00006152,0.00003450,-0.00070485,0.
 00013563,0.00016611,-0.00002576,-0.00001952,-0.00016985,-0.00000177,0.
 00002659,-0.00001423,-0.00014892,0.00033540,-0.00016139,0.00025468,-0.
 00042071,0.00069858,0.00236411,-0.00340249,-0.00274320,0.00130960,0.00
 702711,-0.00489281,0.01304806,0.13704459,-0.20779053,0.00246957,0.0097
 4050,-0.01064172,0.00228036,-0.00096750,0.00088741,-0.00000748,-0.0000
 6739,-0.00004542,-0.00000224,-0.00001132,-0.00001449,0.00006766,0.0000
 5178,-0.00005350,-0.00000949,0.00005718,0.00000297,-0.00004229,-0.0000
 0675,0.00004897,0.00012160,-0.00017134,-0.00004111,0.00000036,-0.00000
 753,-0.00000308,-0.00000733,-0.00000347,-0.00000396,-0.00005875,0.0000
 1214,0.00000574,0.00000410,-0.00000900,0.00000099,0.00000112,-0.000024
 57,-0.00000107,-0.00007686,-0.00002374,0.00001080,0.00008741,0.0000416
 0,-0.00001299,0.00006979,-0.00007000,-0.00001626,-0.00106609,0.0056724
 8,0.00415524,-0.01944255,-0.15527031,0.22098726,-0.00019580,0.00010599
 ,0.00052243,-0.00251299,-0.00210688,-0.00205285,-0.00024993,-0.0001289
 8,0.00022674,0.00002789,-0.00020574,-0.00011121,0.00001012,0.00036260,
 -0.00020978,-0.00006015,-0.00005936,0.00010906,-0.00010163,-0.00001194
 ,0.00024393,0.00000966,-0.00004859,-0.00009943,0.00002043,0.00001640,0
 .00001985,-0.00001320,0.00000865,0.00002546,0.00004633,-0.00003302,-0.
 00003069,-0.00035362,0.00016700,-0.00065088,-0.00023346,-0.00163357,0.
 00313069,-0.01678980,0.02006340,-0.00048154,-0.11140498,0.13291715,-0.
 02098856,0.00078953,-0.00526245,0.00521705,0.00436661,0.00042045,0.002
 78882,-0.00001974,-0.00004661,0.00008831,-0.00006714,-0.00002999,0.000
 07067,0.00002230,-0.00052499,-0.00058502,-0.00000192,-0.00005968,0.000
 04652,-0.00015623,-0.00023517,0.00002257,0.00005435,-0.00000898,-0.000
 01653,0.00001753,-0.00000378,0.00000136,-0.00003215,0.00000288,-0.0000
 0279,0.00000187,-0.00000213,-0.00000992,-0.00000229,-0.00000941,0.0000
 0022,-0.00000932,-0.00000590,-0.00000175,-0.00000970,-0.00000251,0.000
 00292,0.00000806,0.00001055,0.00000349,0.00023559,0.00015702,0.0001352
 3,0.00028176,-0.00069906,-0.00049022,0.12496441,-0.00106668,0.00036072
 ,0.00046493,-0.00149064,-0.00162916,-0.00395194,-0.00015410,0.00035565
 ,-0.00023261,0.00032192,-0.00019432,-0.00006061,-0.00007449,-0.0000046
 5,0.00001810,0.00014631,-0.00000721,0.00003215,0.00028324,0.00002552,-
 0.00029425,0.00000918,0.00007948,0.00014362,-0.00002858,-0.00003673,-0
 .00001741,-0.00003734,-0.00002011,-0.00005140,0.00013947,0.00003217,0.
 00006942,-0.00053157,0.00029046,0.00087037,0.00152784,-0.00003026,-0.0
 0120883,-0.00312701,-0.00256219,0.00402516,0.13722294,-0.23880291,0.04
 208001,0.00719544,-0.01520453,0.00322211,0.00202683,0.00196805,0.00436
 130,-0.00008783,0.00001319,0.00024975,-0.00008081,0.00012491,0.0000242
 6,0.00001447,0.00004009,-0.00001790,-0.00003844,0.00002318,-0.00001303
 ,-0.00002424,-0.00003534,-0.00002554,-0.00002823,0.00000804,0.00003759
 ,-0.00000724,-0.00000232,-0.00000643,0.00006564,0.00000426,0.00001797,
 0.00002473,0.00000475,0.00000984,-0.00000990,0.00001198,0.00000468,0.0
 0005909,-0.00000098,-0.00000027,0.00005220,0.00003269,-0.00001711,-0.0
 0003516,0.00001016,0.00000021,-0.00004913,-0.00014072,-0.00024635,-0.0
 0041937,0.00091961,-0.00030155,-0.14366242,0.25433275,-0.00016525,-0.0
 0064617,0.00066306,-0.00121661,-0.00092258,-0.00117903,-0.00071273,-0.
 00003383,-0.00037344,-0.00004404,-0.00006571,-0.00022732,0.00015674,-0
 .00002454,-0.00009079,0.00016015,-0.00002942,0.00001713,0.00054463,0.0
 0007762,-0.00027318,0.00002895,0.00010319,0.00018818,-0.00002359,-0.00
 004163,-0.00000055,-0.00002231,-0.00002888,-0.00002326,0.00000286,0.00
 004748,-0.00000293,-0.00024099,0.00054399,0.00180276,0.00410368,0.0004
 6123,-0.00198608,0.00854325,-0.01738401,0.00494930,-0.00956521,0.03991
 035,-0.05698311,-0.01703639,0.02468297,0.00266726,0.00444278,0.0019568
 2,-0.00517289,-0.00005461,0.00006026,0.00009580,0.00000302,-0.00003694
 ,0.00004546,-0.00022168,-0.00033149,-0.00049620,0.00004589,-0.00002152
 ,0.00004087,-0.00010203,-0.00008163,0.00005669,0.00000462,0.00001299,0
 .00002724,0.00000556,-0.00000986,-0.00000991,0.00009017,-0.00000268,0.
 00001246,0.00002480,0.00000759,-0.00000033,-0.00000788,0.00001117,0.00
 000446,0.00005489,-0.00000078,-0.00000491,0.00004322,0.00002794,-0.000
 02448,-0.00004314,-0.00001742,-0.00000918,0.00023344,-0.00021754,-0.00
 019916,-0.00122142,-0.00077372,0.00016493,0.01212460,-0.04932239,0.055
 64350,-0.00158665,-0.00203222,-0.00793525,-0.00390031,0.00682982,0.000
 37876,0.00001331,-0.00127939,0.00157158,0.00169188,-0.00083049,0.00067
 658,-0.00073323,0.00036125,0.00019105,-0.00006016,0.00004969,-0.000048
 33,-0.00005104,0.00005368,0.00005035,-0.00002193,-0.00001189,-0.000004
 09,0.00000432,-0.00001858,0.00002455,-0.00001827,0.00001764,-0.0000133
 7,0.00001539,0.00002550,0.00001499,-0.00004757,-0.00020429,0.00002725,
 -0.00038139,-0.00055060,0.00027067,-0.00119903,0.00033961,0.00002792,-
 0.00052782,0.00553416,-0.00088697,0.00856183,-0.00810033,-0.01665850,-
 0.07086056,-0.00984353,0.13957379,-0.00047974,-0.00031294,-0.00017211,
 0.00321884,-0.00342591,0.00069004,-0.00059200,-0.00029525,-0.00025944,
 -0.00044379,-0.00008882,-0.00071126,-0.00003025,-0.00003646,-0.0001881
 0,-0.00000476,-0.00003779,0.00001372,-0.00000027,0.00000274,0.00000710
 ,0.00001384,0.00000281,0.00000996,0.00002609,0.00000423,-0.00001332,-0
 .00000747,0.00000989,-0.00000303,0.00001208,-0.00000597,0.00000283,0.0
 0002158,0.00001789,-0.00002157,0.00000093,-0.00001587,0.00000948,0.000
 08063,0.00020148,0.00073175,-0.00002290,-0.00007374,-0.00010980,0.0013
 5761,0.00186389,0.00006462,0.06595079,-0.00419742,-0.00343612,0.001452
 64,-0.00102461,-0.00644536,0.00366904,0.00023252,-0.00107424,-0.001013
 13,-0.00037314,0.00006762,0.00001991,0.00009755,0.00040059,0.00031386,
 -0.00018537,-0.00003638,-0.00011320,0.00001603,-0.00003297,0.00028372,
 -0.00005922,0.00002285,-0.00011477,0.00006538,-0.00001462,0.00004097,0
 .00000929,-0.00002306,0.00000998,-0.00009882,-0.00003387,0.00000384,0.
 00009368,0.00008882,-0.00014222,-0.00005093,0.00013794,-0.00002462,-0.
 00007821,-0.00006251,-0.00097490,0.00487707,-0.00548551,-0.00100002,-0
 .01234388,-0.01683241,0.04999665,0.00187972,-0.04855024,0.02772157,-0.
 00046948,0.00344675,0.00088114,-0.00079629,0.00052086,-0.00034556,0.00
 024524,0.00010314,-0.00001066,-0.00032124,-0.00008683,-0.00031113,0.00
 006454,-0.00004506,-0.00006061,0.00014289,-0.00000759,-0.00001681,0.00
 006264,-0.00003738,-0.00002398,-0.00000746,0.00000568,-0.00000153,0.00
 002757,0.00001079,-0.00003888,-0.00000992,-0.00001148,0.00001079,0.000
 02742,-0.00000115,-0.00000872,0.00000055,0.00000843,-0.00000986,0.0000
 0027,-0.00001020,-0.00002712,-0.00026372,0.00011139,0.00006773,0.00003
 846,0.00002160,0.00000313,0.00054907,0.00003379,0.00208915,0.01184981,
 0.07724673,-0.01012211,-0.00160370,0.00081289,0.00651445,-0.00663127,-
 0.00391184,0.00018912,0.00127807,-0.00210739,-0.00081686,-0.00007862,0
 .00059201,0.00011775,0.00039695,-0.00003432,-0.00016071,-0.00006247,-0
 .00017267,-0.00006244,0.00000925,0.00046230,-0.00000522,-0.00005634,-0
 .00017105,0.00006901,0.00006465,0.00007694,0.00010195,-0.00002702,0.00
 014141,-0.00039869,-0.00011892,-0.00005092,0.00092730,0.00008382,-0.00
 021429,-0.00136831,0.00081781,0.00066134,0.00063461,-0.00103324,-0.002
 59753,0.00111772,-0.00256673,0.00445274,-0.00801074,0.03342957,-0.0198
 4562,0.12791184,0.05331841,-0.35436532,-0.00040243,0.00511190,0.001375
 97,-0.00075463,-0.00047565,-0.00088984,0.00052644,0.00047222,0.0000744
 9,-0.00040277,-0.00016422,0.00001064,0.00016273,0.00015176,0.00000818,
 0.00001866,-0.00005249,-0.00004589,0.00001805,0.00000155,0.00001360,-0
 .00008788,-0.00002108,-0.00005049,-0.00005381,-0.00000823,-0.00003704,
 0.00001874,-0.00002036,-0.00001236,-0.00012231,0.00000657,-0.00001026,
 -0.00013000,-0.00007658,0.00002409,0.00000606,-0.00001304,-0.00005203,
 0.00091199,0.00026175,-0.00034739,0.00001306,-0.00020408,-0.00001698,0
 .00095127,0.00013616,0.00067764,-0.11731185,-0.08232638,0.37554899\\-0
 .00000863,0.00000195,0.00001392,-0.00004160,-0.00003897,-0.00001247,0.
 00004636,0.00004967,0.00001632,0.00000058,-0.00001184,-0.00001375,0.00
 001581,-0.00001928,0.00003844,-0.00002755,0.00003852,-0.00003055,-0.00
 001539,-0.00002603,0.00000920,0.00002584,0.00001263,-0.00001596,0.0000
 0305,-0.00000970,0.00001868,-0.00000895,0.00000724,0.00000395,-0.00000
 018,-0.00003248,-0.00002287,0.00000323,0.00003329,0.00002019,-0.000018
 78,0.00001771,-0.00000331,0.00000452,-0.00000098,-0.00001936,0.0000047
 1,-0.00002308,0.00001879,-0.00000274,-0.00000183,0.00001109,-0.0000091
 0,0.00001783,0.00000902,0.00000378,0.00000030,-0.00000342,0.00000183,-
 0.00000232,-0.00000790,-0.00000449,-0.00000322,-0.00000347,-0.00000440
 ,0.00000319,0.00000637,-0.00000272,0.00000651,-0.00000757,0.00000526,-
 0.00001036,0.00000094,-0.00000577,-0.00000316,0.00000492,0.00000290,-0
 .00000134,-0.00000075,-0.00000404,0.00000679,0.00000527,0.00000276,-0.
 00000327,-0.00000046,-0.00000273,0.00000132,-0.00000467,0.00000696,-0.
 00000514,-0.00000549,0.00000565,0.00000423,0.00000301,0.00000230,-0.00
 000918,0.00000214,0.00001365,0.00000300,-0.00000220,0.00000426,-0.0000
 0365,-0.00001142,0.00000363,0.00000165,-0.00001660\\\@


 IT MATTERS NOT HOW DEEP YOU PLOW,
 BUT HOW LONG YOU STAY IN THE FURROW.
 Job cpu time:       0 days 14 hours  4 minutes 11.8 seconds.
 Elapsed time:       0 days  3 hours 31 minutes  4.8 seconds.
 File lengths (MBytes):  RWF=    785 Int=      0 D2E=      0 Chk=     26 Scr=      1
 Normal termination of Gaussian 16 at Fri May 19 22:27:35 2023.
### All Done ###
