### Starting Gaussian ###
 Entering Gaussian System, Link 0=g16
 Initial command:
 /cluster/software/gaussian/gaussian-16-A.03/avx2/g16/l1.exe "/local/scratch/linjian/Gau-9320.inp" -scrdir="/local/scratch/linjian/"
 Entering Link 1 = /cluster/software/gaussian/gaussian-16-A.03/avx2/g16/l1.exe PID=      9321.
  
 Copyright (c) 1988,1990,1992,1993,1995,1998,2003,2009,2016,
            Gaussian, Inc.  All Rights Reserved.
  
 This is part of the Gaussian(R) 16 program.  It is based on
 the Gaussian(R) 09 system (copyright 2009, Gaussian, Inc.),
 the Gaussian(R) 03 system (copyright 2003, Gaussian, Inc.),
 the Gaussian(R) 98 system (copyright 1998, Gaussian, Inc.),
 the Gaussian(R) 94 system (copyright 1995, Gaussian, Inc.),
 the Gaussian 92(TM) system (copyright 1992, Gaussian, Inc.),
 the Gaussian 90(TM) system (copyright 1990, Gaussian, Inc.),
 the Gaussian 88(TM) system (copyright 1988, Gaussian, Inc.),
 the Gaussian 86(TM) system (copyright 1986, Carnegie Mellon
 University), and the Gaussian 82(TM) system (copyright 1983,
 Carnegie Mellon University). Gaussian is a federally registered
 trademark of Gaussian, Inc.
  
 This software contains proprietary and confidential information,
 including trade secrets, belonging to Gaussian, Inc.
  
 This software is provided under written license and may be
 used, copied, transmitted, or stored only in accord with that
 written license.
  
 The following legend is applicable only to US Government
 contracts under FAR:
  
                    RESTRICTED RIGHTS LEGEND
  
 Use, reproduction and disclosure by the US Government is
 subject to restrictions as set forth in subparagraphs (a)
 and (c) of the Commercial Computer Software - Restricted
 Rights clause in FAR 52.227-19.
  
 Gaussian, Inc.
 340 Quinnipiac St., Bldg. 40, Wallingford CT 06492
  
  
 ---------------------------------------------------------------
 Warning -- This program may not be used in any manner that
 competes with the business of Gaussian, Inc. or will provide
 assistance to any competitor of Gaussian, Inc.  The licensee
 of this program is prohibited from giving any competitor of
 Gaussian, Inc. access to this program.  By using this program,
 the user acknowledges that Gaussian, Inc. is engaged in the
 business of creating and licensing software in the field of
 computational chemistry and represents and warrants to the
 licensee that it is not a competitor of Gaussian, Inc. and that
 it will not use this program in any manner prohibited above.
 ---------------------------------------------------------------
  

 Cite this work as:
 Gaussian 16, Revision A.03,
 M. J. Frisch, G. W. Trucks, H. B. Schlegel, G. E. Scuseria, 
 M. A. Robb, J. R. Cheeseman, G. Scalmani, V. Barone, 
 G. A. Petersson, H. Nakatsuji, X. Li, M. Caricato, A. V. Marenich, 
 J. Bloino, B. G. Janesko, R. Gomperts, B. Mennucci, H. P. Hratchian, 
 J. V. Ortiz, A. F. Izmaylov, J. L. Sonnenberg, D. Williams-Young, 
 F. Ding, F. Lipparini, F. Egidi, J. Goings, B. Peng, A. Petrone, 
 T. Henderson, D. Ranasinghe, V. G. Zakrzewski, J. Gao, N. Rega, 
 G. Zheng, W. Liang, M. Hada, M. Ehara, K. Toyota, R. Fukuda, 
 J. Hasegawa, M. Ishida, T. Nakajima, Y. Honda, O. Kitao, H. Nakai, 
 T. Vreven, K. Throssell, J. A. Montgomery, Jr., J. E. Peralta, 
 F. Ogliaro, M. J. Bearpark, J. J. Heyd, E. N. Brothers, K. N. Kudin, 
 V. N. Staroverov, T. A. Keith, R. Kobayashi, J. Normand, 
 K. Raghavachari, A. P. Rendell, J. C. Burant, S. S. Iyengar, 
 J. Tomasi, M. Cossi, J. M. Millam, M. Klene, C. Adamo, R. Cammi, 
 J. W. Ochterski, R. L. Martin, K. Morokuma, O. Farkas, 
 J. B. Foresman, and D. J. Fox, Gaussian, Inc., Wallingford CT, 2016.
 
 ******************************************
 Gaussian 16:  ES64L-G16RevA.03 25-Dec-2016
                17-May-2023 
 ******************************************
 %chk=NNC1dCNdC2CdCCdCCdCCdC1CdC2.chk
 %NProcShared=20
 Will use up to   20 processors via shared memory.
 -----------------------------
 # opt freq b3lyp/6-31g(2df,p)
 -----------------------------
 1/18=20,19=15,26=3,38=1/1,3;
 2/9=110,12=2,17=6,18=5,40=1/2;
 3/5=1,6=6,7=104,11=2,25=1,30=1,71=1,74=-5/1,2,3;
 4//1;
 5/5=2,38=5/2;
 6/7=2,8=2,9=2,10=2,28=1/1;
 7//1,2,3,16;
 1/18=20,19=15,26=3/3(2);
 2/9=110/2;
 99//99;
 2/9=110/2;
 3/5=1,6=6,7=104,11=2,25=1,30=1,71=1,74=-5/1,2,3;
 4/5=5,16=3,69=1/1;
 5/5=2,38=5/2;
 7//1,2,3,16;
 1/18=20,19=15,26=3/3(-5);
 2/9=110/2;
 6/7=2,8=2,9=2,10=2,19=2,28=1/1;
 99/9=1/99;
 -------------------
 Title Card Required
 -------------------
 Symbolic Z-matrix:
 Charge =  0 Multiplicity = 1
 N                     1.12964   0.05936  -0.0313 
 N                     2.62008   0.16488  -0.15726 
 C                     3.11759   1.24603  -1.12846 
 C                     2.31402   2.20708  -1.52758 
 N                     2.39828   2.73345  -3.03047 
 C                     3.54514   2.53789  -4.03961 
 C                     4.5526    3.6368   -4.66067 
 C                     3.56052   4.44658  -4.68272 
 C                     3.69576   5.6211   -5.44184 
 C                     2.64036   6.08518  -4.68591 
 C                     3.71112   7.05855  -4.45285 
 C                     3.86709   6.0955   -3.12561 
 C                     4.06108   4.15434  -2.20036 
 C                     4.30637   2.48941  -1.81554 
 C                     4.8843    0.9761   -2.82892 
 C                     4.88363   1.61671  -3.96233 
 H                     0.76535  -0.50828   0.74687 
 H                     0.73642  -0.3414   -0.88956 
 H                     3.09607  -0.36576   0.60332 
 H                     1.74304   2.5051   -0.62247 
 H                     5.39194   3.82679  -5.33531 
 H                     2.72638   4.48549  -3.6303 
 H                     4.6759    6.11315  -5.93565 
 H                     1.85532   6.86177  -3.9077 
 H                     3.71828   7.74113  -5.76288 
 H                     3.30559   7.34523  -3.68924 
 H                     4.37925   3.01995  -2.59138 
 H                     5.66686   0.01141  -2.97864 
 H                     5.81063   1.75157  -4.52419 
 
 Add virtual bond connecting atoms H22        and C8         Dist= 2.54D+00.
 Add virtual bond connecting atoms H24        and C10        Dist= 2.55D+00.
 Add virtual bond connecting atoms H25        and C11        Dist= 2.79D+00.
 Add virtual bond connecting atoms C14        and C3         Dist= 3.50D+00.
 Add virtual bond connecting atoms H27        and C6         Dist= 3.29D+00.

 GradGradGradGradGradGradGradGradGradGradGradGradGradGradGradGradGradGrad
 Berny optimization.
 Initialization pass.
                           ----------------------------
                           !    Initial Parameters    !
                           ! (Angstroms and Degrees)  !
 --------------------------                            --------------------------
 ! Name  Definition              Value          Derivative Info.                !
 --------------------------------------------------------------------------------
 ! R1    R(1,2)                  1.4995         estimate D2E/DX2                !
 ! R2    R(1,17)                 1.0298         estimate D2E/DX2                !
 ! R3    R(1,18)                 1.0256         estimate D2E/DX2                !
 ! R4    R(2,3)                  1.5361         estimate D2E/DX2                !
 ! R5    R(2,19)                 1.0424         estimate D2E/DX2                !
 ! R6    R(3,4)                  1.3148         estimate D2E/DX2                !
 ! R7    R(3,14)                 1.8524         estimate D2E/DX2                !
 ! R8    R(4,5)                  1.5946         estimate D2E/DX2                !
 ! R9    R(4,20)                 1.1109         estimate D2E/DX2                !
 ! R10   R(5,6)                  1.5401         estimate D2E/DX2                !
 ! R11   R(6,7)                  1.615          estimate D2E/DX2                !
 ! R12   R(6,16)                 1.6267         estimate D2E/DX2                !
 ! R13   R(6,27)                 1.7394         estimate D2E/DX2                !
 ! R14   R(7,8)                  1.2808         estimate D2E/DX2                !
 ! R15   R(7,21)                 1.0935         estimate D2E/DX2                !
 ! R16   R(8,9)                  1.405          estimate D2E/DX2                !
 ! R17   R(8,22)                 1.3435         estimate D2E/DX2                !
 ! R18   R(9,10)                 1.3786         estimate D2E/DX2                !
 ! R19   R(9,11)                 1.7449         estimate D2E/DX2                !
 ! R20   R(9,23)                 1.2028         estimate D2E/DX2                !
 ! R21   R(10,11)                1.4657         estimate D2E/DX2                !
 ! R22   R(10,24)                1.3509         estimate D2E/DX2                !
 ! R23   R(11,12)                1.6472         estimate D2E/DX2                !
 ! R24   R(11,25)                1.4772         estimate D2E/DX2                !
 ! R25   R(11,26)                0.9109         estimate D2E/DX2                !
 ! R26   R(13,14)                1.7263         estimate D2E/DX2                !
 ! R27   R(13,27)                1.2414         estimate D2E/DX2                !
 ! R28   R(14,27)                0.9427         estimate D2E/DX2                !
 ! R29   R(15,16)                1.3019         estimate D2E/DX2                !
 ! R30   R(15,28)                1.2512         estimate D2E/DX2                !
 ! R31   R(16,29)                1.0923         estimate D2E/DX2                !
 ! A1    A(2,1,17)             116.9934         estimate D2E/DX2                !
 ! A2    A(2,1,18)             109.7733         estimate D2E/DX2                !
 ! A3    A(17,1,18)            106.3403         estimate D2E/DX2                !
 ! A4    A(1,2,3)              115.1232         estimate D2E/DX2                !
 ! A5    A(1,2,19)             110.9013         estimate D2E/DX2                !
 ! A6    A(3,2,19)             132.1984         estimate D2E/DX2                !
 ! A7    A(2,3,4)              120.5604         estimate D2E/DX2                !
 ! A8    A(2,3,14)             156.177          estimate D2E/DX2                !
 ! A9    A(4,3,14)              77.8183         estimate D2E/DX2                !
 ! A10   A(3,4,5)              119.6755         estimate D2E/DX2                !
 ! A11   A(3,4,20)             105.2424         estimate D2E/DX2                !
 ! A12   A(5,4,20)             134.9507         estimate D2E/DX2                !
 ! A13   A(4,5,6)              127.9506         estimate D2E/DX2                !
 ! A14   A(5,6,7)              129.0578         estimate D2E/DX2                !
 ! A15   A(5,6,16)             130.8072         estimate D2E/DX2                !
 ! A16   A(5,6,27)              77.0763         estimate D2E/DX2                !
 ! A17   A(7,6,16)              83.7022         estimate D2E/DX2                !
 ! A18   A(7,6,27)              80.3554         estimate D2E/DX2                !
 ! A19   A(16,6,27)             73.9072         estimate D2E/DX2                !
 ! A20   A(6,7,8)               87.3424         estimate D2E/DX2                !
 ! A21   A(6,7,21)             146.5424         estimate D2E/DX2                !
 ! A22   A(8,7,21)             118.2992         estimate D2E/DX2                !
 ! A23   A(7,8,9)              117.5983         estimate D2E/DX2                !
 ! A24   A(7,8,22)             119.0617         estimate D2E/DX2                !
 ! A25   A(9,8,22)             117.3097         estimate D2E/DX2                !
 ! A26   A(8,9,10)              84.9204         estimate D2E/DX2                !
 ! A27   A(8,9,11)             112.5368         estimate D2E/DX2                !
 ! A28   A(8,9,23)             129.96           estimate D2E/DX2                !
 ! A29   A(10,9,23)            135.3363         estimate D2E/DX2                !
 ! A30   A(11,9,23)             83.5988         estimate D2E/DX2                !
 ! A31   A(9,10,24)            162.5982         estimate D2E/DX2                !
 ! A32   A(11,10,24)            87.201          estimate D2E/DX2                !
 ! A33   A(9,11,12)             88.6181         estimate D2E/DX2                !
 ! A34   A(9,11,25)             82.9956         estimate D2E/DX2                !
 ! A35   A(9,11,26)            136.9282         estimate D2E/DX2                !
 ! A36   A(10,11,12)            78.9905         estimate D2E/DX2                !
 ! A37   A(10,11,25)            99.7523         estimate D2E/DX2                !
 ! A38   A(10,11,26)            90.978          estimate D2E/DX2                !
 ! A39   A(12,11,26)            63.3013         estimate D2E/DX2                !
 ! A40   A(25,11,26)           126.8816         estimate D2E/DX2                !
 ! A41   A(3,14,13)            129.7066         estimate D2E/DX2                !
 ! A42   A(3,14,27)            137.1076         estimate D2E/DX2                !
 ! A43   A(16,15,28)           105.9936         estimate D2E/DX2                !
 ! A44   A(6,16,15)            108.6887         estimate D2E/DX2                !
 ! A45   A(6,16,29)            127.1524         estimate D2E/DX2                !
 ! A46   A(15,16,29)           120.5374         estimate D2E/DX2                !
 ! A47   A(6,27,13)            113.1174         estimate D2E/DX2                !
 ! A48   A(6,27,14)            119.4839         estimate D2E/DX2                !
 ! A49   L(12,11,25,9,-1)      171.6137         estimate D2E/DX2                !
 ! A50   L(12,11,25,9,-2)      185.7891         estimate D2E/DX2                !
 ! D1    D(17,1,2,3)          -167.4838         estimate D2E/DX2                !
 ! D2    D(17,1,2,19)           -0.7737         estimate D2E/DX2                !
 ! D3    D(18,1,2,3)            71.275          estimate D2E/DX2                !
 ! D4    D(18,1,2,19)         -122.0149         estimate D2E/DX2                !
 ! D5    D(1,2,3,4)             16.7805         estimate D2E/DX2                !
 ! D6    D(1,2,3,14)           153.7189         estimate D2E/DX2                !
 ! D7    D(19,2,3,4)          -146.3686         estimate D2E/DX2                !
 ! D8    D(19,2,3,14)           -9.4303         estimate D2E/DX2                !
 ! D9    D(2,3,4,5)           -142.5043         estimate D2E/DX2                !
 ! D10   D(2,3,4,20)            41.0584         estimate D2E/DX2                !
 ! D11   D(14,3,4,5)            53.8835         estimate D2E/DX2                !
 ! D12   D(14,3,4,20)         -122.5537         estimate D2E/DX2                !
 ! D13   D(2,3,14,13)         -127.5261         estimate D2E/DX2                !
 ! D14   D(2,3,14,27)          170.6419         estimate D2E/DX2                !
 ! D15   D(4,3,14,13)           15.4976         estimate D2E/DX2                !
 ! D16   D(4,3,14,27)          -46.3344         estimate D2E/DX2                !
 ! D17   D(3,4,5,6)            -17.4729         estimate D2E/DX2                !
 ! D18   D(20,4,5,6)           157.6674         estimate D2E/DX2                !
 ! D19   D(4,5,6,7)           -112.3147         estimate D2E/DX2                !
 ! D20   D(4,5,6,16)             8.6139         estimate D2E/DX2                !
 ! D21   D(4,5,6,27)           -46.3666         estimate D2E/DX2                !
 ! D22   D(5,6,7,8)            -37.3538         estimate D2E/DX2                !
 ! D23   D(5,6,7,21)          -179.5933         estimate D2E/DX2                !
 ! D24   D(16,6,7,8)          -176.5684         estimate D2E/DX2                !
 ! D25   D(16,6,7,21)           41.1921         estimate D2E/DX2                !
 ! D26   D(27,6,7,8)          -101.883          estimate D2E/DX2                !
 ! D27   D(27,6,7,21)          115.8774         estimate D2E/DX2                !
 ! D28   D(5,6,16,15)            0.5071         estimate D2E/DX2                !
 ! D29   D(5,6,16,29)         -157.8167         estimate D2E/DX2                !
 ! D30   D(7,6,16,15)          138.4292         estimate D2E/DX2                !
 ! D31   D(7,6,16,29)          -19.8947         estimate D2E/DX2                !
 ! D32   D(27,6,16,15)          56.6847         estimate D2E/DX2                !
 ! D33   D(27,6,16,29)        -101.6391         estimate D2E/DX2                !
 ! D34   D(5,6,27,13)          -61.6626         estimate D2E/DX2                !
 ! D35   D(5,6,27,14)           60.6943         estimate D2E/DX2                !
 ! D36   D(7,6,27,13)           72.3441         estimate D2E/DX2                !
 ! D37   D(7,6,27,14)         -165.2989         estimate D2E/DX2                !
 ! D38   D(16,6,27,13)         158.5151         estimate D2E/DX2                !
 ! D39   D(16,6,27,14)         -79.128          estimate D2E/DX2                !
 ! D40   D(6,7,8,9)           -165.7709         estimate D2E/DX2                !
 ! D41   D(6,7,8,22)            42.2498         estimate D2E/DX2                !
 ! D42   D(21,7,8,9)            -8.3174         estimate D2E/DX2                !
 ! D43   D(21,7,8,22)         -160.2967         estimate D2E/DX2                !
 ! D44   D(7,8,9,10)          -161.551          estimate D2E/DX2                !
 ! D45   D(7,8,9,11)          -113.5245         estimate D2E/DX2                !
 ! D46   D(7,8,9,23)           -12.5586         estimate D2E/DX2                !
 ! D47   D(22,8,9,10)           -9.0772         estimate D2E/DX2                !
 ! D48   D(22,8,9,11)           38.9492         estimate D2E/DX2                !
 ! D49   D(22,8,9,23)          139.9152         estimate D2E/DX2                !
 ! D50   D(8,9,10,24)          131.6215         estimate D2E/DX2                !
 ! D51   D(23,9,10,24)         -14.2034         estimate D2E/DX2                !
 ! D52   D(8,9,11,12)           11.219          estimate D2E/DX2                !
 ! D53   D(8,9,11,25)         -174.5701         estimate D2E/DX2                !
 ! D54   D(8,9,11,26)          -35.6311         estimate D2E/DX2                !
 ! D55   D(23,9,11,12)        -119.5615         estimate D2E/DX2                !
 ! D56   D(23,9,11,25)          54.6494         estimate D2E/DX2                !
 ! D57   D(23,9,11,26)        -166.4116         estimate D2E/DX2                !
 ! D58   D(24,10,11,12)         85.1809         estimate D2E/DX2                !
 ! D59   D(24,10,11,25)       -105.0935         estimate D2E/DX2                !
 ! D60   D(24,10,11,26)         22.6397         estimate D2E/DX2                !
 ! D61   D(3,14,27,6)          -22.9611         estimate D2E/DX2                !
 ! D62   D(28,15,16,6)         160.2989         estimate D2E/DX2                !
 ! D63   D(28,15,16,29)        -39.6877         estimate D2E/DX2                !
 --------------------------------------------------------------------------------
 Trust Radius=3.00D-01 FncErr=1.00D-07 GrdErr=1.00D-06 EigMax=2.50D+02 EigMin=1.00D-04
 Number of steps in this run=    154 maximum allowed number of steps=    174.
 GradGradGradGradGradGradGradGradGradGradGradGradGradGradGradGradGradGrad

                          Input orientation:                          
 ---------------------------------------------------------------------
 Center     Atomic      Atomic             Coordinates (Angstroms)
 Number     Number       Type             X           Y           Z
 ---------------------------------------------------------------------
      1          7           0        1.129640    0.059360   -0.031300
      2          7           0        2.620080    0.164880   -0.157260
      3          6           0        3.117590    1.246030   -1.128460
      4          6           0        2.314020    2.207080   -1.527580
      5          7           0        2.398280    2.733450   -3.030470
      6          6           0        3.545140    2.537890   -4.039610
      7          6           0        4.552600    3.636800   -4.660670
      8          6           0        3.560520    4.446580   -4.682720
      9          6           0        3.695760    5.621100   -5.441840
     10          6           0        2.640360    6.085180   -4.685910
     11          6           0        3.711120    7.058550   -4.452850
     12          6           0        3.867090    6.095500   -3.125610
     13          6           0        4.061080    4.154340   -2.200360
     14          6           0        4.306370    2.489410   -1.815540
     15          6           0        4.884300    0.976100   -2.828920
     16          6           0        4.883630    1.616710   -3.962330
     17          1           0        0.765350   -0.508280    0.746870
     18          1           0        0.736420   -0.341400   -0.889560
     19          1           0        3.096070   -0.365760    0.603320
     20          1           0        1.743040    2.505100   -0.622470
     21          1           0        5.391940    3.826790   -5.335310
     22          1           0        2.726380    4.485490   -3.630300
     23          1           0        4.675900    6.113150   -5.935650
     24          1           0        1.855320    6.861770   -3.907700
     25          1           0        3.718280    7.741130   -5.762880
     26          1           0        3.305590    7.345230   -3.689240
     27          1           0        4.379250    3.019950   -2.591380
     28          1           0        5.666860    0.011410   -2.978640
     29          1           0        5.810630    1.751570   -4.524190
 ---------------------------------------------------------------------
                    Distance matrix (angstroms):
                    1          2          3          4          5
     1  N    0.000000
     2  N    1.499471   0.000000
     3  C    2.562009   1.536109   0.000000
     4  C    2.873032   2.478312   1.314777   0.000000
     5  N    4.213695   3.860322   2.519418   1.594630   0.000000
     6  C    5.295687   4.643227   3.213487   2.816982   1.540096
     7  C    6.778333   6.005794   4.500171   4.107504   2.848629
     8  C    6.840511   6.300569   4.803381   4.064976   2.648688
     9  C    8.172629   7.671650   6.170961   5.374586   3.979533
    10  C    7.762614   7.453793   6.024996   5.012106   3.746088
    11  C    8.671955   8.195435   6.722294   5.834883   4.738481
    12  C    7.314600   6.748214   5.297897   4.481689   3.670127
    13  C    5.483340   4.708134   3.239971   2.701235   2.339426
    14  C    4.379528   3.316158   1.852369   2.032754   2.275174
    15  C    4.771222   3.594793   2.466919   3.132912   3.051098
    16  C    5.654271   4.659402   3.359631   3.588794   2.879659
    17  H    1.029792   2.170396   3.482456   3.865835   5.238661
    18  H    1.025593   2.083449   2.871755   3.064415   4.098777
    19  H    2.109577   1.042414   2.365881   3.431012   4.826639
    20  H    2.589862   2.542095   1.931494   1.110882   2.505982
    21  H    7.777741   6.921343   5.434204   5.157117   3.933151
    22  H    5.923935   5.544455   4.111733   3.127719   1.880715
    23  H    9.169825   8.543893   7.016143   6.345624   5.004997
    24  H    7.862943   7.713559   6.391716   5.248001   4.255275
    25  H    9.927822   9.488339   8.001562   7.108827   5.855367
    26  H    8.437961   8.031328   6.617641   5.661852   4.746125
    27  H    5.087147   4.143796   2.622730   2.461220   2.049177
    28  H    5.410682   4.155311   3.383228   4.262403   4.253916
    29  H    6.705319   5.636246   4.363372   4.627466   3.852197
                    6          7          8          9         10
     6  C    0.000000
     7  C    1.615021   0.000000
     8  C    2.014181   1.280802   0.000000
     9  C    3.390445   2.298227   1.405009   0.000000
    10  C    3.717472   3.106745   1.879286   1.378648   0.000000
    11  C    4.542542   3.529823   2.626387   1.744878   1.465706
    12  C    3.687226   2.978513   2.288562   2.370513   1.984820
    13  C    2.502388   2.561750   2.549132   3.576596   3.453194
    14  C    2.351236   3.077645   3.550708   4.830153   4.893279
    15  C    2.387113   3.247254   4.151289   5.460403   5.881018
    16  C    1.626684   2.162874   3.205892   4.431154   5.052034
    17  H    6.317972   7.795283   7.864099   9.190034   8.746684
    18  H    5.109015   6.679115   6.729662   8.064264   7.703129
    19  H    5.494511   6.771378   7.163557   8.529131   8.354535
    20  H    3.863352   5.047914   4.853680   6.062087   5.489417
    21  H    2.598225   1.093493   2.040616   2.471421   3.618458
    22  H    2.151987   2.262082   1.343462   2.347549   1.918520
    23  H    4.201913   2.788026   2.364606   1.202762   2.388735
    24  H    4.644225   4.271149   3.056388   2.698160   1.350922
    25  H    5.483917   4.330875   3.470691   2.144318   2.250321
    26  H    4.826040   4.031273   3.074762   2.489270   1.738853
    27  H    1.739394   2.166221   2.660694   3.918962   4.099565
    28  H    3.465610   4.149006   5.197239   6.435931   6.997511
    29  H    2.446541   2.270541   3.514428   4.504222   5.371866
                   11         12         13         14         15
    11  C    0.000000
    12  C    1.647227   0.000000
    13  C    3.691967   2.159125   0.000000
    14  C    5.309121   3.861753   1.726339   0.000000
    15  C    6.403881   5.227906   3.342752   1.910772   0.000000
    16  C    5.588292   4.668299   3.196982   2.388209   1.301922
    17  H    9.642176   8.259952   6.425576   5.300086   5.652911
    18  H    8.735281   7.498980   5.743104   4.649244   4.764644
    19  H    9.003528   7.499818   5.405846   3.932900   4.096172
    20  H    6.267301   4.865005   3.253158   2.827423   4.132043
    21  H    3.748088   3.514966   3.421460   3.918651   3.829637
    22  H    2.875229   2.036680   1.983888   3.126349   4.196981
    23  H    2.005811   2.924177   4.262315   5.499395   6.007036
    24  H    1.944198   2.290426   3.887231   5.431603   6.706683
    25  H    1.477209   3.112143   5.066964   6.596052   7.465478
    26  H    0.910901   1.481481   3.601293   5.300123   6.618028
    27  H    4.496861   3.163340   1.241358   0.942715   2.118684
    28  H    7.460590   6.346410   4.510889   3.056831   1.251177
    29  H    5.707632   4.960151   3.772852   3.184963   2.081678
                   16         17         18         19         20
    16  C    0.000000
    17  H    6.606995   0.000000
    18  H    5.520458   1.645171   0.000000
    19  H    5.288735   2.339482   2.792352   0.000000
    20  H    4.669819   3.451294   3.031037   3.402218   0.000000
    21  H    2.651020   8.785845   7.668922   7.623373   6.105096
    22  H    3.604701   6.924088   5.896649   6.449406   3.733088
    23  H    4.914785  10.187827   9.090860   9.339714   7.060423
    24  H    6.056757   8.784685   7.889662   8.609643   5.457648
    25  H    6.489109  10.915558   9.897880  10.326534   7.598776
    26  H    5.948170   9.370673   8.574563   8.827759   5.939150
    27  H    2.025583   6.054139   5.240713   4.828632   3.330357
    28  H    2.039138   6.178536   5.366374   4.425116   5.212139
    29  H    1.092338   7.638445   6.583211   6.176025   5.686520
                   21         22         23         24         25
    21  H    0.000000
    22  H    3.232051   0.000000
    23  H    2.469932   3.429948   0.000000
    24  H    4.874100   2.546056   3.553686   0.000000
    25  H    4.278553   4.016336   1.896630   2.772289   0.000000
    26  H    4.409288   2.918402   2.905534   1.544261   2.151054
    27  H    3.034087   2.441135   4.565088   4.781475   5.725804
    28  H    4.492950   5.393373   6.852528   7.894202   8.443786
    29  H    2.267103   4.217340   4.722628   6.491431   6.464295
                   26         27         28         29
    26  H    0.000000
    27  H    4.589781   0.000000
    28  H    7.737278   3.295333   0.000000
    29  H    6.185580   2.719079   2.331856   0.000000
 Stoichiometry    C13H13N3
 Framework group  C1[X(C13H13N3)]
 Deg. of freedom    81
 Full point group                 C1      NOp   1
 Largest Abelian subgroup         C1      NOp   1
 Largest concise Abelian subgroup C1      NOp   1
                         Standard orientation:                         
 ---------------------------------------------------------------------
 Center     Atomic      Atomic             Coordinates (Angstroms)
 Number     Number       Type             X           Y           Z
 ---------------------------------------------------------------------
      1          7           0        4.539179   -1.460148   -0.622510
      2          7           0        4.118243   -0.370113    0.317196
      3          6           0        2.607111   -0.098582    0.365994
      4          6           0        1.753888   -0.980208   -0.106641
      5          7           0        0.448328   -0.482176   -0.874965
      6          6           0       -0.185027    0.921513   -0.854608
      7          6           0       -1.597373    1.391688   -0.228104
      8          6           0       -2.078129    0.273003   -0.625431
      9          6           0       -3.476231    0.135041   -0.643529
     10          6           0       -3.219466   -1.218966   -0.681053
     11          6           0       -4.047522   -1.038247    0.514756
     12          6           0       -2.539354   -1.059928    1.176813
     13          6           0       -0.493774   -0.374451    1.263669
     14          6           0        1.009503    0.461666    1.117687
     15          6           0        1.521864    2.116111    0.310626
     16          6           0        0.354981    2.322460   -0.228637
     17          1           0        5.506522   -1.802906   -0.537442
     18          1           0        4.429246   -1.144111   -1.591982
     19          1           0        4.897153   -0.111955    0.960066
     20          1           0        2.143436   -1.967910    0.220092
     21          1           0       -2.288584    2.221645   -0.057440
     22          1           0       -1.350524   -0.844602   -0.462816
     23          1           0       -4.327521    0.831131   -0.156292
     24          1           0       -3.246052   -2.543838   -0.418381
     25          1           0       -5.351659   -0.764874   -0.122928
     26          1           0       -3.760385   -1.833838    0.852879
     27          1           0        0.124611    0.609990    0.828416
     28          1           0        2.063164    3.240440    0.401843
     29          1           0       -0.242479    3.191278    0.056672
 ---------------------------------------------------------------------
 Rotational constants (GHZ):           1.2625716           0.3185268           0.2845495
 Standard basis: 6-31G(2df,p) (6D, 7F)
 There are   561 symmetry adapted cartesian basis functions of A   symmetry.
 There are   513 symmetry adapted basis functions of A   symmetry.
   513 basis functions,   795 primitive gaussians,   561 cartesian basis functions
    56 alpha electrons       56 beta electrons
       nuclear repulsion energy      1011.3807628693 Hartrees.
 NAtoms=   29 NActive=   29 NUniq=   29 SFac= 1.00D+00 NAtFMM=   60 NAOKFM=F Big=F
 Integral buffers will be    131072 words long.
 Raffenetti 2 integral format.
 Two-electron integral symmetry is turned on.
 One-electron integrals computed using PRISM.
 PrsmSu:  requested number of processors reduced to:  12 ShMem   1 Linda.
 NBasis=   513 RedAO= T EigKep=  2.64D-04  NBF=   513
 NBsUse=   513 1.00D-06 EigRej= -1.00D+00 NBFU=   513
 ExpMin= 1.61D-01 ExpMax= 4.17D+03 ExpMxC= 6.27D+02 IAcc=3 IRadAn=         5 AccDes= 0.00D+00
 Harris functional with IExCor=  402 and IRadAn=       5 diagonalized for initial guess.
 HarFok:  IExCor=  402 AccDes= 0.00D+00 IRadAn=         5 IDoV= 1 UseB2=F ITyADJ=14
 ICtDFT=  3500011 ScaDFX=  1.000000  1.000000  1.000000  1.000000
 FoFCou: FMM=F IPFlag=           0 FMFlag=      100000 FMFlg1=           0
         NFxFlg=           0 DoJE=T BraDBF=F KetDBF=T FulRan=T
         wScrn=  0.000000 ICntrl=       500 IOpCl=  0 I1Cent=   200000004 NGrid=           0
         NMat0=    1 NMatS0=      1 NMatT0=    0 NMatD0=    1 NMtDS0=    0 NMtDT0=    0
 Petite list used in FoFCou.
 Requested convergence on RMS density matrix=1.00D-08 within 128 cycles.
 Requested convergence on MAX density matrix=1.00D-06.
 Requested convergence on             energy=1.00D-06.
 No special actions if energy rises.
 Integral accuracy reduced to 1.0D-05 until final iterations.
 EnCoef did     8 forward-backward iterations
 EnCoef did   100 forward-backward iterations
 EnCoef did   100 forward-backward iterations
 EnCoef did     3 forward-backward iterations
 EnCoef did   100 forward-backward iterations
 Initial convergence to 1.0D-05 achieved.  Increase integral accuracy.
 SCF Done:  E(RB3LYP) =  -665.586462592     A.U. after   34 cycles
            NFock= 34  Conv=0.80D-08     -V/T= 2.0068

 **********************************************************************

            Population analysis using the SCF density.

 **********************************************************************

 Orbital symmetries:
       Occupied  (A) (A) (A) (A) (A) (A) (A) (A) (A) (A) (A) (A)
                 (A) (A) (A) (A) (A) (A) (A) (A) (A) (A) (A) (A)
                 (A) (A) (A) (A) (A) (A) (A) (A) (A) (A) (A) (A)
                 (A) (A) (A) (A) (A) (A) (A) (A) (A) (A) (A) (A)
                 (A) (A) (A) (A) (A) (A) (A) (A)
       Virtual   (A) (A) (A) (A) (A) (A) (A) (A) (A) (A) (A) (A)
                 (A) (A) (A) (A) (A) (A) (A) (A) (A) (A) (A) (A)
                 (A) (A) (A) (A) (A) (A) (A) (A) (A) (A) (A) (A)
                 (A) (A) (A) (A) (A) (A) (A) (A) (A) (A) (A) (A)
                 (A) (A) (A) (A) (A) (A) (A) (A) (A) (A) (A) (A)
                 (A) (A) (A) (A) (A) (A) (A) (A) (A) (A) (A) (A)
                 (A) (A) (A) (A) (A) (A) (A) (A) (A) (A) (A) (A)
                 (A) (A) (A) (A) (A) (A) (A) (A) (A) (A) (A) (A)
                 (A) (A) (A) (A) (A) (A) (A) (A) (A) (A) (A) (A)
                 (A) (A) (A) (A) (A) (A) (A) (A) (A) (A) (A) (A)
                 (A) (A) (A) (A) (A) (A) (A) (A) (A) (A) (A) (A)
                 (A) (A) (A) (A) (A) (A) (A) (A) (A) (A) (A) (A)
                 (A) (A) (A) (A) (A) (A) (A) (A) (A) (A) (A) (A)
                 (A) (A) (A) (A) (A) (A) (A) (A) (A) (A) (A) (A)
                 (A) (A) (A) (A) (A) (A) (A) (A) (A) (A) (A) (A)
                 (A) (A) (A) (A) (A) (A) (A) (A) (A) (A) (A) (A)
                 (A) (A) (A) (A) (A) (A) (A) (A) (A) (A) (A) (A)
                 (A) (A) (A) (A) (A) (A) (A) (A) (A) (A) (A) (A)
                 (A) (A) (A) (A) (A) (A) (A) (A) (A) (A) (A) (A)
                 (A) (A) (A) (A) (A) (A) (A) (A) (A) (A) (A) (A)
                 (A) (A) (A) (A) (A) (A) (A) (A) (A) (A) (A) (A)
                 (A) (A) (A) (A) (A) (A) (A) (A) (A) (A) (A) (A)
                 (A) (A) (A) (A) (A) (A) (A) (A) (A) (A) (A) (A)
                 (A) (A) (A) (A) (A) (A) (A) (A) (A) (A) (A) (A)
                 (A) (A) (A) (A) (A) (A) (A) (A) (A) (A) (A) (A)
                 (A) (A) (A) (A) (A) (A) (A) (A) (A) (A) (A) (A)
                 (A) (A) (A) (A) (A) (A) (A) (A) (A) (A) (A) (A)
                 (A) (A) (A) (A) (A) (A) (A) (A) (A) (A) (A) (A)
                 (A) (A) (A) (A) (A) (A) (A) (A) (A) (A) (A) (A)
                 (A) (A) (A) (A) (A) (A) (A) (A) (A) (A) (A) (A)
                 (A) (A) (A) (A) (A) (A) (A) (A) (A) (A) (A) (A)
                 (A) (A) (A) (A) (A) (A) (A) (A) (A) (A) (A) (A)
                 (A) (A) (A) (A) (A) (A) (A) (A) (A) (A) (A) (A)
                 (A) (A) (A) (A) (A) (A) (A) (A) (A) (A) (A) (A)
                 (A) (A) (A) (A) (A) (A) (A) (A) (A) (A) (A) (A)
                 (A) (A) (A) (A) (A) (A) (A) (A) (A) (A) (A) (A)
                 (A) (A) (A) (A) (A) (A) (A) (A) (A) (A) (A) (A)
                 (A) (A) (A) (A) (A) (A) (A) (A) (A) (A) (A) (A)
                 (A)
 The electronic state is 1-A.
 Alpha  occ. eigenvalues --  -14.40031 -14.36788 -14.34869 -10.25728 -10.25480
 Alpha  occ. eigenvalues --  -10.25105 -10.25063 -10.24259 -10.24115 -10.23630
 Alpha  occ. eigenvalues --  -10.23392 -10.22495 -10.21979 -10.21499 -10.18412
 Alpha  occ. eigenvalues --  -10.18275  -0.95175  -0.94726  -0.90337  -0.83288
 Alpha  occ. eigenvalues --   -0.79973  -0.78083  -0.74711  -0.74355  -0.72305
 Alpha  occ. eigenvalues --   -0.62265  -0.59842  -0.56871  -0.55600  -0.54055
 Alpha  occ. eigenvalues --   -0.53366  -0.50989  -0.48869  -0.47903  -0.47678
 Alpha  occ. eigenvalues --   -0.45316  -0.44648  -0.42411  -0.42142  -0.40627
 Alpha  occ. eigenvalues --   -0.39118  -0.36689  -0.35536  -0.34109  -0.33492
 Alpha  occ. eigenvalues --   -0.31646  -0.28808  -0.28214  -0.25540  -0.24388
 Alpha  occ. eigenvalues --   -0.22641  -0.21269  -0.18311  -0.17118  -0.15760
 Alpha  occ. eigenvalues --   -0.14546
 Alpha virt. eigenvalues --   -0.10403  -0.09386  -0.07774  -0.05659  -0.03744
 Alpha virt. eigenvalues --   -0.02246  -0.01133  -0.00286   0.01903   0.02702
 Alpha virt. eigenvalues --    0.03411   0.04852   0.05604   0.06314   0.08004
 Alpha virt. eigenvalues --    0.08938   0.11223   0.12106   0.13049   0.13541
 Alpha virt. eigenvalues --    0.15339   0.16157   0.18256   0.18736   0.19719
 Alpha virt. eigenvalues --    0.22187   0.24538   0.24872   0.26632   0.27159
 Alpha virt. eigenvalues --    0.28912   0.31332   0.32645   0.33991   0.37200
 Alpha virt. eigenvalues --    0.38738   0.41061   0.42242   0.42727   0.43526
 Alpha virt. eigenvalues --    0.44502   0.46666   0.47522   0.48091   0.48942
 Alpha virt. eigenvalues --    0.50226   0.50957   0.51988   0.53228   0.54051
 Alpha virt. eigenvalues --    0.54868   0.55087   0.55650   0.56126   0.57505
 Alpha virt. eigenvalues --    0.57777   0.58518   0.59383   0.59563   0.60693
 Alpha virt. eigenvalues --    0.60944   0.61578   0.63115   0.63542   0.63978
 Alpha virt. eigenvalues --    0.64758   0.65039   0.65672   0.66365   0.68415
 Alpha virt. eigenvalues --    0.68873   0.69058   0.70249   0.70342   0.70852
 Alpha virt. eigenvalues --    0.71998   0.72063   0.73085   0.73415   0.74065
 Alpha virt. eigenvalues --    0.75691   0.76214   0.76311   0.76857   0.77748
 Alpha virt. eigenvalues --    0.78391   0.78654   0.79255   0.79868   0.80735
 Alpha virt. eigenvalues --    0.81727   0.82363   0.84335   0.84669   0.85100
 Alpha virt. eigenvalues --    0.86721   0.87590   0.87858   0.90240   0.91085
 Alpha virt. eigenvalues --    0.91824   0.93247   0.94426   0.95676   0.97364
 Alpha virt. eigenvalues --    0.98700   0.99406   1.00497   1.01986   1.02231
 Alpha virt. eigenvalues --    1.04159   1.05743   1.07225   1.09667   1.11402
 Alpha virt. eigenvalues --    1.12116   1.13445   1.13850   1.15309   1.15776
 Alpha virt. eigenvalues --    1.17399   1.17703   1.18366   1.19517   1.21432
 Alpha virt. eigenvalues --    1.23515   1.24792   1.25499   1.26488   1.28986
 Alpha virt. eigenvalues --    1.29132   1.30533   1.31456   1.33339   1.34639
 Alpha virt. eigenvalues --    1.36255   1.36880   1.38309   1.40244   1.40292
 Alpha virt. eigenvalues --    1.41903   1.43524   1.44541   1.45612   1.47193
 Alpha virt. eigenvalues --    1.47780   1.48482   1.48955   1.50893   1.51173
 Alpha virt. eigenvalues --    1.52603   1.52807   1.54987   1.56236   1.57801
 Alpha virt. eigenvalues --    1.59154   1.59566   1.60922   1.62099   1.63033
 Alpha virt. eigenvalues --    1.63446   1.64480   1.67410   1.68034   1.69688
 Alpha virt. eigenvalues --    1.71451   1.72045   1.73076   1.74193   1.75646
 Alpha virt. eigenvalues --    1.76908   1.77776   1.78396   1.81636   1.82410
 Alpha virt. eigenvalues --    1.83093   1.87355   1.87899   1.88756   1.89930
 Alpha virt. eigenvalues --    1.91837   1.93628   1.95165   1.95872   1.98752
 Alpha virt. eigenvalues --    1.99953   2.02115   2.05379   2.06381   2.09527
 Alpha virt. eigenvalues --    2.11244   2.14887   2.16833   2.18393   2.19841
 Alpha virt. eigenvalues --    2.20764   2.21098   2.23203   2.25803   2.27122
 Alpha virt. eigenvalues --    2.28686   2.29743   2.32845   2.35386   2.37794
 Alpha virt. eigenvalues --    2.37843   2.39891   2.41426   2.43003   2.44245
 Alpha virt. eigenvalues --    2.46552   2.48146   2.49972   2.52168   2.53945
 Alpha virt. eigenvalues --    2.55160   2.56232   2.56831   2.59811   2.60365
 Alpha virt. eigenvalues --    2.62299   2.63917   2.65301   2.66742   2.68015
 Alpha virt. eigenvalues --    2.69991   2.73074   2.75108   2.75793   2.76786
 Alpha virt. eigenvalues --    2.78309   2.78992   2.79595   2.80777   2.81319
 Alpha virt. eigenvalues --    2.82847   2.85011   2.86045   2.86288   2.88195
 Alpha virt. eigenvalues --    2.88396   2.89735   2.90119   2.92440   2.93496
 Alpha virt. eigenvalues --    2.94399   2.95337   2.96516   2.97144   2.99196
 Alpha virt. eigenvalues --    2.99511   3.00157   3.01924   3.03475   3.03941
 Alpha virt. eigenvalues --    3.05813   3.06193   3.08711   3.09159   3.09736
 Alpha virt. eigenvalues --    3.12500   3.12873   3.15027   3.16943   3.17350
 Alpha virt. eigenvalues --    3.19661   3.20322   3.22429   3.23502   3.24510
 Alpha virt. eigenvalues --    3.26704   3.26995   3.29631   3.30175   3.31012
 Alpha virt. eigenvalues --    3.32496   3.33474   3.34288   3.36680   3.38189
 Alpha virt. eigenvalues --    3.38521   3.41476   3.42748   3.43745   3.44799
 Alpha virt. eigenvalues --    3.45507   3.46131   3.47364   3.48351   3.49481
 Alpha virt. eigenvalues --    3.50882   3.51396   3.54238   3.54507   3.54884
 Alpha virt. eigenvalues --    3.58851   3.60086   3.60792   3.63079   3.64471
 Alpha virt. eigenvalues --    3.64978   3.66173   3.67541   3.67948   3.70778
 Alpha virt. eigenvalues --    3.72910   3.74557   3.74788   3.76474   3.78171
 Alpha virt. eigenvalues --    3.80420   3.82407   3.82547   3.83435   3.84498
 Alpha virt. eigenvalues --    3.85716   3.86764   3.87855   3.90834   3.92819
 Alpha virt. eigenvalues --    3.94147   3.96587   3.97860   3.99960   4.02030
 Alpha virt. eigenvalues --    4.04043   4.04811   4.05294   4.06733   4.07962
 Alpha virt. eigenvalues --    4.09220   4.12282   4.13444   4.16676   4.18582
 Alpha virt. eigenvalues --    4.21056   4.22664   4.22981   4.23718   4.25079
 Alpha virt. eigenvalues --    4.27476   4.27988   4.29167   4.30334   4.31750
 Alpha virt. eigenvalues --    4.33147   4.34399   4.36075   4.37283   4.38437
 Alpha virt. eigenvalues --    4.39622   4.40617   4.41602   4.43093   4.46211
 Alpha virt. eigenvalues --    4.46265   4.48892   4.49114   4.49871   4.50350
 Alpha virt. eigenvalues --    4.52722   4.54316   4.55570   4.56209   4.57670
 Alpha virt. eigenvalues --    4.58604   4.58931   4.59804   4.61043   4.62211
 Alpha virt. eigenvalues --    4.62441   4.63235   4.66031   4.66880   4.67506
 Alpha virt. eigenvalues --    4.68185   4.69016   4.72090   4.72874   4.74009
 Alpha virt. eigenvalues --    4.74749   4.75296   4.75964   4.76824   4.77793
 Alpha virt. eigenvalues --    4.79309   4.80452   4.81200   4.83224   4.85961
 Alpha virt. eigenvalues --    4.87055   4.87904   4.89627   4.90770   4.91407
 Alpha virt. eigenvalues --    4.93674   4.93982   4.94819   4.97831   4.99973
 Alpha virt. eigenvalues --    5.02425   5.04622   5.05624   5.06291   5.07511
 Alpha virt. eigenvalues --    5.09734   5.11598   5.13087   5.14111   5.15865
 Alpha virt. eigenvalues --    5.18925   5.19734   5.21770   5.22111   5.24208
 Alpha virt. eigenvalues --    5.26608   5.27526   5.30409   5.32488   5.36782
 Alpha virt. eigenvalues --    5.37439   5.40251   5.41610   5.44223   5.49255
 Alpha virt. eigenvalues --    5.50795   5.52059   5.55939   5.58277   5.60067
 Alpha virt. eigenvalues --    5.63568   5.65615   5.75315   5.87008   5.95669
 Alpha virt. eigenvalues --    5.98592   6.14575   6.30003   7.48677  10.29983
 Alpha virt. eigenvalues --   10.35718  10.54642  10.80963  10.89722  11.11416
 Alpha virt. eigenvalues --   11.22131  11.34327  11.42810  11.56672  11.69547
 Alpha virt. eigenvalues --   11.82731  11.86713  11.94560  12.03405  12.34656
 Alpha virt. eigenvalues --   13.85385  16.87699
          Condensed to atoms (all electrons):
               1          2          3          4          5          6
     1  N    6.647094   0.234714  -0.038812  -0.005797  -0.000315   0.000004
     2  N    0.234714   6.608669   0.300681  -0.011868   0.001654  -0.000242
     3  C   -0.038812   0.300681   5.070168   0.446441  -0.034959   0.000557
     4  C   -0.005797  -0.011868   0.446441   4.927916   0.305699  -0.042813
     5  N   -0.000315   0.001654  -0.034959   0.305699   6.880189   0.439013
     6  C    0.000004  -0.000242   0.000557  -0.042813   0.439013   5.199210
     7  C    0.000000  -0.000003   0.000912   0.000889  -0.037659   0.331289
     8  C   -0.000000   0.000000  -0.000165   0.003145  -0.041155  -0.013219
     9  C   -0.000000   0.000000   0.000001   0.000024   0.001916   0.010107
    10  C    0.000000  -0.000000  -0.000001  -0.000125  -0.002835   0.000913
    11  C    0.000000  -0.000000   0.000000  -0.000007   0.000123  -0.000520
    12  C   -0.000000   0.000000  -0.000019  -0.000035  -0.001001  -0.000524
    13  C   -0.000004  -0.000022   0.003518  -0.025208  -0.025029  -0.027547
    14  C    0.000528  -0.009498   0.091169   0.031863  -0.115066  -0.095720
    15  C    0.000108  -0.007393   0.050776  -0.013034  -0.002219  -0.031507
    16  C    0.000001   0.000096   0.006986  -0.002446  -0.031390   0.351715
    17  H    0.329442  -0.023050   0.002589   0.000214  -0.000001  -0.000000
    18  H    0.332285  -0.043795   0.001477   0.003024   0.000057   0.000007
    19  H   -0.038760   0.345620  -0.029461   0.003664  -0.000028   0.000005
    20  H    0.017527  -0.018414  -0.054858   0.344162  -0.031576   0.001828
    21  H   -0.000000   0.000000  -0.000004   0.000019   0.000140  -0.018752
    22  H   -0.000000  -0.000001   0.000331  -0.002158   0.044012  -0.039456
    23  H   -0.000000   0.000000  -0.000000   0.000000  -0.000028   0.000184
    24  H   -0.000000   0.000000   0.000000   0.000018   0.000184   0.000188
    25  H    0.000000  -0.000000  -0.000000  -0.000000  -0.000000  -0.000005
    26  H   -0.000000   0.000000  -0.000000   0.000007  -0.000056   0.000001
    27  H   -0.000003  -0.000011  -0.003904   0.001274  -0.006402  -0.039901
    28  H    0.000001   0.000121  -0.001232   0.000366  -0.000000   0.003714
    29  H    0.000000  -0.000002   0.000297  -0.000090   0.001046  -0.030808
               7          8          9         10         11         12
     1  N    0.000000  -0.000000  -0.000000   0.000000   0.000000  -0.000000
     2  N   -0.000003   0.000000   0.000000  -0.000000  -0.000000   0.000000
     3  C    0.000912  -0.000165   0.000001  -0.000001   0.000000  -0.000019
     4  C    0.000889   0.003145   0.000024  -0.000125  -0.000007  -0.000035
     5  N   -0.037659  -0.041155   0.001916  -0.002835   0.000123  -0.001001
     6  C    0.331289  -0.013219   0.010107   0.000913  -0.000520  -0.000524
     7  C    5.179509   0.518154  -0.096355  -0.016074   0.001999  -0.004107
     8  C    0.518154   4.998125   0.239441  -0.088981   0.012141  -0.034358
     9  C   -0.096355   0.239441   5.762982   0.423304  -0.228286  -0.101967
    10  C   -0.016074  -0.088981   0.423304   5.317284   0.232600   0.155153
    11  C    0.001999   0.012141  -0.228286   0.232600   5.459100   0.198588
    12  C   -0.004107  -0.034358  -0.101967   0.155153   0.198588   6.061708
    13  C    0.016084  -0.056552  -0.001058   0.003148   0.002521   0.020788
    14  C   -0.004473  -0.005181   0.000254  -0.000429  -0.000135  -0.000083
    15  C   -0.005466   0.000749   0.000072   0.000008  -0.000002   0.000018
    16  C   -0.043527  -0.015165  -0.001171  -0.000307   0.000088  -0.000588
    17  H   -0.000000   0.000000   0.000000  -0.000000  -0.000000   0.000000
    18  H    0.000000   0.000000   0.000000  -0.000000  -0.000000  -0.000000
    19  H    0.000000  -0.000000  -0.000000  -0.000000   0.000000  -0.000000
    20  H    0.000033   0.000038  -0.000001   0.000000   0.000000  -0.000018
    21  H    0.349404  -0.038032  -0.001176  -0.000122   0.000318   0.001271
    22  H   -0.020995   0.339730  -0.054838  -0.036654   0.009060  -0.016545
    23  H   -0.003838  -0.021368   0.354749  -0.021677  -0.025041  -0.005711
    24  H    0.000061  -0.008098   0.016183   0.310204  -0.050362  -0.040571
    25  H   -0.000437   0.004165  -0.047900  -0.058772   0.257028   0.007020
    26  H    0.000034  -0.000326   0.049185  -0.082481   0.278414  -0.060805
    27  H    0.021201  -0.004537  -0.000176   0.000561  -0.000076   0.007223
    28  H   -0.000327  -0.000045  -0.000001  -0.000000   0.000000   0.000000
    29  H   -0.009285   0.001029  -0.000079   0.000001   0.000002  -0.000021
              13         14         15         16         17         18
     1  N   -0.000004   0.000528   0.000108   0.000001   0.329442   0.332285
     2  N   -0.000022  -0.009498  -0.007393   0.000096  -0.023050  -0.043795
     3  C    0.003518   0.091169   0.050776   0.006986   0.002589   0.001477
     4  C   -0.025208   0.031863  -0.013034  -0.002446   0.000214   0.003024
     5  N   -0.025029  -0.115066  -0.002219  -0.031390  -0.000001   0.000057
     6  C   -0.027547  -0.095720  -0.031507   0.351715  -0.000000   0.000007
     7  C    0.016084  -0.004473  -0.005466  -0.043527  -0.000000   0.000000
     8  C   -0.056552  -0.005181   0.000749  -0.015165   0.000000   0.000000
     9  C   -0.001058   0.000254   0.000072  -0.001171   0.000000   0.000000
    10  C    0.003148  -0.000429   0.000008  -0.000307  -0.000000  -0.000000
    11  C    0.002521  -0.000135  -0.000002   0.000088  -0.000000  -0.000000
    12  C    0.020788  -0.000083   0.000018  -0.000588   0.000000  -0.000000
    13  C    6.093800   0.101948  -0.003162  -0.005589   0.000000   0.000005
    14  C    0.101948   5.860442   0.240606  -0.061695  -0.000012  -0.000005
    15  C   -0.003162   0.240606   5.256516   0.480362   0.000001   0.000107
    16  C   -0.005589  -0.061695   0.480362   5.088621  -0.000000  -0.000003
    17  H    0.000000  -0.000012   0.000001  -0.000000   0.469918  -0.033849
    18  H    0.000005  -0.000005   0.000107  -0.000003  -0.033849   0.475614
    19  H    0.000012  -0.000038   0.000370   0.000004  -0.003940   0.003266
    20  H    0.003315   0.009068   0.000528   0.000050  -0.000634  -0.000268
    21  H   -0.000206   0.001276   0.000939  -0.006463   0.000000   0.000000
    22  H   -0.001221   0.006772  -0.000278   0.006756   0.000000   0.000000
    23  H    0.000185  -0.000002   0.000002  -0.000066   0.000000  -0.000000
    24  H   -0.000102   0.000023   0.000000  -0.000002   0.000000   0.000000
    25  H   -0.000072  -0.000000  -0.000000  -0.000000  -0.000000  -0.000000
    26  H    0.000790   0.000029   0.000000  -0.000008   0.000000   0.000000
    27  H    0.055572   0.235875  -0.030144  -0.026134  -0.000000  -0.000003
    28  H   -0.000161  -0.014610   0.279838  -0.027696  -0.000000  -0.000002
    29  H    0.000305   0.006730  -0.049274   0.374494   0.000000   0.000000
              19         20         21         22         23         24
     1  N   -0.038760   0.017527  -0.000000  -0.000000  -0.000000  -0.000000
     2  N    0.345620  -0.018414   0.000000  -0.000001   0.000000   0.000000
     3  C   -0.029461  -0.054858  -0.000004   0.000331  -0.000000   0.000000
     4  C    0.003664   0.344162   0.000019  -0.002158   0.000000   0.000018
     5  N   -0.000028  -0.031576   0.000140   0.044012  -0.000028   0.000184
     6  C    0.000005   0.001828  -0.018752  -0.039456   0.000184   0.000188
     7  C    0.000000   0.000033   0.349404  -0.020995  -0.003838   0.000061
     8  C   -0.000000   0.000038  -0.038032   0.339730  -0.021368  -0.008098
     9  C   -0.000000  -0.000001  -0.001176  -0.054838   0.354749   0.016183
    10  C   -0.000000   0.000000  -0.000122  -0.036654  -0.021677   0.310204
    11  C    0.000000   0.000000   0.000318   0.009060  -0.025041  -0.050362
    12  C   -0.000000  -0.000018   0.001271  -0.016545  -0.005711  -0.040571
    13  C    0.000012   0.003315  -0.000206  -0.001221   0.000185  -0.000102
    14  C   -0.000038   0.009068   0.001276   0.006772  -0.000002   0.000023
    15  C    0.000370   0.000528   0.000939  -0.000278   0.000002   0.000000
    16  C    0.000004   0.000050  -0.006463   0.006756  -0.000066  -0.000002
    17  H   -0.003940  -0.000634   0.000000   0.000000   0.000000   0.000000
    18  H    0.003266  -0.000268   0.000000   0.000000  -0.000000   0.000000
    19  H    0.446245   0.000135  -0.000000   0.000000  -0.000000   0.000000
    20  H    0.000135   0.564438   0.000000  -0.000241  -0.000000   0.000000
    21  H   -0.000000   0.000000   0.570782   0.003344   0.003225  -0.000007
    22  H    0.000000  -0.000241   0.003344   0.531163   0.000727  -0.003817
    23  H   -0.000000  -0.000000   0.003225   0.000727   0.507816   0.000509
    24  H    0.000000   0.000000  -0.000007  -0.003817   0.000509   0.591919
    25  H    0.000000   0.000000  -0.000320  -0.000190  -0.001444  -0.006381
    26  H   -0.000000  -0.000001   0.000025  -0.001029   0.003823   0.000117
    27  H   -0.000005  -0.000498  -0.001092  -0.005679   0.000006  -0.000021
    28  H   -0.000014   0.000000   0.000007   0.000008  -0.000000  -0.000000
    29  H    0.000000   0.000002  -0.000515  -0.000033   0.000002  -0.000000
              25         26         27         28         29
     1  N    0.000000  -0.000000  -0.000003   0.000001   0.000000
     2  N   -0.000000   0.000000  -0.000011   0.000121  -0.000002
     3  C   -0.000000  -0.000000  -0.003904  -0.001232   0.000297
     4  C   -0.000000   0.000007   0.001274   0.000366  -0.000090
     5  N   -0.000000  -0.000056  -0.006402  -0.000000   0.001046
     6  C   -0.000005   0.000001  -0.039901   0.003714  -0.030808
     7  C   -0.000437   0.000034   0.021201  -0.000327  -0.009285
     8  C    0.004165  -0.000326  -0.004537  -0.000045   0.001029
     9  C   -0.047900   0.049185  -0.000176  -0.000001  -0.000079
    10  C   -0.058772  -0.082481   0.000561  -0.000000   0.000001
    11  C    0.257028   0.278414  -0.000076   0.000000   0.000002
    12  C    0.007020  -0.060805   0.007223   0.000000  -0.000021
    13  C   -0.000072   0.000790   0.055572  -0.000161   0.000305
    14  C   -0.000000   0.000029   0.235875  -0.014610   0.006730
    15  C   -0.000000   0.000000  -0.030144   0.279838  -0.049274
    16  C   -0.000000  -0.000008  -0.026134  -0.027696   0.374494
    17  H   -0.000000   0.000000  -0.000000  -0.000000   0.000000
    18  H   -0.000000   0.000000  -0.000003  -0.000002   0.000000
    19  H    0.000000  -0.000000  -0.000005  -0.000014   0.000000
    20  H    0.000000  -0.000001  -0.000498   0.000000   0.000002
    21  H   -0.000320   0.000025  -0.001092   0.000007  -0.000515
    22  H   -0.000190  -0.001029  -0.005679   0.000008  -0.000033
    23  H   -0.001444   0.003823   0.000006  -0.000000   0.000002
    24  H   -0.006381   0.000117  -0.000021  -0.000000  -0.000000
    25  H    0.860147  -0.023002   0.000003  -0.000000  -0.000000
    26  H   -0.023002   0.721515  -0.000035  -0.000000   0.000000
    27  H    0.000003  -0.000035   0.460822   0.001327  -0.003525
    28  H   -0.000000  -0.000000   0.001327   0.661881  -0.002935
    29  H   -0.000000   0.000000  -0.003525  -0.002935   0.583913
 Mulliken charges:
               1
     1  N   -0.478014
     2  N   -0.377257
     3  C    0.187514
     4  C    0.034854
     5  N   -0.344314
     6  C    0.002277
     7  C   -0.177025
     8  C    0.210466
     9  C   -0.325213
    10  C   -0.134718
    11  C   -0.147555
    12  C   -0.185417
    13  C   -0.156060
    14  C   -0.279634
    15  C   -0.168522
    16  C   -0.086923
    17  H    0.259322
    18  H    0.262085
    19  H    0.272924
    20  H    0.165383
    21  H    0.135938
    22  H    0.241232
    23  H    0.207949
    24  H    0.189955
    25  H    0.010160
    26  H    0.113803
    27  H    0.338283
    28  H    0.099760
    29  H    0.128748
 Sum of Mulliken charges =  -0.00000
 Mulliken charges with hydrogens summed into heavy atoms:
               1
     1  N    0.043393
     2  N   -0.104333
     3  C    0.187514
     4  C    0.200237
     5  N   -0.344314
     6  C    0.002277
     7  C   -0.041087
     8  C    0.451698
     9  C   -0.117264
    10  C    0.055237
    11  C   -0.023591
    12  C   -0.185417
    13  C   -0.156060
    14  C    0.058649
    15  C   -0.068762
    16  C    0.041825
 Electronic spatial extent (au):  <R**2>=           3927.9163
 Charge=             -0.0000 electrons
 Dipole moment (field-independent basis, Debye):
    X=              3.3941    Y=              0.9579    Z=             -0.7709  Tot=              3.6099
 Quadrupole moment (field-independent basis, Debye-Ang):
   XX=            -62.4837   YY=            -86.6992   ZZ=           -105.7438
   XY=             -8.4528   XZ=              1.3558   YZ=              1.7407
 Traceless Quadrupole moment (field-independent basis, Debye-Ang):
   XX=             22.4919   YY=             -1.7236   ZZ=            -20.7683
   XY=             -8.4528   XZ=              1.3558   YZ=              1.7407
 Octapole moment (field-independent basis, Debye-Ang**2):
  XXX=            212.0563  YYY=             11.8502  ZZZ=            -17.0879  XYY=             -0.8139
  XXY=            -22.4332  XXZ=            -13.8842  XZZ=             35.0217  YZZ=             -4.5689
  YYZ=              1.5992  XYZ=              2.5181
 Hexadecapole moment (field-independent basis, Debye-Ang**3):
 XXXX=          -3102.4728 YYYY=           -838.9402 ZZZZ=           -425.6375 XXXY=           -307.3263
 XXXZ=             35.5996 YYYX=            -16.5441 YYYZ=             15.3656 ZZZX=            -21.5346
 ZZZY=             10.1736 XXYY=           -749.4794 XXZZ=           -735.5774 YYZZ=           -241.7389
 XXYZ=             41.9001 YYXZ=             -8.9552 ZZXY=            -34.9869
 N-N= 1.011380762869D+03 E-N=-3.568901928490D+03  KE= 6.610586496672D+02
 PrsmSu:  requested number of processors reduced to:  13 ShMem   1 Linda.
 Calling FoFJK, ICntrl=      2127 FMM=F ISym2X=0 I1Cent= 0 IOpClX= 0 NMat=1 NMatS=1 NMatT=0.
 ***** Axes restored to original set *****
 -------------------------------------------------------------------
 Center     Atomic                   Forces (Hartrees/Bohr)
 Number     Number              X              Y              Z
 -------------------------------------------------------------------
      1        7           0.007798115    0.014618097   -0.010512384
      2        7          -0.003414617    0.027383854   -0.024924653
      3        6           0.002408486   -0.092884248    0.036147583
      4        6          -0.013899470    0.007564595   -0.069528327
      5        7           0.016850544    0.003155370   -0.027335950
      6        6           0.080120907   -0.063809437   -0.004836898
      7        6          -0.052789205   -0.068223245    0.015025916
      8        6          -0.042111471    0.067133413    0.000944519
      9        6           0.009001130   -0.066132688   -0.061332665
     10        6          -0.062930464    0.150016011    0.093277948
     11        6           0.079269985   -0.000744985   -0.148906132
     12        6           0.010253134    0.023952336   -0.021263050
     13        6           0.026357272   -0.029450315    0.067641836
     14        6           0.063795974   -0.088328565    0.224053063
     15        6           0.056026853   -0.034297827    0.044378888
     16        6          -0.090966111    0.010984830   -0.024965994
     17        1           0.021893036    0.005156143   -0.004110716
     18        1           0.010936552   -0.000130905    0.004101891
     19        1           0.001318124    0.022239895   -0.026062742
     20        1          -0.019757658    0.022869172   -0.031355735
     21        1           0.005128416   -0.026497575    0.008808521
     22        1           0.030012652   -0.029029131   -0.074882296
     23        1          -0.055035970   -0.034682220    0.006874624
     24        1           0.005148747   -0.061950953   -0.078365918
     25        1           0.021181250   -0.006510456    0.070118408
     26        1          -0.078167061    0.140579606    0.170733545
     27        1           0.020868288    0.074088187   -0.163923520
     28        1          -0.031191707    0.044164903    0.047588849
     29        1          -0.018105730   -0.011233863   -0.017388612
 -------------------------------------------------------------------
 Cartesian Forces:  Max     0.224053063 RMS     0.061037225

 GradGradGradGradGradGradGradGradGradGradGradGradGradGradGradGradGradGrad
 Berny optimization.
 FormGI is forming the generalized inverse of G from B-inverse, IUseBI=4.
 Internal  Forces:  Max     0.222169894 RMS     0.056040995
 Search for a local minimum.
 Step number   1 out of a maximum of  154
 All quantities printed in internal units (Hartrees-Bohrs-Radians)
 Mixed Optimization -- RFO/linear search
 Second derivative matrix not updated -- first step.
 ITU=  0
     Eigenvalues ---    0.00230   0.00230   0.00230   0.00230   0.00395
     Eigenvalues ---    0.00497   0.00841   0.00991   0.01258   0.01403
     Eigenvalues ---    0.01814   0.02022   0.02029   0.02070   0.02196
     Eigenvalues ---    0.03083   0.03107   0.03245   0.03382   0.03386
     Eigenvalues ---    0.03666   0.04186   0.04283   0.04504   0.05091
     Eigenvalues ---    0.06773   0.06827   0.08674   0.10571   0.10827
     Eigenvalues ---    0.11944   0.11957   0.12735   0.12769   0.13572
     Eigenvalues ---    0.14866   0.15319   0.15405   0.15555   0.15726
     Eigenvalues ---    0.15946   0.16000   0.16000   0.16000   0.16127
     Eigenvalues ---    0.16265   0.16531   0.16582   0.18187   0.18666
     Eigenvalues ---    0.19424   0.20668   0.20795   0.21277   0.21459
     Eigenvalues ---    0.21735   0.22030   0.22037   0.22096   0.22269
     Eigenvalues ---    0.22367   0.22786   0.23136   0.24465   0.27962
     Eigenvalues ---    0.28866   0.31737   0.32433   0.32507   0.34412
     Eigenvalues ---    0.34544   0.40946   0.42812   0.43458   0.44800
     Eigenvalues ---    0.45607   0.49807   0.59943   0.66662   0.67531
     Eigenvalues ---    0.72820
 RFO step:  Lambda=-5.53145452D-01 EMin= 2.30000000D-03
 Linear search not attempted -- first point.
 Maximum step size (   0.300) exceeded in Quadratic search.
    -- Step size scaled by   0.400
 Iteration  1 RMS(Cart)=  0.14458491 RMS(Int)=  0.00428452
 Iteration  2 RMS(Cart)=  0.00708474 RMS(Int)=  0.00039179
 Iteration  3 RMS(Cart)=  0.00002526 RMS(Int)=  0.00039086
 Iteration  4 RMS(Cart)=  0.00000002 RMS(Int)=  0.00039086
 Variable       Old X    -DE/DX   Delta X   Delta X   Delta X     New X
                                 (Linear)    (Quad)   (Total)
    R1        2.83359  -0.04265   0.00000  -0.01946  -0.01946   2.81413
    R2        1.94602  -0.01369   0.00000  -0.00559  -0.00559   1.94044
    R3        1.93809  -0.00757   0.00000  -0.00307  -0.00307   1.93502
    R4        2.90283  -0.10012   0.00000  -0.04762  -0.04762   2.85521
    R5        1.96988  -0.02974   0.00000  -0.01237  -0.01237   1.95751
    R6        2.48457   0.07976   0.00000   0.02776   0.02780   2.51237
    R7        3.50047  -0.02533   0.00000  -0.01228  -0.01211   3.48836
    R8        3.01341  -0.04827   0.00000  -0.02735  -0.02769   2.98572
    R9        2.09926  -0.00926   0.00000  -0.00422  -0.00422   2.09504
   R10        2.91036  -0.08530   0.00000  -0.04480  -0.04518   2.86518
   R11        3.05195  -0.01463   0.00000  -0.00750  -0.00750   3.04445
   R12        3.07399  -0.07240   0.00000  -0.03748  -0.03748   3.03651
   R13        3.28698   0.08140   0.00000   0.05478   0.05505   3.34202
   R14        2.42036   0.18079   0.00000   0.05649   0.05649   2.47686
   R15        2.06640  -0.00610   0.00000  -0.00272  -0.00272   2.06368
   R16        2.65508   0.09713   0.00000   0.03885   0.03885   2.69393
   R17        2.53878  -0.07814   0.00000  -0.04351  -0.04351   2.49526
   R18        2.60527   0.07986   0.00000   0.03137   0.03150   2.63677
   R19        3.29734   0.14345   0.00000   0.07878   0.07917   3.37651
   R20        2.27289  -0.06186   0.00000  -0.03105  -0.03105   2.24184
   R21        2.76978   0.03357   0.00000   0.01542   0.01482   2.78460
   R22        2.55287  -0.08375   0.00000  -0.04684  -0.04684   2.50603
   R23        3.11281  -0.03017   0.00000  -0.01587  -0.01587   3.09694
   R24        2.79152  -0.06509   0.00000  -0.03875  -0.03875   2.75277
   R25        1.72135   0.22217   0.00000   0.07241   0.07241   1.79376
   R26        3.26231  -0.01051   0.00000  -0.01237  -0.01341   3.24889
   R27        2.34583  -0.01066   0.00000  -0.00011   0.00124   2.34707
   R28        1.78147   0.17852   0.00000   0.06676   0.06716   1.84864
   R29        2.46028   0.07522   0.00000   0.02469   0.02469   2.48497
   R30        2.36438  -0.05926   0.00000  -0.03098  -0.03098   2.33341
   R31        2.06422  -0.00781   0.00000  -0.00348  -0.00348   2.06074
    A1        2.04192  -0.02853   0.00000  -0.01631  -0.01635   2.02557
    A2        1.91591  -0.00861   0.00000  -0.00516  -0.00520   1.91070
    A3        1.85599   0.01279   0.00000   0.00665   0.00657   1.86256
    A4        2.00928  -0.00132   0.00000  -0.00072  -0.00072   2.00856
    A5        1.93559   0.01665   0.00000   0.00931   0.00930   1.94490
    A6        2.30730  -0.01655   0.00000  -0.00944  -0.00944   2.29786
    A7        2.10418   0.00663   0.00000   0.00063   0.00024   2.10441
    A8        2.72580  -0.06010   0.00000  -0.03169  -0.03167   2.69413
    A9        1.35819   0.04498   0.00000   0.02674   0.02728   1.38547
   A10        2.08873   0.01253   0.00000   0.00830   0.00872   2.09745
   A11        1.83683   0.03723   0.00000   0.02048   0.02021   1.85704
   A12        2.35533  -0.04785   0.00000  -0.02757  -0.02789   2.32744
   A13        2.23316  -0.00020   0.00000  -0.00914  -0.00952   2.22364
   A14        2.25248  -0.00321   0.00000  -0.00244  -0.00279   2.24970
   A15        2.28302  -0.05847   0.00000  -0.03437  -0.03421   2.24881
   A16        1.34523   0.04988   0.00000   0.02980   0.02943   1.37466
   A17        1.46088   0.06021   0.00000   0.03674   0.03695   1.49783
   A18        1.40247   0.01869   0.00000   0.01437   0.01571   1.41818
   A19        1.28992  -0.10192   0.00000  -0.06269  -0.06291   1.22702
   A20        1.52441   0.14989   0.00000   0.07820   0.07847   1.60289
   A21        2.55765  -0.07702   0.00000  -0.04166  -0.04172   2.51593
   A22        2.06471  -0.07453   0.00000  -0.03707  -0.03668   2.02803
   A23        2.05248  -0.00258   0.00000  -0.00100  -0.00103   2.05145
   A24        2.07802  -0.00848   0.00000  -0.00450  -0.00455   2.07347
   A25        2.04744   0.02006   0.00000   0.01168   0.01166   2.05910
   A26        1.48214   0.14350   0.00000   0.07668   0.07653   1.55867
   A27        1.96414   0.12942   0.00000   0.06751   0.06782   2.03196
   A28        2.26823  -0.04867   0.00000  -0.02696  -0.02713   2.24110
   A29        2.36206  -0.05867   0.00000  -0.02870  -0.02855   2.33351
   A30        1.45907  -0.02465   0.00000  -0.00941  -0.00918   1.44990
   A31        2.83787   0.07080   0.00000   0.04159   0.04166   2.87953
   A32        1.52195   0.03366   0.00000   0.01706   0.01693   1.53887
   A33        1.54668   0.00193   0.00000   0.00097   0.00105   1.54773
   A34        1.44855   0.02078   0.00000   0.01321   0.01303   1.46158
   A35        2.38985   0.04344   0.00000   0.02312   0.02297   2.41282
   A36        1.37865   0.02663   0.00000   0.01481   0.01465   1.39329
   A37        1.74101   0.00407   0.00000   0.00425   0.00437   1.74537
   A38        1.58786   0.05408   0.00000   0.03289   0.03274   1.62061
   A39        1.10482   0.02080   0.00000   0.01136   0.01127   1.11609
   A40        2.21450  -0.02814   0.00000  -0.01540  -0.01583   2.19867
   A41        2.26381   0.00645   0.00000   0.00013   0.00154   2.26535
   A42        2.39298  -0.11549   0.00000  -0.05939  -0.05860   2.33438
   A43        1.84994   0.08856   0.00000   0.04972   0.04972   1.89966
   A44        1.89698  -0.06370   0.00000  -0.03362  -0.03382   1.86316
   A45        2.21923   0.01668   0.00000   0.00740   0.00722   2.22645
   A46        2.10377   0.02997   0.00000   0.01454   0.01432   2.11809
   A47        1.97427   0.12275   0.00000   0.05945   0.05954   2.03382
   A48        2.08539   0.02084   0.00000   0.00741   0.00742   2.09280
   A49        2.99522   0.02271   0.00000   0.01417   0.01408   3.00931
   A50        3.24263   0.02075   0.00000   0.01391   0.01395   3.25658
    D1       -2.92314   0.00011   0.00000   0.00009   0.00013  -2.92302
    D2       -0.01350  -0.00690   0.00000  -0.00447  -0.00445  -0.01796
    D3        1.24398   0.01080   0.00000   0.00728   0.00726   1.25125
    D4       -2.12956   0.00379   0.00000   0.00272   0.00268  -2.12688
    D5        0.29288  -0.01006   0.00000  -0.00667  -0.00668   0.28619
    D6        2.68290   0.00366   0.00000   0.00169   0.00173   2.68463
    D7       -2.55461  -0.00754   0.00000  -0.00449  -0.00452  -2.55914
    D8       -0.16459   0.00618   0.00000   0.00387   0.00389  -0.16070
    D9       -2.48717   0.02364   0.00000   0.01586   0.01573  -2.47144
   D10        0.71660  -0.00012   0.00000   0.00057   0.00029   0.71689
   D11        0.94044   0.05649   0.00000   0.03264   0.03215   0.97260
   D12       -2.13897   0.03274   0.00000   0.01734   0.01672  -2.12225
   D13       -2.22575   0.01068   0.00000   0.00772   0.00698  -2.21877
   D14        2.97826   0.01271   0.00000   0.00653   0.00705   2.98531
   D15        0.27048   0.03199   0.00000   0.01907   0.01794   0.28842
   D16       -0.80869   0.03402   0.00000   0.01789   0.01800  -0.79069
   D17       -0.30496  -0.00296   0.00000  -0.00227  -0.00237  -0.30733
   D18        2.75181   0.03440   0.00000   0.02143   0.02076   2.77257
   D19       -1.96026  -0.06534   0.00000  -0.04341  -0.04340  -2.00366
   D20        0.15034  -0.03700   0.00000  -0.02493  -0.02515   0.12519
   D21       -0.80925   0.01273   0.00000   0.00812   0.00869  -0.80056
   D22       -0.65195   0.02484   0.00000   0.01548   0.01546  -0.63648
   D23       -3.13449   0.00263   0.00000   0.00193   0.00217  -3.13232
   D24       -3.08170   0.04801   0.00000   0.02803   0.02768  -3.05402
   D25        0.71894   0.02580   0.00000   0.01449   0.01439   0.73333
   D26       -1.77819  -0.06566   0.00000  -0.04203  -0.04205  -1.82024
   D27        2.02244  -0.08787   0.00000  -0.05558  -0.05534   1.96711
   D28        0.00885  -0.06624   0.00000  -0.04545  -0.04526  -0.03641
   D29       -2.75442  -0.02098   0.00000  -0.01366  -0.01353  -2.76795
   D30        2.41604  -0.04727   0.00000  -0.03358  -0.03428   2.38176
   D31       -0.34723  -0.00200   0.00000  -0.00179  -0.00256  -0.34979
   D32        0.98933  -0.05727   0.00000  -0.04282  -0.04221   0.94712
   D33       -1.77394  -0.01201   0.00000  -0.01103  -0.01049  -1.78443
   D34       -1.07622   0.01619   0.00000   0.01006   0.00987  -1.06635
   D35        1.05932   0.00047   0.00000   0.00304   0.00283   1.06214
   D36        1.26264  -0.01929   0.00000  -0.01327  -0.01275   1.24989
   D37       -2.88501  -0.03501   0.00000  -0.02029  -0.01979  -2.90480
   D38        2.76661   0.05423   0.00000   0.03084   0.03080   2.79741
   D39       -1.38104   0.03851   0.00000   0.02382   0.02376  -1.35729
   D40       -2.89325   0.01604   0.00000   0.00927   0.00900  -2.88425
   D41        0.73740  -0.00908   0.00000  -0.00738  -0.00758   0.72981
   D42       -0.14517  -0.00378   0.00000  -0.00136  -0.00115  -0.14631
   D43       -2.79770  -0.02890   0.00000  -0.01800  -0.01773  -2.81544
   D44       -2.81960  -0.01738   0.00000  -0.01140  -0.01231  -2.83191
   D45       -1.98138  -0.02665   0.00000  -0.01606  -0.01500  -1.99637
   D46       -0.21919   0.03049   0.00000   0.01776   0.01754  -0.20165
   D47       -0.15843  -0.00063   0.00000   0.00045  -0.00041  -0.15884
   D48        0.67979  -0.00991   0.00000  -0.00420  -0.00309   0.67670
   D49        2.44198   0.04724   0.00000   0.02962   0.02944   2.47142
   D50        2.29723   0.04623   0.00000   0.02762   0.02771   2.32494
   D51       -0.24790  -0.02047   0.00000  -0.00970  -0.00967  -0.25757
   D52        0.19581  -0.02592   0.00000  -0.01505  -0.01472   0.18109
   D53       -3.04682  -0.04668   0.00000  -0.02896  -0.02867  -3.07550
   D54       -0.62188  -0.02110   0.00000  -0.01293  -0.01251  -0.63439
   D55       -2.08674   0.01172   0.00000   0.00476   0.00459  -2.08215
   D56        0.95381  -0.00903   0.00000  -0.00915  -0.00936   0.94445
   D57       -2.90443   0.01654   0.00000   0.00688   0.00680  -2.89763
   D58        1.48669   0.00360   0.00000   0.00203   0.00198   1.48867
   D59       -1.83423   0.00718   0.00000   0.00366   0.00342  -1.83081
   D60        0.39514  -0.00860   0.00000  -0.00391  -0.00410   0.39104
   D61       -0.40075   0.03163   0.00000   0.01645   0.01599  -0.38476
   D62        2.79774   0.04043   0.00000   0.02791   0.02793   2.82568
   D63       -0.69268  -0.00282   0.00000  -0.00226  -0.00229  -0.69497
         Item               Value     Threshold  Converged?
 Maximum Force            0.222170     0.000450     NO 
 RMS     Force            0.056041     0.000300     NO 
 Maximum Displacement     0.545615     0.001800     NO 
 RMS     Displacement     0.148599     0.001200     NO 
 Predicted change in Energy=-2.086531D-01
 GradGradGradGradGradGradGradGradGradGradGradGradGradGradGradGradGradGrad

                          Input orientation:                          
 ---------------------------------------------------------------------
 Center     Atomic      Atomic             Coordinates (Angstroms)
 Number     Number       Type             X           Y           Z
 ---------------------------------------------------------------------
      1          7           0        1.185272   -0.062814   -0.058444
      2          7           0        2.664374    0.038226   -0.198746
      3          6           0        3.146779    1.130078   -1.125025
      4          6           0        2.332015    2.114430   -1.492116
      5          7           0        2.379216    2.675610   -2.968318
      6          6           0        3.490686    2.501427   -3.984741
      7          6           0        4.452200    3.619255   -4.633926
      8          6           0        3.480596    4.498481   -4.663404
      9          6           0        3.669043    5.662441   -5.464604
     10          6           0        2.636260    6.289386   -4.766603
     11          6           0        3.765821    7.219797   -4.594066
     12          6           0        3.861733    6.384227   -3.187514
     13          6           0        4.172291    4.050727   -2.043730
     14          6           0        4.367359    2.369210   -1.743332
     15          6           0        4.793358    1.021898   -2.702871
     16          6           0        4.810935    1.590585   -3.888400
     17          1           0        0.844307   -0.655493    0.707627
     18          1           0        0.785312   -0.439381   -0.922586
     19          1           0        3.152289   -0.509836    0.532412
     20          1           0        1.759043    2.400448   -0.587131
     21          1           0        5.271030    3.781818   -5.337963
     22          1           0        2.670146    4.586040   -3.624627
     23          1           0        4.666014    6.051007   -5.976905
     24          1           0        1.882711    7.145877   -4.090426
     25          1           0        3.836813    7.783095   -5.935574
     26          1           0        3.371354    7.632971   -3.835976
     27          1           0        4.411112    2.936954   -2.538780
     28          1           0        5.561662    0.055305   -2.712800
     29          1           0        5.738881    1.703337   -4.449993
 ---------------------------------------------------------------------
                    Distance matrix (angstroms):
                    1          2          3          4          5
     1  N    0.000000
     2  N    1.489172   0.000000
     3  C    2.531422   1.510910   0.000000
     4  C    2.847952   2.468581   1.329490   0.000000
     5  N    4.170353   3.835054   2.524986   1.579976   0.000000
     6  C    5.225522   4.591722   3.190117   2.775872   1.516186
     7  C    6.720527   5.974187   4.495832   4.078069   2.821697
     8  C    6.876015   6.363432   4.896703   4.130375   2.721986
     9  C    8.256769   7.769840   6.296588   5.491510   4.100762
    10  C    8.038817   7.742294   6.335628   5.314611   4.044660
    11  C    8.959215   8.491583   7.035775   6.143506   5.021490
    12  C    7.649763   7.116048   5.689561   4.842063   3.999968
    13  C    5.457551   4.666685   3.228914   2.727661   2.441500
    14  C    4.345027   3.274048   1.845960   2.066554   2.355246
    15  C    4.603028   3.430864   2.283095   2.952585   2.938248
    16  C    5.526999   4.542146   3.258484   3.487353   2.817283
    17  H    1.026835   2.148348   3.442129   3.837267   5.192761
    18  H    1.023968   2.069523   2.842659   3.039508   4.053236
    19  H    2.101926   1.035869   2.331619   3.414430   4.795813
    20  H    2.583870   2.559406   1.956779   1.108648   2.475961
    21  H    7.703761   6.871731   5.412302   5.119427   3.898910
    22  H    6.044366   5.693795   4.291720   3.281888   2.040863
    23  H    9.193615   8.575968   7.075617   6.407614   5.066985
    24  H    8.289061   8.140938   6.825050   5.680541   4.635615
    25  H   10.155275   9.709212   8.238942   7.358158   6.084044
    26  H    8.847249   8.450409   7.048922   6.085080   5.129580
    27  H    5.055365   4.114544   2.619550   2.468743   2.093180
    28  H    5.119799   3.836019   3.083477   4.020036   4.130285
    29  H    6.568131   5.504388   4.254766   4.530427   3.798423
                    6          7          8          9         10
     6  C    0.000000
     7  C    1.611052   0.000000
     8  C    2.109244   1.310696   0.000000
     9  C    3.494826   2.340506   1.425565   0.000000
    10  C    3.961059   3.231848   1.982648   1.395316   0.000000
    11  C    4.765500   3.665598   2.737101   1.786774   1.473547
    12  C    3.981128   3.175819   2.424779   2.396506   2.001075
    13  C    2.575352   2.640763   2.746200   3.814873   3.845129
    14  C    2.410384   3.150451   3.721150   5.018055   5.244487
    15  C    2.351415   3.254478   4.201626   5.515967   6.054626
    16  C    1.606852   2.190891   3.290334   4.513131   5.251589
    17  H    6.244020   7.734504   7.896926   9.273179   9.022729
    18  H    5.034302   6.610041   6.755794   8.134990   7.967357
    19  H    5.439384   6.740193   7.224093   8.621383   8.635697
    20  H    3.814779   5.011500   4.897089   6.170773   5.775927
    21  H    2.576865   1.092052   2.043109   2.473690   3.681897
    22  H    2.269048   2.264746   1.320436   2.354135   2.051011
    23  H    4.236700   2.786167   2.353899   1.186333   2.375196
    24  H    4.916062   4.397128   3.144876   2.698135   1.326133
    25  H    5.641061   4.405741   3.540339   2.178792   2.244769
    26  H    5.135086   4.232596   3.243701   2.573720   1.792107
    27  H    1.768523   2.203828   2.796114   4.066865   4.399102
    28  H    3.448230   4.198020   5.279916   6.526439   7.186088
    29  H    2.430594   2.315193   3.599753   4.581284   5.546020
                   11         12         13         14         15
    11  C    0.000000
    12  C    1.638830   0.000000
    13  C    4.088084   2.617233   0.000000
    14  C    5.658332   4.296706   1.719241   0.000000
    15  C    6.560976   5.464190   3.161328   1.708051   0.000000
    16  C    5.768731   4.936723   3.140537   2.324722   1.314987
    17  H    9.932944   8.592709   6.387014   5.250516   5.480888
[...]
 00342,0.00000887,-0.00000390,0.00000298,0.00000610,0.00000593,-0.00000
 758,-0.00001151,0.00011252,0.00005286,0.00006257,0.00035325,-0.0004191
 9,0.00017630,0.00718602,0.00249379,0.00353941,0.11936181,0.00000646,0.
 00000116,-0.00000131,0.00002578,-0.00008043,0.00000282,-0.00009940,-0.
 00002960,0.00000303,0.00005821,-0.00006245,-0.00016147,0.00000674,-0.0
 0019871,0.00033197,0.00016623,0.00019878,-0.00031592,-0.00348391,0.000
 30843,0.00055655,-0.01075144,0.00810885,0.01801594,0.04205797,-0.07071
 186,-0.05159378,0.01396228,-0.00858137,-0.02173145,0.00013689,0.000266
 98,-0.00101429,0.00148648,0.00169120,-0.00162290,-0.00000232,0.0000020
 2,-0.00000784,-0.00000571,0.00001450,-0.00000900,0.00000281,0.00000113
 ,-0.00001912,0.00022776,0.00005940,0.00013561,0.00000067,0.00000773,0.
 00000084,-0.00000403,0.00000086,0.00000669,0.00000046,0.00000199,-0.00
 000830,0.00004177,0.00002964,0.00002160,0.00044587,-0.00014206,-0.0004
 8393,0.00261910,-0.00092069,0.00406015,-0.04891147,0.07409919,0.000012
 19,-0.00000167,0.00000986,0.00000595,-0.00001444,0.00001515,-0.0000844
 0,-0.00002498,-0.00011634,-0.00015891,-0.00001683,0.00018429,0.0000428
 3,0.00029926,-0.00010110,-0.00010364,0.00033135,0.00004562,-0.00189129
 ,-0.00349119,-0.00030125,0.01590824,-0.00688837,-0.01818628,0.12150479
 ,-0.04984128,-0.22485533,-0.00102926,0.00097065,0.00087955,0.00016505,
 -0.00063563,0.00155267,0.00019315,0.00132865,-0.00001749,-0.00000840,-
 0.00000668,-0.00000036,-0.00002472,0.00006762,0.00002762,-0.00000876,0
 .00003227,-0.00000667,0.00027156,0.00011826,0.00010510,-0.00000947,-0.
 00000766,0.00000854,-0.00000011,0.00000394,-0.00000643,-0.00000443,-0.
 00001533,0.00000041,0.00006302,0.00001764,0.00001960,-0.00055419,0.001
 11047,0.00037641,0.00315428,0.00437991,0.00011358,-0.13798121,0.051825
 40,0.23908274,0.00000995,0.00001844,-0.00002457,0.00000147,0.00009659,
 -0.00003401,0.00000296,-0.00002213,0.00006912,-0.00000033,-0.00002083,
 -0.00002194,-0.00015114,0.00000358,0.00001789,-0.00007893,-0.00010081,
 0.00021092,-0.00027647,-0.00000938,-0.00060623,0.00016181,-0.00188818,
 0.00020983,-0.00386979,0.00467161,0.00913967,-0.12459288,0.04529207,0.
 13526398,0.01045848,-0.00565234,-0.01663228,-0.00498948,-0.00074598,0.
 01014540,-0.00002269,-0.00005763,0.00002961,0.00005846,0.00009221,-0.0
 0006188,-0.00007264,0.00000368,0.00002896,0.00019245,-0.00000350,-0.00
 005385,-0.00001030,-0.00001595,0.00000623,0.00000459,-0.00000551,-0.00
 000840,0.00002681,-0.00001317,0.00000581,0.00000652,0.00001101,-0.0000
 1919,0.00007855,-0.00005459,0.00005455,0.00015427,0.00031925,-0.000457
 29,0.00101179,0.00203498,0.00036151,0.12235868,0.00000373,0.00000518,-
 0.00000626,-0.00000415,0.00003390,-0.00000924,0.00001188,0.00000051,0.
 00000389,-0.00002305,-0.00004716,0.00006684,-0.00004299,0.00005090,-0.
 00006837,-0.00014650,-0.00007959,0.00018768,-0.00047864,0.00002116,-0.
 00039486,-0.00040771,0.00170296,-0.00098023,0.01948303,-0.00533844,-0.
 02553021,0.03109752,-0.05139960,-0.04391231,0.00150303,-0.00525999,0.0
 0663579,-0.00598028,0.00126985,0.01061090,-0.00000429,-0.00001863,0.00
 001205,0.00000738,0.00003130,-0.00000784,-0.00002441,-0.00000318,0.000
 03385,0.00011744,0.00010768,-0.00002215,-0.00000601,-0.00001005,0.0000
 0675,0.00000132,-0.00000018,-0.00000366,0.00000544,-0.00000795,0.00000
 327,0.00000720,0.00000040,-0.00000500,-0.00009975,0.00020284,0.0001583
 8,-0.00033047,-0.00009191,0.00101437,0.00248039,-0.00440947,0.00089612
 ,-0.04574241,0.06192394,0.00000406,0.00000652,-0.00000611,0.00000181,0
 .00002857,-0.00001264,-0.00001145,-0.00001353,0.00001594,-0.00000398,-
 0.00000058,-0.00002509,-0.00009646,-0.00003704,0.00004127,0.00000155,0
 .00000342,0.00008242,-0.00048456,-0.00026696,-0.00010304,-0.00125135,0
 .00077474,0.00070940,0.00099705,0.00082118,0.00077295,0.12029654,-0.05
 156590,-0.21571783,0.01336912,-0.00311161,-0.01865259,0.00217525,0.000
 17448,-0.00738742,-0.00000630,-0.00002775,0.00001195,0.00001751,0.0000
 4588,-0.00002565,-0.00002157,0.00000541,0.00000455,0.00012789,-0.00000
 187,-0.00000031,-0.00000361,-0.00000652,0.00000332,0.00000267,-0.00000
 033,-0.00000354,0.00001049,-0.00000466,0.00000184,0.00001409,0.0000097
 0,-0.00000205,-0.00000244,0.00012605,-0.00008500,0.00039710,-0.0002669
 3,0.00040967,0.00070668,0.00070982,0.00102101,-0.13624558,0.05007609,0
 .23762607,0.00000627,0.00000998,-0.00001521,0.00000132,0.00004324,-0.0
 0001626,-0.00000199,-0.00001080,0.00002803,-0.00000637,-0.00001699,0.0
 0000261,-0.00004484,0.00001375,0.00001297,-0.00011434,-0.00002274,0.00
 014003,-0.00010560,0.00004817,-0.00048214,-0.00028653,0.00038876,0.000
 78870,0.00285443,0.00126312,-0.00324941,-0.00936089,0.00589223,0.00335
 378,-0.03850315,0.01680624,0.03806885,0.00169287,-0.00370905,-0.015420
 23,-0.00000952,-0.00003070,0.00001631,0.00002569,0.00004848,-0.0000290
 7,-0.00003454,0.00000677,0.00001988,0.00011032,0.00001745,-0.00004301,
 -0.00000596,-0.00000690,0.00000519,0.00000181,-0.00000343,-0.00000197,
 0.00001161,-0.00000609,0.00000273,0.00000504,0.00000671,-0.00001204,0.
 00000404,0.00000843,0.00002215,0.00001488,0.00004663,-0.00003172,0.000
 01192,-0.00029745,0.00012895,0.00053737,-0.00230608,0.00155484,0.04384
 478,-0.00000222,-0.00000380,-0.00000171,0.00000381,-0.00005024,0.00001
 324,-0.00000666,0.00001837,-0.00002984,-0.00000997,-0.00001968,0.00004
 168,0.00005781,-0.00001769,-0.00013861,-0.00004871,-0.00007483,0.00010
 057,-0.00008722,0.00036005,-0.00032693,-0.00008639,-0.00001015,0.00044
 802,-0.00304859,0.00081499,-0.00303450,-0.00923956,0.01086128,0.016392
 87,0.02876726,-0.09085240,-0.10834721,0.00423643,0.00064070,-0.0057775
 4,0.00000886,0.00001889,-0.00001222,-0.00002193,-0.00003776,0.00002536
 ,0.00001838,-0.00002646,0.00002311,-0.00004243,0.00011275,0.00000976,0
 .00000097,0.00000545,0.00000499,-0.00000527,0.00000013,0.00000899,-0.0
 0001172,0.00000345,-0.00000421,0.00001326,0.00000393,0.00000894,0.0000
 5559,-0.00006629,0.00000318,0.00038264,0.00011040,-0.00002451,0.000359
 55,-0.00010207,-0.00046316,0.00556424,-0.00123740,0.00563924,-0.029567
 71,0.08303427,0.00001259,0.00001202,-0.00001295,-0.00000242,0.00005758
 ,-0.00001656,-0.00001589,-0.00002220,0.00003095,-0.00000084,-0.0000221
 0,-0.00000211,-0.00002507,0.00004203,0.00005807,-0.00008241,-0.0000987
 1,0.00012657,-0.00017065,0.00002221,-0.00020977,-0.00003807,-0.0001539
 2,0.00055354,0.00233937,-0.00039935,0.00245547,0.00259606,-0.00887374,
 -0.01281340,0.05201825,-0.09864947,-0.26209631,-0.00231618,-0.00313059
 ,-0.01242762,-0.00001513,-0.00003433,0.00001985,0.00003592,0.00006526,
 -0.00003687,-0.00003963,0.00000013,0.00002172,0.00009663,-0.00000567,-
 0.00004857,-0.00000547,-0.00000891,-0.00000030,0.00000424,-0.00000361,
 -0.00000859,0.00001630,-0.00000713,0.00000621,0.00000262,0.00000412,-0
 .00001159,-0.00001422,0.00005006,0.00001796,-0.00001150,-0.00009872,0.
 00011135,-0.00057158,0.00092999,0.00008975,-0.00474973,-0.00060355,-0.
 00222181,-0.04757803,0.11069752,0.28451180,-0.00000309,-0.00000179,-0.
 00000029,-0.00000317,-0.00002133,0.00000622,0.00001609,0.00001867,-0.0
 0001195,0.00000142,-0.00003298,0.00003584,0.00003077,0.00000247,-0.000
 08546,0.00004282,-0.00022965,0.00014686,-0.00041399,0.00022804,-0.0000
 1287,0.00015637,-0.00126455,0.00002537,0.00079663,-0.00020222,0.003189
 89,0.00643616,-0.00760354,-0.00284479,-0.22651398,0.15321567,0.0072584
 7,-0.01148818,0.00912194,-0.00355612,-0.00000162,0.00001036,-0.0000048
 0,-0.00000698,-0.00002096,0.00001353,0.00000072,-0.00004352,0.00003746
 ,-0.00000042,0.00010991,0.00002473,0.00000079,0.00000118,0.00000321,-0
 .00000157,-0.00000155,0.00000276,-0.00000460,0.00000160,-0.00000172,-0
 .00000086,-0.00000429,0.00000901,-0.00000080,0.00002400,-0.00001119,0.
 00000774,0.00000252,0.00009624,-0.00000094,0.00029270,0.00010342,-0.00
 097360,0.00090131,-0.00152831,-0.00063272,0.00269779,-0.00146279,0.232
 56102,-0.00000483,-0.00000243,0.00000026,-0.00000534,-0.00002757,0.000
 00150,0.00002404,0.00003290,-0.00001549,-0.00000755,-0.00006576,0.0000
 6492,0.00005034,0.00001287,-0.00015165,0.00001977,-0.00048392,0.000291
 52,-0.00087657,0.00051924,-0.00018753,0.00070500,-0.00205147,0.0002445
 6,0.00213177,0.00271716,0.00516567,0.01757244,-0.01273029,-0.00371101,
 0.13492823,-0.12946738,-0.00055778,-0.00476549,0.00068601,-0.00105730,
 0.00000549,0.00000612,0.00000031,-0.00001208,-0.00001924,0.00001275,0.
 00000048,-0.00008471,0.00007868,0.00003524,0.00023062,0.00003391,0.000
 00108,-0.00000002,0.00000444,-0.00000101,0.00000022,0.00000387,-0.0000
 0462,0.00000195,-0.00000092,-0.00000062,-0.00000622,0.00000764,0.00002
 031,0.00004202,-0.00000940,-0.00000098,-0.00003830,0.00013490,-0.00016
 238,0.00049252,0.00001583,-0.00380419,0.00254413,-0.00312255,0.0113659
 8,-0.00347122,0.00021436,-0.15719708,0.14117342,-0.00000158,-0.0000000
 5,0.00000181,0.00000731,0.00002534,-0.00000065,-0.00001081,-0.00003477
 ,0.00001265,0.00000904,0.00008976,-0.00008909,-0.00008803,-0.00003745,
 0.00020963,0.00004840,0.00060287,-0.00047691,0.00097212,-0.00091376,0.
 00050219,-0.00074492,0.00255485,-0.00080918,-0.00354246,-0.00668197,-0
 .00251084,-0.01559795,0.01311643,-0.00738713,0.00295197,-0.00408090,-0
 .03309579,-0.00847385,0.00609718,-0.00321308,-0.00000369,-0.00000256,-
 0.00000346,0.00000277,0.00001142,-0.00000592,0.00001196,0.00009970,-0.
 00011028,-0.00004346,-0.00029839,0.00000140,-0.00000095,-0.00000060,-0
 .00000024,0.00000052,0.00000057,-0.00000036,0.00000140,-0.00000231,-0.
 00000140,-0.00000182,0.00000397,-0.00000187,-0.00001574,-0.00002052,0.
 00000548,-0.00006032,-0.00008236,-0.00003114,-0.00014915,0.00040276,0.
 00007475,0.00338940,0.00185281,0.00355343,0.02274853,-0.01525674,0.001
 91483,-0.00143230,0.00254440,0.04144908,-0.00012813,-0.00051849,0.0000
 5489,-0.00053301,0.00091637,-0.00236238,-0.00336322,-0.00365343,-0.000
 78870,0.00075237,-0.00024184,-0.00016949,-0.00027842,-0.00013970,0.000
 05105,0.00010988,0.00000142,-0.00024539,-0.00011561,0.00008359,0.00012
 754,0.00001976,0.00001381,-0.00004457,-0.00000340,-0.00000949,0.000013
 93,-0.00000295,0.00003312,-0.00000890,-0.00001476,-0.00001552,-0.00000
 412,0.00001077,-0.00000088,0.00001705,-0.01807128,-0.04341372,0.017979
 39,-0.04749243,-0.04745549,-0.01209464,-0.00020296,0.00062789,-0.00016
 906,0.00003078,-0.00046809,0.00012343,-0.00013719,-0.00008616,-0.00006
 505,-0.00023641,0.00009477,-0.00018231,0.00073876,0.00010611,0.0001727
 2,-0.00044762,0.00020864,-0.00002729,0.00000863,-0.00000379,0.00003812
 ,-0.00000920,0.00002630,-0.00001281,-0.00000285,-0.00000337,0.00000755
 ,-0.00000332,0.00000107,-0.00000234,-0.00000257,0.00000039,-0.00000195
 ,0.00000182,0.00000153,-0.00000003,0.06939242,0.00068907,0.00109600,0.
 00055643,0.00096855,-0.00081487,0.00231293,0.00396226,0.00954628,-0.00
 229454,-0.00025546,0.00023608,-0.00085991,0.00000899,0.00026981,-0.000
 01278,-0.00017377,0.00010759,0.00027690,0.00008831,-0.00007037,-0.0001
 1963,-0.00004875,-0.00001346,0.00007469,-0.00000192,0.00001093,-0.0000
 2415,0.00001348,-0.00010439,0.00003122,0.00002547,0.00002737,-0.000003
 63,-0.00002379,0.00002848,-0.00003819,-0.03725017,-0.05921747,0.009262
 31,-0.06278437,-0.09665433,0.00747057,0.00064121,-0.00022218,-0.000019
 87,-0.00013413,0.00028686,0.00001880,0.00009575,0.00009444,-0.00009095
 ,0.00039554,-0.00005760,0.00014731,-0.00007132,-0.00037639,-0.00006595
 ,0.00014417,0.00003129,-0.00004765,0.00000612,0.00000685,-0.00002272,0
 .00002463,-0.00002079,0.00000297,0.00000018,0.00000153,-0.00000900,0.0
 0001783,0.00000268,0.00000721,0.00000807,-0.00000341,0.00000804,-0.000
 00145,-0.00000142,-0.00000024,0.09378113,0.14600658,-0.00103177,-0.000
 42083,0.00043267,0.00044174,0.00130472,-0.00463940,-0.01064594,-0.0109
 2321,0.00122792,-0.00002691,-0.00157084,-0.00041831,-0.00013279,0.0007
 8729,0.00016574,-0.00011511,0.00017381,-0.00010933,0.00014849,-0.00034
 444,0.00002554,-0.00000821,0.00013858,-0.00007132,0.00002635,-0.000105
 31,0.00005912,0.00000196,0.00018671,-0.00004843,-0.00006818,-0.0000483
 5,-0.00000189,0.00004235,-0.00005585,0.00006583,0.01124363,0.00058124,
 0.01566550,0.00354779,0.02690250,-0.02579467,0.00014036,-0.00042218,0.
 00133059,0.00011852,0.00020996,-0.00007539,-0.00034853,-0.00015120,-0.
 00019149,-0.00046333,0.00008567,-0.00008361,-0.00040696,0.00030888,-0.
 00001299,0.00005335,0.00012019,0.00004043,0.00000122,0.00000999,-0.000
 03330,0.00000490,-0.00003023,0.00001290,-0.00000544,0.00000270,-0.0000
 1097,-0.00001503,-0.00000737,-0.00000718,-0.00000812,0.00000719,-0.000
 01054,0.00000186,0.00000041,-0.00000034,-0.00233914,-0.01656225,0.0127
 1020,-0.00010702,-0.00025370,-0.00033908,0.00195416,0.00046954,-0.0009
 9121,-0.00525640,0.01475067,0.00110725,-0.00043972,-0.00054037,0.00339
 280,-0.00101182,-0.00063697,-0.00062873,0.00818988,0.00241573,0.005080
 06,0.00044736,-0.00007883,-0.00008390,-0.00097657,-0.00048674,-0.00045
 031,-0.00005824,-0.00005850,-0.00009921,0.00018447,0.00020141,0.000178
 93,0.00005023,-0.00004551,-0.00004934,-0.00001552,-0.00000970,0.000015
 41,0.00011555,-0.00012339,0.00019609,0.00025508,-0.00021105,-0.0001190
 8,-0.09101739,0.11545082,0.01693623,0.00582796,-0.00414495,0.00103703,
 0.00007850,0.00007636,-0.00010761,-0.00029066,0.00001401,0.00014999,0.
 00023437,-0.00030744,-0.00007360,-0.00041154,0.00087388,-0.00002822,0.
 00030259,0.00013935,0.00017820,0.00003153,0.00000601,0.00002235,-0.000
 09299,-0.00003564,-0.00004426,-0.00001730,-0.00001938,-0.00001450,-0.0
 0001120,0.00000108,-0.00001069,-0.00000803,-0.00002091,0.00002386,0.00
 002213,-0.00007226,-0.00008723,0.08618454,-0.00001262,0.00004696,0.000
 04354,0.00044351,0.00099324,-0.00001085,0.00054430,-0.00337659,0.00137
 419,-0.00004920,0.00135886,-0.00070425,-0.00025524,-0.00007123,-0.0004
 7077,0.00099295,0.00215726,0.00517939,0.00066738,-0.00072269,-0.000370
 95,-0.00051453,-0.00024670,0.00002823,0.00000694,-0.00007175,-0.000076
 33,0.00006622,0.00000761,0.00011015,0.00004881,-0.00001030,-0.00001177
 ,-0.00001530,0.00002021,-0.00001986,-0.00020436,-0.00001156,-0.0001462
 5,-0.00010930,0.00044861,0.00037515,0.11455083,-0.28558810,-0.01716532
 ,0.01071659,-0.01561249,-0.00376028,-0.00003477,-0.00002790,0.00004058
 ,0.00007812,0.00001494,-0.00004484,0.00018361,0.00004102,-0.00003994,0
 .00014893,-0.00013292,-0.00002628,0.00011152,0.00006299,0.00010595,0.0
 0001793,0.00002637,-0.00001733,-0.00004304,-0.00001308,-0.00001124,-0.
 00000256,-0.00000245,-0.00000521,-0.00000082,0.00000080,-0.00000225,-0
 .00000561,-0.00001169,0.00001103,0.00006301,-0.00010692,-0.00011354,-0
 .12519475,0.30068029,0.00008226,0.00006218,0.00010100,-0.00146231,0.00
 044389,0.00108979,0.01159704,-0.02442609,-0.00236217,0.00288473,0.0016
 6843,-0.00488378,-0.00080885,-0.00055767,0.00015009,0.00575267,0.00364
 091,-0.00112481,-0.00069205,0.00106692,0.00070610,-0.00038227,-0.00013
 706,-0.00064192,-0.00008753,0.00003673,0.00001477,0.00010669,0.0002233
 4,0.00004627,-0.00000520,-0.00004589,-0.00003009,0.00000547,-0.0000327
 7,0.00004355,-0.00033030,0.00021343,-0.00015466,0.00059425,-0.00058318
 ,0.00242821,0.01709134,-0.01811853,-0.05232673,-0.00990440,0.02255761,
 0.00584966,-0.00006421,-0.00002057,-0.00008252,0.00005780,-0.00003427,
 0.00005443,-0.00006984,0.00017489,-0.00002351,0.00068222,-0.00164835,0
 .00009874,0.00018917,0.00005378,0.00008506,-0.00000122,0.00003786,0.00
 001426,-0.00004804,-0.00002508,-0.00002098,-0.00002033,-0.00001445,-0.
 00001010,-0.00001326,0.00000182,-0.00001138,-0.00000084,-0.00000551,0.
 00001038,-0.00007214,-0.00000486,-0.00013589,-0.02217184,0.01682256,0.
 05158255,-0.00027103,-0.00012758,-0.00015449,0.00108694,-0.00002739,-0
 .00191223,0.00790281,0.00257246,0.00416252,0.00026462,0.00069266,-0.00
 079175,0.00107304,0.00323777,0.00143236,-0.00467216,0.00013859,0.01137
 784,-0.00068656,-0.00137528,0.00004623,0.00008174,0.00014754,-0.000380
 49,0.00000592,-0.00002309,0.00005136,-0.00000179,0.00010259,-0.0000220
 7,-0.00005213,-0.00003390,-0.00000296,0.00003659,-0.00002529,0.0000354
 5,0.00007215,-0.00009865,0.00000245,-0.00073733,0.00052846,0.00151734,
 0.00182890,0.00151808,0.00224462,-0.12455916,0.03296999,0.12917823,0.0
 0002183,0.00000461,0.00002587,-0.00003319,-0.00000950,0.00003255,0.000
 56723,0.00016596,-0.00006367,-0.00045234,-0.00031093,-0.00010271,0.000
 37917,0.00034070,-0.00049139,0.00009164,-0.00012406,0.00003183,0.00000
 499,0.00002158,-0.00001943,-0.00000531,-0.00000462,-0.00000422,-0.0000
 0214,0.00001032,-0.00000971,0.00000215,0.00000197,-0.00000024,-0.00004
 196,-0.00005338,-0.00006982,-0.00416394,-0.00219855,-0.00290899,0.1222
 5933,-0.00010240,-0.00004821,-0.00012909,0.00027438,0.00029411,-0.0000
 5092,0.00310521,-0.00132908,0.00397993,-0.00021999,-0.00158405,0.00173
 036,0.00440150,-0.00478689,-0.00155026,0.01331298,-0.00038151,-0.02252
 912,-0.00003204,0.00091039,-0.00168880,-0.00032351,0.00005318,0.000453
 81,0.00001615,0.00000426,-0.00002145,0.00000401,-0.00009532,0.00003000
 ,0.00003351,0.00002430,-0.00001206,-0.00002982,0.00003849,-0.00002389,
 0.00013551,-0.00004115,0.00001131,-0.00082399,0.00038136,0.00113265,-0
 .01290615,0.00731987,0.02071714,0.03382188,-0.06372286,-0.04050791,-0.
 00004941,-0.00005758,0.00001831,-0.00006037,0.00001601,0.00000760,-0.0
 0004514,-0.00011225,-0.00002756,-0.00019059,0.00025280,-0.00037538,-0.
 00015904,-0.00047105,0.00086577,-0.00003404,0.00024585,-0.00008992,-0.
 00000045,-0.00003412,0.00003013,0.00001368,0.00000857,0.00000309,0.000
 00476,-0.00001207,0.00001094,0.00000235,0.00000243,-0.00000049,0.00005
 084,-0.00008918,-0.00006427,-0.00215877,0.00014718,-0.00135006,-0.0380
 4106,0.06306652,-0.00017158,-0.00007684,0.00014613,0.00068700,-0.00006
 268,-0.00183529,0.00263462,0.00466803,0.00287941,-0.00025339,0.0001445
 8,0.00055059,0.00104511,0.00011878,0.00144235,0.00092809,0.00145878,-0
 .00116789,-0.00102359,0.00090167,-0.00014118,-0.00003527,-0.00043721,0
 .00030474,0.00000567,0.00010231,-0.00009078,0.00000424,-0.00017720,0.0
 0005822,0.00006363,0.00003720,-0.00000612,-0.00003908,0.00005873,-0.00
 005567,-0.00003630,-0.00011235,0.00002712,-0.00015658,0.00020489,0.000
 69402,0.01350714,-0.00560233,-0.01615535,0.12860770,-0.03957666,-0.238
 65401,0.00003347,0.00000404,0.00003792,0.00007434,0.00000150,-0.000059
 93,0.00060559,0.00011517,0.00001588,-0.00015459,-0.00012377,-0.0002304
 8,-0.00008690,-0.00005659,0.00048441,-0.00003916,0.00008126,0.00006002
 ,-0.00000381,-0.00001148,0.00001653,0.00001743,0.00000671,0.00000655,0
 .00000692,-0.00000931,0.00001028,-0.00000145,-0.00000079,0.00000204,0.
 00000464,0.00000694,-0.00009141,-0.00301939,-0.00109353,-0.00046633,-0
 .14320450,0.03943015,0.25221823\\0.00000361,-0.00000497,0.00000783,-0.
 00001434,-0.00002606,-0.00001448,0.00001922,0.00002818,-0.00000695,-0.
 00001235,-0.00000585,0.00001373,0.00002228,0.00001046,-0.00003173,0.00
 000519,0.00001402,0.00000142,-0.00000549,-0.00003893,0.00002925,0.0000
 0132,0.00001493,0.00001501,-0.00000009,-0.00001761,-0.00000700,-0.0000
 0766,-0.00007275,0.00001028,-0.00002806,0.00003865,0.00003217,0.000016
 50,0.00000906,-0.00000211,-0.00000711,0.00001086,-0.00002535,-0.000039
 59,-0.00007932,0.00001949,-0.00001097,0.00000367,-0.00000336,-0.000002
 29,0.00000467,-0.00002843,0.00000113,0.00000112,-0.00000057,0.00000833
 ,0.00000350,-0.00000005,0.00000210,0.00000916,0.00000622,0.00000161,-0
 .00000253,-0.00000049,-0.00000642,-0.00000163,0.00000043,0.00000289,-0
 .00000662,-0.00001965,-0.00000338,0.00002012,-0.00000145,0.00000196,0.
 00004626,-0.00001538,0.00000784,-0.00000469,0.00001182,0.00000422,-0.0
 0002187,-0.00002071,0.00003926,0.00005620,0.00002495,-0.00000067,0.000
 00193,0.00000301,0.00000095,0.00000998,0.00000209\\\@


 THERE ARE PEOPLE SO ADDICTED TO EXAGERATING THEY
 CAN'T TELL THE TRUTH WITHOUT LYING. -- FORTUNE COOKIE
 Job cpu time:       0 days  8 hours  9 minutes 30.6 seconds.
 Elapsed time:       0 days  2 hours  2 minutes 38.6 seconds.
 File lengths (MBytes):  RWF=    546 Int=      0 D2E=      0 Chk=     22 Scr=      1
 Normal termination of Gaussian 16 at Thu May 18 09:30:03 2023.
### All Done ###
