### Starting Gaussian ###
 Entering Gaussian System, Link 0=g16
 Initial command:
 /cluster/software/gaussian/gaussian-16-A.03/avx2/g16/l1.exe "/local/scratch/cz9n3/Gau-10790.inp" -scrdir="/local/scratch/cz9n3/"
 Entering Link 1 = /cluster/software/gaussian/gaussian-16-A.03/avx2/g16/l1.exe PID=     10791.
  
 Copyright (c) 1988,1990,1992,1993,1995,1998,2003,2009,2016,
            Gaussian, Inc.  All Rights Reserved.
  
 This is part of the Gaussian(R) 16 program.  It is based on
 the Gaussian(R) 09 system (copyright 2009, Gaussian, Inc.),
 the Gaussian(R) 03 system (copyright 2003, Gaussian, Inc.),
 the Gaussian(R) 98 system (copyright 1998, Gaussian, Inc.),
 the Gaussian(R) 94 system (copyright 1995, Gaussian, Inc.),
 the Gaussian 92(TM) system (copyright 1992, Gaussian, Inc.),
 the Gaussian 90(TM) system (copyright 1990, Gaussian, Inc.),
 the Gaussian 88(TM) system (copyright 1988, Gaussian, Inc.),
 the Gaussian 86(TM) system (copyright 1986, Carnegie Mellon
 University), and the Gaussian 82(TM) system (copyright 1983,
 Carnegie Mellon University). Gaussian is a federally registered
 trademark of Gaussian, Inc.
  
 This software contains proprietary and confidential information,
 including trade secrets, belonging to Gaussian, Inc.
  
 This software is provided under written license and may be
 used, copied, transmitted, or stored only in accord with that
 written license.
  
 The following legend is applicable only to US Government
 contracts under FAR:
  
                    RESTRICTED RIGHTS LEGEND
  
 Use, reproduction and disclosure by the US Government is
 subject to restrictions as set forth in subparagraphs (a)
 and (c) of the Commercial Computer Software - Restricted
 Rights clause in FAR 52.227-19.
  
 Gaussian, Inc.
 340 Quinnipiac St., Bldg. 40, Wallingford CT 06492
  
  
 ---------------------------------------------------------------
 Warning -- This program may not be used in any manner that
 competes with the business of Gaussian, Inc. or will provide
 assistance to any competitor of Gaussian, Inc.  The licensee
 of this program is prohibited from giving any competitor of
 Gaussian, Inc. access to this program.  By using this program,
 the user acknowledges that Gaussian, Inc. is engaged in the
 business of creating and licensing software in the field of
 computational chemistry and represents and warrants to the
 licensee that it is not a competitor of Gaussian, Inc. and that
 it will not use this program in any manner prohibited above.
 ---------------------------------------------------------------
  

 Cite this work as:
 Gaussian 16, Revision A.03,
 M. J. Frisch, G. W. Trucks, H. B. Schlegel, G. E. Scuseria, 
 M. A. Robb, J. R. Cheeseman, G. Scalmani, V. Barone, 
 G. A. Petersson, H. Nakatsuji, X. Li, M. Caricato, A. V. Marenich, 
 J. Bloino, B. G. Janesko, R. Gomperts, B. Mennucci, H. P. Hratchian, 
 J. V. Ortiz, A. F. Izmaylov, J. L. Sonnenberg, D. Williams-Young, 
 F. Ding, F. Lipparini, F. Egidi, J. Goings, B. Peng, A. Petrone, 
 T. Henderson, D. Ranasinghe, V. G. Zakrzewski, J. Gao, N. Rega, 
 G. Zheng, W. Liang, M. Hada, M. Ehara, K. Toyota, R. Fukuda, 
 J. Hasegawa, M. Ishida, T. Nakajima, Y. Honda, O. Kitao, H. Nakai, 
 T. Vreven, K. Throssell, J. A. Montgomery, Jr., J. E. Peralta, 
 F. Ogliaro, M. J. Bearpark, J. J. Heyd, E. N. Brothers, K. N. Kudin, 
 V. N. Staroverov, T. A. Keith, R. Kobayashi, J. Normand, 
 K. Raghavachari, A. P. Rendell, J. C. Burant, S. S. Iyengar, 
 J. Tomasi, M. Cossi, J. M. Millam, M. Klene, C. Adamo, R. Cammi, 
 J. W. Ochterski, R. L. Martin, K. Morokuma, O. Farkas, 
 J. B. Foresman, and D. J. Fox, Gaussian, Inc., Wallingford CT, 2016.
 
 ******************************************
 Gaussian 16:  ES64L-G16RevA.03 25-Dec-2016
                19-May-2023 
 ******************************************
 %chk=NNC1dc2cqNrccncc3cqnc2NN1rdC3NON.chk
 %NProcShared=20
 Will use up to   20 processors via shared memory.
 -----------------------------
 # opt freq b3lyp/6-31g(2df,p)
 -----------------------------
 1/18=20,19=15,26=3,38=1/1,3;
 2/9=110,12=2,17=6,18=5,40=1/2;
 3/5=1,6=6,7=104,11=2,25=1,30=1,71=1,74=-5/1,2,3;
 4//1;
 5/5=2,38=5/2;
 6/7=2,8=2,9=2,10=2,28=1/1;
 7//1,2,3,16;
 1/18=20,19=15,26=3/3(2);
 2/9=110/2;
 99//99;
 2/9=110/2;
 3/5=1,6=6,7=104,11=2,25=1,30=1,71=1,74=-5/1,2,3;
 4/5=5,16=3,69=1/1;
 5/5=2,38=5/2;
 7//1,2,3,16;
 1/18=20,19=15,26=3/3(-5);
 2/9=110/2;
 6/7=2,8=2,9=2,10=2,19=2,28=1/1;
 99/9=1/99;
 -------------------
 Title Card Required
 -------------------
 Symbolic Z-matrix:
 Charge =  0 Multiplicity = 1
 N                     1.28051   0.03692  -0.12295 
 N                     2.82209   0.30568   0.04534 
 C                     3.83193  -0.47085  -0.45396 
 C                     5.3425   -1.23713  -1.01944 
 C                     5.25284  -2.61972  -1.83291 
 N                     4.31893  -3.38467  -2.32432 
 C                     6.5288   -3.07061  -1.99507 
 C                     7.00855  -4.06281  -2.74177 
 N                     8.19064  -3.69391  -2.79826 
 C                     9.34961  -3.96433  -3.32859 
 C                     10.16676  -3.12543  -2.69615 
 C                     9.59314  -2.9938   -1.26189 
 N                     8.5273   -1.67843  -0.84776 
 C                     7.18461  -0.98971  -0.59561 
 N                     5.6078   -0.58875  -0.34725 
 N                     4.0088   -1.69795  -0.54622 
 C                     10.96985  -2.95326  -1.56069 
 N                     11.2758  -1.64735  -1.35712 
 O                     11.93321  -0.8944   -0.4786 
 N                     10.83921   0.00758  -0.1505 
 H                     0.74637   0.79404   0.35064 
 H                     0.872    -0.78806   0.35948 
 H                     2.99702   1.13746   0.58566 
 H                     3.33419  -3.26889  -2.17914 
 H                     4.68712  -4.1954   -2.77656 
 H                     7.2102   -2.40499  -1.75507 
 H                     6.38654  -4.75147  -3.23882 
 H                     9.38625  -5.02617  -3.27977 
 H                     5.48421   0.34746   0.11168 
 H                     3.27497  -1.73804  -1.4051 
 H                     10.31427  -1.33558  -1.13121 
 H                     11.31778   0.71536   0.37033 
 H                     10.30523  -0.56858   0.50936 
 

 GradGradGradGradGradGradGradGradGradGradGradGradGradGradGradGradGradGrad
 Berny optimization.
 Initialization pass.
                           ----------------------------
                           !    Initial Parameters    !
                           ! (Angstroms and Degrees)  !
 --------------------------                            --------------------------
 ! Name  Definition              Value          Derivative Info.                !
 --------------------------------------------------------------------------------
 ! R1    R(1,2)                  1.5739         estimate D2E/DX2                !
 ! R2    R(1,21)                 1.0406         estimate D2E/DX2                !
 ! R3    R(1,22)                 1.0393         estimate D2E/DX2                !
 ! R4    R(2,3)                  1.3682         estimate D2E/DX2                !
 ! R5    R(2,23)                 1.0072         estimate D2E/DX2                !
 ! R6    R(3,4)                  1.7857         estimate D2E/DX2                !
 ! R7    R(3,16)                 1.2432         estimate D2E/DX2                !
 ! R8    R(4,5)                  1.6067         estimate D2E/DX2                !
 ! R9    R(4,15)                 0.9709         estimate D2E/DX2                !
 ! R10   R(4,16)                 1.4883         estimate D2E/DX2                !
 ! R11   R(5,6)                  1.3034         estimate D2E/DX2                !
 ! R12   R(5,7)                  1.363          estimate D2E/DX2                !
 ! R13   R(6,24)                 1.0021         estimate D2E/DX2                !
 ! R14   R(6,25)                 0.9987         estimate D2E/DX2                !
 ! R15   R(7,8)                  1.3312         estimate D2E/DX2                !
 ! R16   R(7,26)                 0.9823         estimate D2E/DX2                !
 ! R17   R(8,9)                  1.2396         estimate D2E/DX2                !
 ! R18   R(8,27)                 1.0527         estimate D2E/DX2                !
 ! R19   R(9,10)                 1.3029         estimate D2E/DX2                !
 ! R20   R(10,11)                1.331          estimate D2E/DX2                !
 ! R21   R(10,28)                1.0636         estimate D2E/DX2                !
 ! R22   R(11,12)                1.5503         estimate D2E/DX2                !
 ! R23   R(11,17)                1.4014         estimate D2E/DX2                !
 ! R24   R(12,13)                1.7429         estimate D2E/DX2                !
 ! R25   R(12,17)                1.4093         estimate D2E/DX2                !
 ! R26   R(13,14)                1.5299         estimate D2E/DX2                !
 ! R27   R(14,15)                1.6458         estimate D2E/DX2                !
 ! R28   R(15,29)                1.0499         estimate D2E/DX2                !
 ! R29   R(16,30)                1.1304         estimate D2E/DX2                !
 ! R30   R(17,18)                1.3566         estimate D2E/DX2                !
 ! R31   R(18,19)                1.3308         estimate D2E/DX2                !
 ! R32   R(18,31)                1.0357         estimate D2E/DX2                !
 ! R33   R(19,20)                1.4554         estimate D2E/DX2                !
 ! R34   R(20,32)                1.0006         estimate D2E/DX2                !
 ! R35   R(20,33)                1.0259         estimate D2E/DX2                !
 ! A1    A(2,1,21)             109.2607         estimate D2E/DX2                !
 ! A2    A(2,1,22)             118.093          estimate D2E/DX2                !
 ! A3    A(21,1,22)             99.4695         estimate D2E/DX2                !
 ! A4    A(1,2,3)              125.9434         estimate D2E/DX2                !
 ! A5    A(1,2,23)             111.6239         estimate D2E/DX2                !
 ! A6    A(3,2,23)             122.4312         estimate D2E/DX2                !
 ! A7    A(2,3,16)             133.8101         estimate D2E/DX2                !
 ! A8    A(3,4,5)              118.8423         estimate D2E/DX2                !
 ! A9    A(3,4,15)              74.0579         estimate D2E/DX2                !
 ! A10   A(5,4,15)             160.1329         estimate D2E/DX2                !
 ! A11   A(5,4,16)              81.056          estimate D2E/DX2                !
 ! A12   A(15,4,16)            103.3859         estimate D2E/DX2                !
 ! A13   A(4,5,6)              137.3855         estimate D2E/DX2                !
 ! A14   A(4,5,7)              107.0183         estimate D2E/DX2                !
 ! A15   A(6,5,7)              115.5803         estimate D2E/DX2                !
 ! A16   A(5,6,24)             125.5691         estimate D2E/DX2                !
 ! A17   A(5,6,25)             112.5199         estimate D2E/DX2                !
 ! A18   A(24,6,25)            121.4456         estimate D2E/DX2                !
 ! A19   A(5,7,8)              130.5925         estimate D2E/DX2                !
 ! A20   A(5,7,26)             113.338          estimate D2E/DX2                !
 ! A21   A(8,7,26)             113.0845         estimate D2E/DX2                !
 ! A22   A(7,8,9)               98.4772         estimate D2E/DX2                !
 ! A23   A(7,8,27)             122.648          estimate D2E/DX2                !
 ! A24   A(9,8,27)             137.4436         estimate D2E/DX2                !
 ! A25   A(8,9,10)             143.6135         estimate D2E/DX2                !
 ! A26   A(9,10,11)            102.8203         estimate D2E/DX2                !
 ! A27   A(9,10,28)            102.6602         estimate D2E/DX2                !
 ! A28   A(11,10,28)           125.8945         estimate D2E/DX2                !
 ! A29   A(10,11,12)           105.4237         estimate D2E/DX2                !
 ! A30   A(10,11,17)           144.5164         estimate D2E/DX2                !
 ! A31   A(11,12,13)           120.6751         estimate D2E/DX2                !
 ! A32   A(13,12,17)           128.7583         estimate D2E/DX2                !
 ! A33   A(12,13,14)           156.2882         estimate D2E/DX2                !
 ! A34   A(4,15,14)             89.6919         estimate D2E/DX2                !
 ! A35   A(4,15,29)            149.9904         estimate D2E/DX2                !
 ! A36   A(14,15,29)           113.3261         estimate D2E/DX2                !
 ! A37   A(3,16,30)             89.9446         estimate D2E/DX2                !
 ! A38   A(4,16,30)            110.557          estimate D2E/DX2                !
 ! A39   A(11,17,18)           111.6593         estimate D2E/DX2                !
 ! A40   A(12,17,18)           102.4845         estimate D2E/DX2                !
 ! A41   A(17,18,19)           139.0361         estimate D2E/DX2                !
 ! A42   A(17,18,31)            96.4954         estimate D2E/DX2                !
 ! A43   A(19,18,31)            98.2973         estimate D2E/DX2                !
 ! A44   A(18,19,20)            97.3624         estimate D2E/DX2                !
 ! A45   A(19,20,32)           101.3154         estimate D2E/DX2                !
 ! A46   A(19,20,33)           100.8475         estimate D2E/DX2                !
 ! A47   A(32,20,33)           108.1434         estimate D2E/DX2                !
 ! A48   L(2,3,4,30,-1)        190.1013         estimate D2E/DX2                !
 ! A49   L(13,14,15,7,-1)      168.7873         estimate D2E/DX2                !
 ! A50   L(2,3,4,30,-2)        177.2142         estimate D2E/DX2                !
 ! A51   L(13,14,15,7,-2)      173.8641         estimate D2E/DX2                !
 ! D1    D(21,1,2,3)          -179.4029         estimate D2E/DX2                !
 ! D2    D(21,1,2,23)            1.0351         estimate D2E/DX2                !
 ! D3    D(22,1,2,3)            68.0109         estimate D2E/DX2                !
 ! D4    D(22,1,2,23)         -111.551          estimate D2E/DX2                !
 ! D5    D(1,2,3,16)           -40.6158         estimate D2E/DX2                !
 ! D6    D(23,2,3,16)          138.9018         estimate D2E/DX2                !
 ! D7    D(1,2,4,5)             -4.2595         estimate D2E/DX2                !
 ! D8    D(1,2,4,15)          -167.6075         estimate D2E/DX2                !
 ! D9    D(23,2,4,5)           176.8171         estimate D2E/DX2                !
 ! D10   D(23,2,4,15)           13.4692         estimate D2E/DX2                !
 ! D11   D(2,3,16,30)           75.4686         estimate D2E/DX2                !
 ! D12   D(3,4,5,6)              5.9351         estimate D2E/DX2                !
 ! D13   D(3,4,5,7)           -172.4681         estimate D2E/DX2                !
 ! D14   D(15,4,5,6)           132.9044         estimate D2E/DX2                !
 ! D15   D(15,4,5,7)           -45.4989         estimate D2E/DX2                !
 ! D16   D(16,4,5,6)            28.186          estimate D2E/DX2                !
 ! D17   D(16,4,5,7)          -150.2172         estimate D2E/DX2                !
 ! D18   D(3,4,15,14)         -178.7361         estimate D2E/DX2                !
 ! D19   D(3,4,15,29)          -37.2552         estimate D2E/DX2                !
 ! D20   D(5,4,15,14)           47.9696         estimate D2E/DX2                !
 ! D21   D(5,4,15,29)         -170.5494         estimate D2E/DX2                !
 ! D22   D(16,4,15,14)         148.8246         estimate D2E/DX2                !
 ! D23   D(16,4,15,29)         -69.6945         estimate D2E/DX2                !
 ! D24   D(5,4,16,30)          -64.5919         estimate D2E/DX2                !
 ! D25   D(15,4,16,30)         135.1551         estimate D2E/DX2                !
 ! D26   D(4,5,6,24)            -7.5039         estimate D2E/DX2                !
 ! D27   D(4,5,6,25)          -179.727          estimate D2E/DX2                !
 ! D28   D(7,5,6,24)           170.8034         estimate D2E/DX2                !
 ! D29   D(7,5,6,25)            -1.4198         estimate D2E/DX2                !
 ! D30   D(4,5,7,8)           -169.8895         estimate D2E/DX2                !
 ! D31   D(4,5,7,26)           -11.1317         estimate D2E/DX2                !
 ! D32   D(6,5,7,8)             11.3091         estimate D2E/DX2                !
 ! D33   D(6,5,7,26)           170.0668         estimate D2E/DX2                !
 ! D34   D(5,7,8,9)            159.5625         estimate D2E/DX2                !
 ! D35   D(5,7,8,27)            -8.957          estimate D2E/DX2                !
 ! D36   D(26,7,8,9)             0.7625         estimate D2E/DX2                !
 ! D37   D(26,7,8,27)         -167.757          estimate D2E/DX2                !
 ! D38   D(7,8,9,10)          -175.44           estimate D2E/DX2                !
 ! D39   D(27,8,9,10)           -9.787          estimate D2E/DX2                !
 ! D40   D(8,9,10,11)         -171.9592         estimate D2E/DX2                !
 ! D41   D(8,9,10,28)          -40.0936         estimate D2E/DX2                !
 ! D42   D(9,10,11,12)          33.6641         estimate D2E/DX2                !
 ! D43   D(9,10,11,17)          87.3446         estimate D2E/DX2                !
 ! D44   D(28,10,11,12)        -82.5777         estimate D2E/DX2                !
 ! D45   D(28,10,11,17)        -28.8972         estimate D2E/DX2                !
 ! D46   D(10,11,12,13)        -95.3605         estimate D2E/DX2                !
 ! D47   D(10,11,17,18)       -163.0143         estimate D2E/DX2                !
 ! D48   D(11,12,13,14)         98.0293         estimate D2E/DX2                !
 ! D49   D(17,12,13,14)        167.4496         estimate D2E/DX2                !
 ! D50   D(13,12,17,18)          3.9364         estimate D2E/DX2                !
 ! D51   D(12,13,15,4)         -31.9416         estimate D2E/DX2                !
 ! D52   D(12,13,15,29)        167.0127         estimate D2E/DX2                !
 ! D53   D(11,17,18,19)        177.7029         estimate D2E/DX2                !
 ! D54   D(11,17,18,31)         67.0512         estimate D2E/DX2                !
 ! D55   D(12,17,18,19)        107.7976         estimate D2E/DX2                !
 ! D56   D(12,17,18,31)         -2.8541         estimate D2E/DX2                !
 ! D57   D(17,18,19,20)       -124.0593         estimate D2E/DX2                !
 ! D58   D(31,18,19,20)        -14.0388         estimate D2E/DX2                !
 ! D59   D(18,19,20,32)       -169.1099         estimate D2E/DX2                !
 ! D60   D(18,19,20,33)         79.6861         estimate D2E/DX2                !
 ! D61   D(19,20,32,33)       -105.5178         estimate D2E/DX2                !
 --------------------------------------------------------------------------------
 Trust Radius=3.00D-01 FncErr=1.00D-07 GrdErr=1.00D-06 EigMax=2.50D+02 EigMin=1.00D-04
 Number of steps in this run=    157 maximum allowed number of steps=    198.
 GradGradGradGradGradGradGradGradGradGradGradGradGradGradGradGradGradGrad

                          Input orientation:                          
 ---------------------------------------------------------------------
 Center     Atomic      Atomic             Coordinates (Angstroms)
 Number     Number       Type             X           Y           Z
 ---------------------------------------------------------------------
      1          7           0        1.280510    0.036920   -0.122950
      2          7           0        2.822090    0.305680    0.045340
      3          6           0        3.831930   -0.470850   -0.453960
      4          6           0        5.342500   -1.237130   -1.019440
      5          6           0        5.252840   -2.619720   -1.832910
      6          7           0        4.318930   -3.384670   -2.324320
      7          6           0        6.528800   -3.070610   -1.995070
      8          6           0        7.008550   -4.062810   -2.741770
      9          7           0        8.190640   -3.693910   -2.798260
     10          6           0        9.349610   -3.964330   -3.328590
     11          6           0       10.166760   -3.125430   -2.696150
     12          6           0        9.593140   -2.993800   -1.261890
     13          7           0        8.527300   -1.678430   -0.847760
     14          6           0        7.184610   -0.989710   -0.595610
     15          7           0        5.607800   -0.588750   -0.347250
     16          7           0        4.008800   -1.697950   -0.546220
     17          6           0       10.969850   -2.953260   -1.560690
     18          7           0       11.275800   -1.647350   -1.357120
     19          8           0       11.933210   -0.894400   -0.478600
     20          7           0       10.839210    0.007580   -0.150500
     21          1           0        0.746370    0.794040    0.350640
     22          1           0        0.872000   -0.788060    0.359480
     23          1           0        2.997020    1.137460    0.585660
     24          1           0        3.334190   -3.268890   -2.179140
     25          1           0        4.687120   -4.195400   -2.776560
     26          1           0        7.210200   -2.404990   -1.755070
     27          1           0        6.386540   -4.751470   -3.238820
     28          1           0        9.386250   -5.026170   -3.279770
     29          1           0        5.484210    0.347460    0.111680
     30          1           0        3.274970   -1.738040   -1.405100
     31          1           0       10.314270   -1.335580   -1.131210
     32          1           0       11.317780    0.715360    0.370330
     33          1           0       10.305230   -0.568580    0.509360
 ---------------------------------------------------------------------
                    Distance matrix (angstroms):
                    1          2          3          4          5
     1  N    0.000000
     2  N    1.573856   0.000000
     3  C    2.622431   1.368238   0.000000
     4  C    4.350478   3.141096   1.785714   0.000000
     5  C    5.075540   4.241973   2.922008   1.606651   0.000000
     6  N    5.077923   4.634059   3.496536   2.713362   1.303388
     7  C    6.380135   5.413160   4.050541   2.391822   1.362964
     8  C    7.515081   6.661692   5.312924   3.704944   2.447663
     9  N    8.296160   7.273521   5.906116   4.160754   3.273599
    10  C    9.560152   8.498524   7.135313   5.369052   4.563832
    11  C    9.776873   8.557597   7.225253   5.445229   5.014732
    12  C    8.920889   7.644772   6.341102   4.605715   4.393655
    13  N    7.482228   6.106041   4.864137   3.219809   3.546637
    14  C    6.011304   4.595697   3.395548   1.906362   2.814175
    15  N    4.378037   2.952001   1.782976   0.970886   2.541264
    16  N    3.260751   2.402656   1.243209   1.488304   2.013173
    17  C   10.241659   8.921099   7.637874   5.908056   5.733198
    18  N   10.211061   8.788995   7.590194   5.957043   6.119471
    19  O   10.699246   9.204739   8.112382   6.621739   7.031232
    20  N    9.558785   8.025050   7.030146   5.702471   6.398495
    21  H    1.040588   2.154140   3.430453   5.208376   6.060521
    22  H    1.039332   2.257831   3.086016   4.699836   5.230039
    23  H    2.158639   1.007176   2.089149   3.703552   5.005458
    24  H    4.401579   4.241239   3.324608   3.083223   2.054876
    25  H    6.046418   5.630380   4.471923   3.502621   1.921791
    26  H    6.617247   5.463032   4.104448   2.322359   1.970641
    27  H    7.662171   7.004697   5.710095   4.285587   2.793961
    28  H   10.064960   9.086978   7.719237   5.984800   4.996947
    29  H    4.221680   2.663274   1.928629   1.952035   3.555154
    30  H    2.961801   2.546697   1.679477   2.162019   2.207340
    31  H    9.192887   7.759560   6.574736   4.974001   5.268726
    32  H   10.072259   8.511769   7.623942   6.437985   7.263644
    33  H    9.067084   7.548313   6.545315   5.235731   5.934648
                    6          7          8          9         10
     6  N    0.000000
     7  C    2.256228   0.000000
     8  C    2.805030   1.331233   0.000000
     9  N    3.912849   1.948160   1.239603   0.000000
    10  C    5.162587   3.245609   2.415495   1.302915   0.000000
    11  C    5.865371   3.705303   3.294701   2.058797   1.330965
    12  C    5.394333   3.151767   3.164322   2.194902   2.296189
    13  N    4.775130   2.692302   3.402814   2.824880   3.472182
    14  C    4.115385   2.592049   3.752458   3.629940   4.583096
    15  N    3.658847   3.118202   4.445775   4.724461   5.855260
    16  N    2.470394   3.214617   4.405849   5.152022   6.434463
    17  C    6.708501   4.463786   4.279947   3.131158   2.602482
    18  N    7.235454   4.996665   5.095206   3.972846   3.600736
    19  O    8.221033   6.020234   6.277980   5.217749   4.921575
    20  N    7.664653   5.608683   6.160902   5.265604   5.300494
    21  H    6.113936   7.339916   8.506873   9.245238  10.497360
    22  H    5.081977   6.538603   7.615706   8.483972   9.775501
    23  H    5.537607   6.069719   7.362538   7.859182   9.039083
    24  H    1.002095   3.206046   3.801024   4.914169   6.163615
    25  H    0.998683   2.295139   2.325474   3.539296   4.700739
    26  H    3.105360   0.982322   1.939744   1.926350   3.079705
    27  H    2.641867   2.095815   1.052714   2.137125   3.067154
    28  H    5.411575   3.693195   2.621252   1.853713   1.063593
    29  H    4.606600   4.148827   5.469577   5.667908   6.735600
    30  H    2.155506   3.565279   4.596832   5.470844   6.749625
    31  H    6.447200   4.252807   4.578152   3.584771   3.559406
    32  H    8.547238   6.546985   7.147415   6.265830   6.281338
    33  H    7.196936   5.176268   5.800654   5.017921   5.212887
                   11         12         13         14         15
    11  C    0.000000
    12  C    1.550312   0.000000
    13  N    2.863247   1.742905   0.000000
    14  C    4.226912   3.203330   1.529945   0.000000
    15  N    5.721555   4.743814   3.156167   1.645838   0.000000
    16  N    6.676853   5.777219   4.528592   3.254199   1.956199
    17  C    1.401380   1.409346   2.845964   4.372065   5.984557
    18  N    2.282037   2.157160   2.795472   4.213101   5.853776
    19  O    3.607682   3.239900   3.514428   4.750998   6.334152
    20  N    4.092466   3.434554   2.945120   3.814290   5.268963
    21  H   10.648423   9.757732   8.251796   6.747450   5.102221
    22  H   10.059460   9.140701   7.800885   6.387637   4.792389
    23  H    8.963687   7.999347   6.369296   4.843156   3.265929
    24  H    6.853604   6.331783   5.592006   4.746363   3.963366
    25  H    5.583705   5.273244   4.980200   4.611990   4.444899
    26  H    3.185265   2.503663   1.756660   1.829759   2.801494
    27  H    4.150730   4.156915   4.443377   4.666295   5.127948
    28  H    2.136029   2.871441   4.226089   5.323997   6.524343
    29  H    6.470792   5.471199   3.779570   2.275883   1.049943
    30  H    7.147617   6.443347   5.282154   4.062088   2.807492
    31  H    2.382091   1.812953   1.841508   3.193942   4.829411
    32  H    5.047753   4.404134   3.873080   4.574210   5.900805
    33  H    4.102676   3.086437   2.496913   3.337151   4.774938
                   16         17         18         19         20
    16  N    0.000000
    17  C    7.145710   0.000000
    18  N    7.312278   1.356631   0.000000
    19  O    7.965334   2.517516   1.330759   0.000000
    20  N    7.051236   3.282115   2.094119   1.455353   0.000000
    21  H    4.202121  11.055089  10.942839  11.343891  10.135831
    22  H    3.389352  10.504367  10.579421  11.093424  10.011913
    23  H    3.216271   9.214490   8.948059   9.225866   7.957293
    24  H    2.364187   7.667164   8.147041   9.081475   8.436585
    25  H    3.416400   6.518738   7.205420   8.287523   7.899965
    26  H    3.494308   3.804386   4.154694   5.120359   4.643797
    27  H    4.714629   5.201578   6.089435   7.298038   7.211973
    28  H    6.889580   3.124097   4.322431   5.604024   6.102628
    29  H    2.606409   6.616934   6.299139   6.593955   5.372177
    30  H    1.130393   7.791800   8.001488   8.748443   7.863774
    31  H    6.342908   1.797534   1.035749   1.800418   1.743970
    32  H    7.751472   4.160369   2.927156   1.921136   1.000623
    33  H    6.483422   3.226999   2.364212   1.931979   1.025919
                   21         22         23         24         25
    21  H    0.000000
    22  H    1.587105   0.000000
    23  H    2.288798   2.876542   0.000000
    24  H    5.440956   4.319895   5.212842   0.000000
    25  H    7.085436   5.999988   6.526895   1.745208   0.000000
    26  H    7.513249   6.874486   5.981543   3.993697   3.258058
    27  H    8.686105   7.685475   7.797114   3.554969   1.846869
    28  H   11.031874  10.183230   9.682672   6.397410   4.798460
    29  H    4.764836   4.756395   2.652333   4.790452   5.441954
    30  H    3.985959   3.128973   3.508402   1.716434   3.148601
    31  H    9.913419   9.574884   7.912377   7.318290   6.523079
    32  H   10.571721  10.553422   8.334242   9.279642   8.830862
    33  H    9.656797   9.436973   7.505087   7.944502   7.450789
                   26         27         28         29         30
    26  H    0.000000
    27  H    2.895842   0.000000
    28  H    3.732357   3.012540   0.000000
    29  H    3.746969   6.167588   7.456792   0.000000
    30  H    4.006662   4.703739   7.188458   3.395684   0.000000
    31  H    3.341869   5.615816   4.370124   5.263732   7.056113
    32  H    5.579079   8.199349   7.072426   5.850879   8.594074
    33  H    4.251971   6.848471   5.922174   4.923364   7.379522
                   31         32         33
    31  H    0.000000
    32  H    2.732766   0.000000
    33  H    1.811033   1.641063   0.000000
 Stoichiometry    C10H13N9O
 Framework group  C1[X(C10H13N9O)]
 Deg. of freedom    93
 Full point group                 C1      NOp   1
 Largest Abelian subgroup         C1      NOp   1
 Largest concise Abelian subgroup C1      NOp   1
                         Standard orientation:                         
 ---------------------------------------------------------------------
 Center     Atomic      Atomic             Coordinates (Angstroms)
 Number     Number       Type             X           Y           Z
 ---------------------------------------------------------------------
      1          7           0        6.145166   -0.931941   -0.156444
      2          7           0        4.704626   -1.565451   -0.179474
      3          6           0        3.523388   -0.876174   -0.138858
      4          6           0        1.846462   -0.262766   -0.159505
      5          6           0        1.597807    1.318418   -0.020378
      6          7           0        2.319829    2.402581    0.025390
      7          6           0        0.253021    1.501207    0.105365
      8          6           0       -0.476852    2.613988    0.070946
      9          7           0       -1.575522    2.103839   -0.192280
     10          6           0       -2.818790    2.376408   -0.470812
     11          6           0       -3.397004    1.177897   -0.444227
     12          6           0       -2.641840    0.379954    0.649611
     13          7           0       -1.322906   -0.678257    0.227332
     14          6           0        0.138994   -1.087436    0.037197
     15          7           0        1.779591   -1.216136    0.011476
     16          7           0        3.127328    0.116011    0.496969
     17          6           0       -4.016530    0.227809    0.378808
     18          7           0       -4.065561   -0.991765   -0.213375
     19          8           0       -4.473018   -2.227876    0.063983
     20          7           0       -3.208301   -2.902217   -0.188620
     21          1           0        6.854903   -1.691172   -0.208084
     22          1           0        6.459674   -0.462922    0.716091
     23          1           0        4.742027   -2.571033   -0.222019
     24          1           0        3.319947    2.435025    0.079298
     25          1           0        1.765622    3.227266    0.125973
     26          1           0       -0.269384    0.691844   -0.086938
     27          1           0       -0.047248    3.575046    0.067012
     28          1           0       -3.032307    3.186448    0.184531
     29          1           0        2.117153   -2.195940   -0.157096
     30          1           0        3.735064    0.789462   -0.177500
     31          1           0       -3.044598   -1.166049   -0.207395
     32          1           0       -3.491520   -3.861839   -0.175997
     33          1           0       -2.706889   -2.705599    0.684557
 ---------------------------------------------------------------------
 Rotational constants (GHZ):           0.6578013           0.1812344           0.1437482
 Standard basis: 6-31G(2df,p) (6D, 7F)
 There are   685 symmetry adapted cartesian basis functions of A   symmetry.
 There are   625 symmetry adapted basis functions of A   symmetry.
   625 basis functions,   971 primitive gaussians,   685 cartesian basis functions
    72 alpha electrons       72 beta electrons
       nuclear repulsion energy      1523.8187143078 Hartrees.
 NAtoms=   33 NActive=   33 NUniq=   33 SFac= 1.00D+00 NAtFMM=   60 NAOKFM=F Big=F
 Integral buffers will be    131072 words long.
 Raffenetti 2 integral format.
 Two-electron integral symmetry is turned on.
 One-electron integrals computed using PRISM.
 PrsmSu:  requested number of processors reduced to:  12 ShMem   1 Linda.
 NBasis=   625 RedAO= T EigKep=  8.89D-05  NBF=   625
 NBsUse=   625 1.00D-06 EigRej= -1.00D+00 NBFU=   625
 ExpMin= 1.61D-01 ExpMax= 5.48D+03 ExpMxC= 8.25D+02 IAcc=3 IRadAn=         5 AccDes= 0.00D+00
 Harris functional with IExCor=  402 and IRadAn=       5 diagonalized for initial guess.
 HarFok:  IExCor=  402 AccDes= 0.00D+00 IRadAn=         5 IDoV= 1 UseB2=F ITyADJ=14
 ICtDFT=  3500011 ScaDFX=  1.000000  1.000000  1.000000  1.000000
 FoFCou: FMM=F IPFlag=           0 FMFlag=      100000 FMFlg1=           0
         NFxFlg=           0 DoJE=T BraDBF=F KetDBF=T FulRan=T
         wScrn=  0.000000 ICntrl=       500 IOpCl=  0 I1Cent=   200000004 NGrid=           0
         NMat0=    1 NMatS0=      1 NMatT0=    0 NMatD0=    1 NMtDS0=    0 NMtDT0=    0
 Petite list used in FoFCou.
 Requested convergence on RMS density matrix=1.00D-08 within 128 cycles.
 Requested convergence on MAX density matrix=1.00D-06.
 Requested convergence on             energy=1.00D-06.
 No special actions if energy rises.
 Integral accuracy reduced to 1.0D-05 until final iterations.
 EnCoef did     3 forward-backward iterations
 Initial convergence to 1.0D-05 achieved.  Increase integral accuracy.
 EnCoef did   100 forward-backward iterations
 SCF Done:  E(RB3LYP) =  -955.186191047     A.U. after   27 cycles
            NFock= 27  Conv=0.95D-08     -V/T= 2.0013

 **********************************************************************

            Population analysis using the SCF density.

 **********************************************************************

 Orbital symmetries:
       Occupied  (A) (A) (A) (A) (A) (A) (A) (A) (A) (A) (A) (A)
                 (A) (A) (A) (A) (A) (A) (A) (A) (A) (A) (A) (A)
                 (A) (A) (A) (A) (A) (A) (A) (A) (A) (A) (A) (A)
                 (A) (A) (A) (A) (A) (A) (A) (A) (A) (A) (A) (A)
                 (A) (A) (A) (A) (A) (A) (A) (A) (A) (A) (A) (A)
                 (A) (A) (A) (A) (A) (A) (A) (A) (A) (A) (A) (A)
       Virtual   (A) (A) (A) (A) (A) (A) (A) (A) (A) (A) (A) (A)
                 (A) (A) (A) (A) (A) (A) (A) (A) (A) (A) (A) (A)
                 (A) (A) (A) (A) (A) (A) (A) (A) (A) (A) (A) (A)
                 (A) (A) (A) (A) (A) (A) (A) (A) (A) (A) (A) (A)
                 (A) (A) (A) (A) (A) (A) (A) (A) (A) (A) (A) (A)
                 (A) (A) (A) (A) (A) (A) (A) (A) (A) (A) (A) (A)
                 (A) (A) (A) (A) (A) (A) (A) (A) (A) (A) (A) (A)
                 (A) (A) (A) (A) (A) (A) (A) (A) (A) (A) (A) (A)
                 (A) (A) (A) (A) (A) (A) (A) (A) (A) (A) (A) (A)
                 (A) (A) (A) (A) (A) (A) (A) (A) (A) (A) (A) (A)
                 (A) (A) (A) (A) (A) (A) (A) (A) (A) (A) (A) (A)
                 (A) (A) (A) (A) (A) (A) (A) (A) (A) (A) (A) (A)
                 (A) (A) (A) (A) (A) (A) (A) (A) (A) (A) (A) (A)
                 (A) (A) (A) (A) (A) (A) (A) (A) (A) (A) (A) (A)
                 (A) (A) (A) (A) (A) (A) (A) (A) (A) (A) (A) (A)
                 (A) (A) (A) (A) (A) (A) (A) (A) (A) (A) (A) (A)
                 (A) (A) (A) (A) (A) (A) (A) (A) (A) (A) (A) (A)
                 (A) (A) (A) (A) (A) (A) (A) (A) (A) (A) (A) (A)
                 (A) (A) (A) (A) (A) (A) (A) (A) (A) (A) (A) (A)
                 (A) (A) (A) (A) (A) (A) (A) (A) (A) (A) (A) (A)
                 (A) (A) (A) (A) (A) (A) (A) (A) (A) (A) (A) (A)
                 (A) (A) (A) (A) (A) (A) (A) (A) (A) (A) (A) (A)
                 (A) (A) (A) (A) (A) (A) (A) (A) (A) (A) (A) (A)
                 (A) (A) (A) (A) (A) (A) (A) (A) (A) (A) (A) (A)
                 (A) (A) (A) (A) (A) (A) (A) (A) (A) (A) (A) (A)
                 (A) (A) (A) (A) (A) (A) (A) (A) (A) (A) (A) (A)
                 (A) (A) (A) (A) (A) (A) (A) (A) (A) (A) (A) (A)
                 (A) (A) (A) (A) (A) (A) (A) (A) (A) (A) (A) (A)
                 (A) (A) (A) (A) (A) (A) (A) (A) (A) (A) (A) (A)
                 (A) (A) (A) (A) (A) (A) (A) (A) (A) (A) (A) (A)
                 (A) (A) (A) (A) (A) (A) (A) (A) (A) (A) (A) (A)
                 (A) (A) (A) (A) (A) (A) (A) (A) (A) (A) (A) (A)
                 (A) (A) (A) (A) (A) (A) (A) (A) (A) (A) (A) (A)
                 (A) (A) (A) (A) (A) (A) (A) (A) (A) (A) (A) (A)
                 (A) (A) (A) (A) (A) (A) (A) (A) (A) (A) (A) (A)
                 (A) (A) (A) (A) (A) (A) (A) (A) (A) (A) (A) (A)
                 (A) (A) (A) (A) (A) (A) (A) (A) (A) (A) (A) (A)
                 (A) (A) (A) (A) (A) (A) (A) (A) (A) (A) (A) (A)
                 (A) (A) (A) (A) (A) (A) (A) (A) (A) (A) (A) (A)
                 (A) (A) (A) (A) (A) (A) (A) (A) (A) (A) (A) (A)
                 (A) (A) (A) (A) (A) (A) (A) (A) (A) (A) (A) (A)
                 (A) (A) (A) (A) (A) (A) (A) (A) (A) (A) (A) (A)
                 (A) (A) (A) (A) (A) (A) (A) (A) (A) (A) (A) (A)
                 (A) (A) (A) (A) (A) (A) (A) (A) (A) (A) (A) (A)
                 (A) (A) (A) (A) (A) (A) (A) (A) (A) (A) (A) (A)
                 (A) (A) (A) (A) (A) (A) (A) (A) (A) (A) (A) (A)
                 (A)
 The electronic state is 1-A.
 Alpha  occ. eigenvalues --  -19.18874 -14.41198 -14.40028 -14.37189 -14.36526
 Alpha  occ. eigenvalues --  -14.36104 -14.34816 -14.34654 -14.34449 -14.28069
 Alpha  occ. eigenvalues --  -10.28047 -10.25436 -10.23084 -10.22340 -10.20762
 Alpha  occ. eigenvalues --  -10.20064 -10.19347 -10.18243 -10.17577 -10.11209
 Alpha  occ. eigenvalues --   -1.16713  -1.12526  -1.00471  -0.96065  -0.95365
 Alpha  occ. eigenvalues --   -0.93875  -0.92227  -0.84370  -0.82569  -0.80355
 Alpha  occ. eigenvalues --   -0.76952  -0.74056  -0.71597  -0.68274  -0.67089
 Alpha  occ. eigenvalues --   -0.64734  -0.59910  -0.57968  -0.57554  -0.56574
 Alpha  occ. eigenvalues --   -0.55666  -0.54008  -0.52290  -0.51490  -0.50989
 Alpha  occ. eigenvalues --   -0.50282  -0.48543  -0.47666  -0.47230  -0.46156
 Alpha  occ. eigenvalues --   -0.44658  -0.41506  -0.41047  -0.39398  -0.38986
 Alpha  occ. eigenvalues --   -0.38278  -0.36267  -0.35086  -0.34337  -0.30580
 Alpha  occ. eigenvalues --   -0.28825  -0.27951  -0.27862  -0.25637  -0.24977
 Alpha  occ. eigenvalues --   -0.22942  -0.20365  -0.19365  -0.17847  -0.17628
 Alpha  occ. eigenvalues --   -0.13049  -0.12294
 Alpha virt. eigenvalues --   -0.07348  -0.05349  -0.04754  -0.02903  -0.01781
 Alpha virt. eigenvalues --   -0.00332   0.01677   0.01938   0.05289   0.05740
 Alpha virt. eigenvalues --    0.06451   0.07895   0.08439   0.08930   0.10773
 Alpha virt. eigenvalues --    0.12275   0.12900   0.14214   0.14540   0.15150
 Alpha virt. eigenvalues --    0.16144   0.16929   0.18047   0.20508   0.22141
 Alpha virt. eigenvalues --    0.23514   0.28316   0.28542   0.29825   0.31372
 Alpha virt. eigenvalues --    0.31568   0.32559   0.33160   0.34132   0.35507
 Alpha virt. eigenvalues --    0.35995   0.36748   0.37562   0.38091   0.38859
 Alpha virt. eigenvalues --    0.41350   0.42923   0.44620   0.45534   0.46154
 Alpha virt. eigenvalues --    0.46804   0.48250   0.48538   0.49611   0.50459
 Alpha virt. eigenvalues --    0.50932   0.51669   0.51914   0.52171   0.53581
 Alpha virt. eigenvalues --    0.54085   0.55152   0.55652   0.57246   0.57491
 Alpha virt. eigenvalues --    0.57888   0.58784   0.60192   0.60539   0.61896
 Alpha virt. eigenvalues --    0.62176   0.62367   0.62596   0.63735   0.64152
 Alpha virt. eigenvalues --    0.64354   0.64777   0.65555   0.65951   0.66866
 Alpha virt. eigenvalues --    0.67393   0.68608   0.69415   0.69779   0.70731
 Alpha virt. eigenvalues --    0.71197   0.71634   0.72273   0.73231   0.74063
 Alpha virt. eigenvalues --    0.75326   0.75331   0.76100   0.76408   0.77362
 Alpha virt. eigenvalues --    0.78271   0.78625   0.78872   0.80525   0.80692
 Alpha virt. eigenvalues --    0.80865   0.81744   0.82588   0.82945   0.83086
 Alpha virt. eigenvalues --    0.83817   0.84338   0.85597   0.86197   0.87151
 Alpha virt. eigenvalues --    0.88129   0.88767   0.89781   0.91563   0.92522
 Alpha virt. eigenvalues --    0.92727   0.92931   0.93277   0.94167   0.94674
 Alpha virt. eigenvalues --    0.96390   0.97871   0.98719   0.99560   1.00002
 Alpha virt. eigenvalues --    1.00739   1.01391   1.02355   1.03775   1.04551
 Alpha virt. eigenvalues --    1.05405   1.06754   1.07398   1.08504   1.09435
 Alpha virt. eigenvalues --    1.11175   1.11792   1.13564   1.14673   1.15041
 Alpha virt. eigenvalues --    1.15221   1.17191   1.18593   1.20362   1.21392
 Alpha virt. eigenvalues --    1.21486   1.23887   1.24600   1.25239   1.26193
 Alpha virt. eigenvalues --    1.27523   1.27739   1.28736   1.30157   1.31110
 Alpha virt. eigenvalues --    1.31309   1.31982   1.33554   1.34029   1.35453
 Alpha virt. eigenvalues --    1.36352   1.36825   1.37129   1.38805   1.40456
 Alpha virt. eigenvalues --    1.41469   1.42902   1.43551   1.44509   1.45129
 Alpha virt. eigenvalues --    1.46199   1.46849   1.48848   1.49012   1.50691
 Alpha virt. eigenvalues --    1.52575   1.53665   1.54288   1.55450   1.56341
 Alpha virt. eigenvalues --    1.56681   1.57617   1.57742   1.59279   1.59740
 Alpha virt. eigenvalues --    1.60219   1.61529   1.62150   1.62974   1.64159
 Alpha virt. eigenvalues --    1.65270   1.66012   1.67550   1.69048   1.70137
 Alpha virt. eigenvalues --    1.70960   1.71195   1.71821   1.74016   1.75475
 Alpha virt. eigenvalues --    1.76898   1.78339   1.78572   1.79875   1.80577
 Alpha virt. eigenvalues --    1.82336   1.83654   1.84445   1.86175   1.87089
 Alpha virt. eigenvalues --    1.88489   1.88908   1.91466   1.92669   1.94051
 Alpha virt. eigenvalues --    1.95704   1.96465   1.98421   1.99954   2.02801
 Alpha virt. eigenvalues --    2.03122   2.05784   2.07763   2.09155   2.10836
 Alpha virt. eigenvalues --    2.12767   2.15637   2.17340   2.18552   2.19666
 Alpha virt. eigenvalues --    2.21033   2.22009   2.23284   2.25159   2.26279
 Alpha virt. eigenvalues --    2.28310   2.29649   2.32836   2.34757   2.35336
 Alpha virt. eigenvalues --    2.36232   2.38831   2.41378   2.42663   2.45198
 Alpha virt. eigenvalues --    2.47085   2.47860   2.49998   2.51437   2.53841
 Alpha virt. eigenvalues --    2.54248   2.56258   2.58863   2.60186   2.61372
 Alpha virt. eigenvalues --    2.62938   2.65366   2.65712   2.66789   2.68448
 Alpha virt. eigenvalues --    2.70023   2.72314   2.73269   2.75138   2.76066
 Alpha virt. eigenvalues --    2.77660   2.78568   2.78819   2.81634   2.83022
 Alpha virt. eigenvalues --    2.84779   2.85124   2.85566   2.87323   2.87425
 Alpha virt. eigenvalues --    2.88202   2.88773   2.90087   2.91481   2.92609
 Alpha virt. eigenvalues --    2.94336   2.94893   2.95692   2.96594   2.99404
 Alpha virt. eigenvalues --    3.00452   3.00995   3.01765   3.03744   3.04052
 Alpha virt. eigenvalues --    3.05904   3.06584   3.07193   3.08068   3.09425
 Alpha virt. eigenvalues --    3.10090   3.12029   3.13359   3.14224   3.15486
 Alpha virt. eigenvalues --    3.15891   3.17378   3.18841   3.19577   3.20647
 Alpha virt. eigenvalues --    3.22790   3.24029   3.24782   3.27163   3.28372
 Alpha virt. eigenvalues --    3.29158   3.29927   3.30643   3.33657   3.36391
 Alpha virt. eigenvalues --    3.36710   3.38818   3.39957   3.41460   3.41617
 Alpha virt. eigenvalues --    3.43305   3.43887   3.45557   3.46962   3.48107
 Alpha virt. eigenvalues --    3.48308   3.51269   3.52268   3.53550   3.54035
 Alpha virt. eigenvalues --    3.54993   3.56941   3.58575   3.59479   3.60945
 Alpha virt. eigenvalues --    3.62615   3.62957   3.65208   3.66772   3.69000
 Alpha virt. eigenvalues --    3.71161   3.71626   3.72722   3.74016   3.74348
 Alpha virt. eigenvalues --    3.74757   3.77478   3.78080   3.79475   3.80776
 Alpha virt. eigenvalues --    3.82057   3.83366   3.84897   3.86361   3.87483
 Alpha virt. eigenvalues --    3.89264   3.90333   3.91434   3.92574   3.92806
 Alpha virt. eigenvalues --    3.94285   3.94710   3.96191   3.97955   3.98455
 Alpha virt. eigenvalues --    3.99196   4.00123   4.00526   4.01127   4.02701
 Alpha virt. eigenvalues --    4.04130   4.05588   4.05868   4.06433   4.08374
 Alpha virt. eigenvalues --    4.09491   4.10539   4.11785   4.12495   4.13395
 Alpha virt. eigenvalues --    4.13657   4.13834   4.15009   4.15712   4.16153
 Alpha virt. eigenvalues --    4.16945   4.18402   4.19640   4.20653   4.21669
 Alpha virt. eigenvalues --    4.22542   4.24097   4.24992   4.25658   4.26491
 Alpha virt. eigenvalues --    4.27081   4.27893   4.29000   4.29574   4.30644
 Alpha virt. eigenvalues --    4.31187   4.33062   4.33517   4.34743   4.35089
 Alpha virt. eigenvalues --    4.35552   4.36706   4.36911   4.37912   4.38260
 Alpha virt. eigenvalues --    4.39988   4.40764   4.41421   4.41790   4.43437
 Alpha virt. eigenvalues --    4.44208   4.46039   4.46262   4.47435   4.48974
 Alpha virt. eigenvalues --    4.49563   4.51072   4.51458   4.52068   4.52721
 Alpha virt. eigenvalues --    4.53887   4.54803   4.55511   4.57109   4.57840
 Alpha virt. eigenvalues --    4.58862   4.60168   4.61172   4.61673   4.63567
 Alpha virt. eigenvalues --    4.64666   4.65570   4.66577   4.68064   4.68683
 Alpha virt. eigenvalues --    4.69918   4.70617   4.71267   4.71986   4.73487
 Alpha virt. eigenvalues --    4.73926   4.74992   4.75562   4.77269   4.78074
 Alpha virt. eigenvalues --    4.79654   4.79971   4.80612   4.81695   4.82780
 Alpha virt. eigenvalues --    4.83976   4.86019   4.86735   4.87249   4.89403
 Alpha virt. eigenvalues --    4.89836   4.90205   4.90466   4.91958   4.93974
 Alpha virt. eigenvalues --    4.94354   4.95059   4.96487   4.97422   4.99129
 Alpha virt. eigenvalues --    4.99825   5.01501   5.02142   5.03336   5.04790
 Alpha virt. eigenvalues --    5.06384   5.07154   5.08954   5.12393   5.14279
 Alpha virt. eigenvalues --    5.15390   5.17195   5.19930   5.22716   5.24166
 Alpha virt. eigenvalues --    5.24641   5.26065   5.29298   5.30883   5.32314
 Alpha virt. eigenvalues --    5.34502   5.37007   5.38662   5.39539   5.41874
 Alpha virt. eigenvalues --    5.42211   5.44159   5.45459   5.48745   5.49242
 Alpha virt. eigenvalues --    5.52047   5.56130   5.56546   5.59077   5.61015
 Alpha virt. eigenvalues --    5.63914   5.67795   5.70240   5.77271   5.82128
 Alpha virt. eigenvalues --    5.82638   5.83296   5.86117   5.93358   5.99796
 Alpha virt. eigenvalues --    6.02825   6.04969   6.07734   6.13502   6.16664
 Alpha virt. eigenvalues --    6.21637   6.28178   6.33902   6.34526   6.44912
 Alpha virt. eigenvalues --    6.77923   6.95125   7.07678   7.13721   7.46024
 Alpha virt. eigenvalues --    8.72071  10.05281  10.29563  10.39588  10.84300
 Alpha virt. eigenvalues --   10.95641  11.09618  11.22282  11.27481  11.29574
 Alpha virt. eigenvalues --   11.32708  11.36581  11.38777  11.39065  11.40880
 Alpha virt. eigenvalues --   11.42394  11.51080  11.86188  12.03678  12.30233
 Alpha virt. eigenvalues --   13.32292  13.74154  15.72067  16.51158  17.12756
 Alpha virt. eigenvalues --   18.85398  20.23747  31.59814
          Condensed to atoms (all electrons):
               1          2          3          4          5          6
     1  N    6.862008   0.103057  -0.011585   0.000226  -0.000023  -0.000006
     2  N    0.103057   6.789299   0.206741  -0.014042  -0.000849   0.000015
     3  C   -0.011585   0.206741   5.615693  -0.002324  -0.011377   0.002099
     4  C    0.000226  -0.014042  -0.002324   5.223176   0.479774  -0.048883
     5  C   -0.000023  -0.000849  -0.011377   0.479774   4.914435   0.347634
     6  N   -0.000006   0.000015   0.002099  -0.048883   0.347634   6.666026
     7  C   -0.000000   0.000009   0.002308  -0.030701   0.394466  -0.008050
     8  C    0.000000  -0.000000  -0.000085   0.005240  -0.000991  -0.020379
     9  N    0.000000  -0.000000   0.000001  -0.000441   0.002626   0.000186
    10  C   -0.000000   0.000000   0.000000   0.000075  -0.001097  -0.000003
    11  C   -0.000000  -0.000000   0.000000  -0.000038  -0.000142  -0.000002
    12  C   -0.000000  -0.000000  -0.000001  -0.000022   0.000730  -0.000016
    13  N   -0.000000   0.000001  -0.000284  -0.007957   0.000588   0.000001
    14  C    0.000004  -0.000172   0.019071   0.006843  -0.010957   0.001052
    15  N   -0.000133  -0.008217  -0.121091   0.418237  -0.022714  -0.000073
    16  N    0.003036  -0.034518   0.379527   0.008030  -0.186876  -0.000456
    17  C    0.000000   0.000000  -0.000000   0.000018  -0.000007   0.000000
    18  N   -0.000000  -0.000000  -0.000000  -0.000004   0.000002  -0.000000
    19  O    0.000000   0.000000  -0.000000   0.000000   0.000000   0.000000
    20  N   -0.000000   0.000000  -0.000000   0.000005  -0.000000  -0.000000
    21  H    0.297145  -0.010047  -0.000174  -0.000008   0.000001   0.000000
    22  H    0.290643  -0.018849  -0.000298   0.000018   0.000019   0.000001
    23  H   -0.032750   0.361060  -0.041097  -0.002191   0.000001   0.000001
    24  H    0.000005  -0.000016  -0.000883  -0.002362  -0.051289   0.350935
    25  H    0.000000  -0.000002  -0.000153   0.002931  -0.027944   0.355936
    26  H   -0.000000   0.000003   0.000339  -0.032574  -0.050702   0.006659
    27  H    0.000000   0.000000   0.000002  -0.000382  -0.010609  -0.002878
    28  H    0.000000  -0.000000  -0.000000  -0.000002   0.000068  -0.000002
    29  H   -0.000030   0.000673  -0.023076  -0.115991  -0.000637   0.000030
    30  H    0.012424  -0.029707  -0.052974  -0.013497   0.008863  -0.012463
    31  H    0.000000  -0.000000   0.000000   0.000012  -0.000013   0.000000
    32  H   -0.000000  -0.000000  -0.000000  -0.000000   0.000000  -0.000000
    33  H   -0.000000  -0.000000  -0.000000   0.000002   0.000001  -0.000000
               7          8          9         10         11         12
     1  N   -0.000000   0.000000   0.000000  -0.000000  -0.000000  -0.000000
     2  N    0.000009  -0.000000  -0.000000   0.000000  -0.000000  -0.000000
     3  C    0.002308  -0.000085   0.000001   0.000000   0.000000  -0.000001
     4  C   -0.030701   0.005240  -0.000441   0.000075  -0.000038  -0.000022
     5  C    0.394466  -0.000991   0.002626  -0.001097  -0.000142   0.000730
     6  N   -0.008050  -0.020379   0.000186  -0.000003  -0.000002  -0.000016
     7  C    5.242097   0.317808  -0.126806   0.028889   0.005537  -0.004286
     8  C    0.317808   5.173545   0.653888  -0.162917   0.004724   0.016167
     9  N   -0.126806   0.653888   6.265994   0.455811  -0.133787  -0.051525
    10  C    0.028889  -0.162917   0.455811   5.330639   0.426908  -0.109775
    11  C    0.005537   0.004724  -0.133787   0.426908   4.902497   0.249533
    12  C   -0.004286   0.016167  -0.051525  -0.109775   0.249533   5.493832
    13  N   -0.026836  -0.007098  -0.011311  -0.002241   0.004856   0.159556
    14  C   -0.012357   0.000515  -0.002113   0.000459  -0.000597  -0.003821
    15  N   -0.006205   0.000351   0.000141  -0.000000  -0.000003  -0.000458
    16  N    0.006326  -0.000200   0.000005   0.000000  -0.000000  -0.000011
    17  C    0.000316  -0.001037   0.007950  -0.004929   0.383381   0.340422
    18  N    0.000027   0.000007  -0.000081  -0.000511  -0.024452  -0.061639
    19  O   -0.000000   0.000000   0.000000  -0.000074  -0.001281   0.004357
    20  N   -0.000000  -0.000000  -0.000007   0.000002   0.000186  -0.003221
    21  H    0.000000  -0.000000  -0.000000   0.000000  -0.000000   0.000000
    22  H   -0.000000  -0.000000  -0.000000   0.000000   0.000000   0.000000
    23  H   -0.000000   0.000000   0.000000   0.000000  -0.000000   0.000000
    24  H    0.007044  -0.000436  -0.000000  -0.000001  -0.000000  -0.000000
    25  H   -0.027374   0.005835  -0.000366  -0.000026  -0.000004   0.000010
    26  H    0.311238  -0.038755   0.015879  -0.003902  -0.002544   0.001585
    27  H   -0.090517   0.303821  -0.040479  -0.012565  -0.000932   0.000025
    28  H   -0.004276   0.007538  -0.026806   0.283318  -0.021284   0.007026
    29  H    0.000030   0.000029   0.000003   0.000000  -0.000001  -0.000002
    30  H   -0.000656   0.000177  -0.000002  -0.000000  -0.000000   0.000001
    31  H   -0.000273   0.000081   0.000224  -0.000490   0.009910  -0.019217
    32  H    0.000000   0.000000   0.000000  -0.000000   0.000007   0.000002
    33  H    0.000026   0.000001   0.000010   0.000015  -0.000268   0.004045
              13         14         15         16         17         18
     1  N   -0.000000   0.000004  -0.000133   0.003036   0.000000  -0.000000
     2  N    0.000001  -0.000172  -0.008217  -0.034518   0.000000  -0.000000
     3  C   -0.000284   0.019071  -0.121091   0.379527  -0.000000  -0.000000
     4  C   -0.007957   0.006843   0.418237   0.008030   0.000018  -0.000004
     5  C    0.000588  -0.010957  -0.022714  -0.186876  -0.000007   0.000002
     6  N    0.000001   0.001052  -0.000073  -0.000456   0.000000  -0.000000
     7  C   -0.026836  -0.012357  -0.006205   0.006326   0.000316   0.000027
     8  C   -0.007098   0.000515   0.000351  -0.000200  -0.001037   0.000007
     9  N   -0.011311  -0.002113   0.000141   0.000005   0.007950  -0.000081
    10  C   -0.002241   0.000459  -0.000000   0.000000  -0.004929  -0.000511
    11  C    0.004856  -0.000597  -0.000003  -0.000000   0.383381  -0.024452
    12  C    0.159556  -0.003821  -0.000458  -0.000011   0.340422  -0.061639
    13  N    6.888837   0.366490   0.005135   0.000311  -0.031480  -0.027857
    14  C    0.366490   5.900727   0.013224   0.002780   0.001523  -0.000098
    15  N    0.005135   0.013224   6.359226  -0.083792   0.000002  -0.000002
    16  N    0.000311   0.002780  -0.083792   6.886110   0.000000  -0.000000
    17  C   -0.031480   0.001523   0.000002   0.000000   5.356415   0.234611
    18  N   -0.027857  -0.000098  -0.000002  -0.000000   0.234611   6.476492
    19  O    0.001177   0.000014  -0.000000   0.000000  -0.000762   0.162147
    20  N   -0.012025   0.000753   0.000004   0.000000   0.006804  -0.108967
    21  H    0.000000  -0.000000   0.000012  -0.000104  -0.000000   0.000000
    22  H    0.000000  -0.000000   0.000047   0.001648  -0.000000   0.000000
    23  H    0.000000  -0.000057   0.000803   0.002983   0.000000  -0.000000
    24  H    0.000003   0.000061  -0.000221   0.006643  -0.000000   0.000000
    25  H   -0.000028  -0.000062   0.000073   0.000084   0.000000   0.000000
    26  H   -0.037025  -0.039543   0.002230   0.001610  -0.001975  -0.000137
    27  H   -0.000337  -0.000247   0.000008   0.000013   0.000022  -0.000000
    28  H   -0.000131  -0.000015   0.000000  -0.000000  -0.001650   0.000026
    29  H    0.000920  -0.049611   0.396472   0.010520   0.000001  -0.000000
    30  H   -0.000022   0.000645   0.005978   0.250653  -0.000000  -0.000000
    31  H    0.046392  -0.000492   0.000036  -0.000000  -0.142012   0.386216
    32  H    0.000186   0.000039  -0.000000  -0.000000  -0.000865   0.006953
    33  H    0.010663   0.003547  -0.000040  -0.000000   0.001025   0.004534
              19         20         21         22         23         24
     1  N    0.000000  -0.000000   0.297145   0.290643  -0.032750   0.000005
     2  N    0.000000   0.000000  -0.010047  -0.018849   0.361060  -0.000016
     3  C   -0.000000  -0.000000  -0.000174  -0.000298  -0.041097  -0.000883
     4  C    0.000000   0.000005  -0.000008   0.000018  -0.002191  -0.002362
     5  C    0.000000  -0.000000   0.000001   0.000019   0.000001  -0.051289
     6  N    0.000000  -0.000000   0.000000   0.000001   0.000001   0.350935
     7  C   -0.000000  -0.000000   0.000000  -0.000000  -0.000000   0.007044
     8  C    0.000000  -0.000000  -0.000000  -0.000000   0.000000  -0.000436
     9  N    0.000000  -0.000007  -0.000000  -0.000000   0.000000  -0.000000
    10  C   -0.000074   0.000002   0.000000   0.000000   0.000000  -0.000001
    11  C   -0.001281   0.000186  -0.000000   0.000000  -0.000000  -0.000000
    12  C    0.004357  -0.003221   0.000000   0.000000   0.000000  -0.000000
    13  N    0.001177  -0.012025   0.000000   0.000000   0.000000   0.000003
    14  C    0.000014   0.000753  -0.000000  -0.000000  -0.000057   0.000061
    15  N   -0.000000   0.000004   0.000012   0.000047   0.000803  -0.000221
    16  N    0.000000   0.000000  -0.000104   0.001648   0.002983   0.006643
    17  C   -0.000762   0.006804  -0.000000  -0.000000   0.000000  -0.000000
    18  N    0.162147  -0.108967   0.000000   0.000000  -0.000000   0.000000
    19  O    8.031372   0.212399  -0.000000  -0.000000   0.000000  -0.000000
    20  N    0.212399   6.645546   0.000000   0.000000   0.000000   0.000000
    21  H   -0.000000   0.000000   0.505064  -0.029776  -0.003125  -0.000001
    22  H   -0.000000   0.000000  -0.029776   0.512355   0.001968  -0.000022
    23  H    0.000000   0.000000  -0.003125   0.001968   0.435739  -0.000004
    24  H   -0.000000   0.000000  -0.000001  -0.000022  -0.000004   0.472930
    25  H    0.000000  -0.000000   0.000000   0.000000   0.000000  -0.026978
    26  H    0.000002  -0.000030   0.000000   0.000000  -0.000000  -0.000138
    27  H    0.000000  -0.000000  -0.000000  -0.000000   0.000000   0.000072
    28  H    0.000001  -0.000000  -0.000000  -0.000000   0.000000   0.000000
    29  H    0.000000   0.000003  -0.000006  -0.000008   0.004042  -0.000019
    30  H    0.000000  -0.000000  -0.000320  -0.001666   0.000408   0.000334
    31  H   -0.058808   0.018230  -0.000000  -0.000000  -0.000000   0.000000
    32  H   -0.023425   0.303859   0.000000   0.000000  -0.000000  -0.000000
    33  H   -0.037118   0.305264   0.000000   0.000000   0.000000  -0.000000
              25         26         27         28         29         30
     1  N    0.000000  -0.000000   0.000000   0.000000  -0.000030   0.012424
     2  N   -0.000002   0.000003   0.000000  -0.000000   0.000673  -0.029707
     3  C   -0.000153   0.000339   0.000002  -0.000000  -0.023076  -0.052974
     4  C    0.002931  -0.032574  -0.000382  -0.000002  -0.115991  -0.013497
     5  C   -0.027944  -0.050702  -0.010609   0.000068  -0.000637   0.008863
     6  N    0.355936   0.006659  -0.002878  -0.000002   0.000030  -0.012463
     7  C   -0.027374   0.311238  -0.090517  -0.004276   0.000030  -0.000656
     8  C    0.005835  -0.038755   0.303821   0.007538   0.000029   0.000177
     9  N   -0.000366   0.015879  -0.040479  -0.026806   0.000003  -0.000002
    10  C   -0.000026  -0.003902  -0.012565   0.283318   0.000000  -0.000000
    11  C   -0.000004  -0.002544  -0.000932  -0.021284  -0.000001  -0.000000
    12  C    0.000010   0.001585   0.000025   0.007026  -0.000002   0.000001
    13  N   -0.000028  -0.037025  -0.000337  -0.000131   0.000920  -0.000022
    14  C   -0.000062  -0.039543  -0.000247  -0.000015  -0.049611   0.000645
    15  N    0.000073   0.002230   0.000008   0.000000   0.396472   0.005978
    16  N    0.000084   0.001610   0.000013  -0.000000   0.010520   0.250653
    17  C    0.000000  -0.001975   0.000022  -0.001650   0.000001  -0.000000
    18  N    0.000000  -0.000137  -0.000000   0.000026  -0.000000  -0.000000
    19  O    0.000000   0.000002   0.000000   0.000001   0.000000   0.000000
    20  N   -0.000000  -0.000030  -0.000000  -0.000000   0.000003  -0.000000
    21  H    0.000000   0.000000  -0.000000  -0.000000  -0.000006  -0.000320
    22  H    0.000000   0.000000  -0.000000  -0.000000  -0.000008  -0.001666
    23  H    0.000000  -0.000000   0.000000   0.000000   0.004042   0.000408
    24  H   -0.026978  -0.000138   0.000072   0.000000  -0.000019   0.000334
    25  H    0.435037   0.000713   0.016752   0.000014   0.000002   0.001556
    26  H    0.000713   0.656745   0.012351   0.000795  -0.000530  -0.000223
    27  H    0.016752   0.012351   0.760523   0.008092   0.000000  -0.000008
    28  H    0.000014   0.000795   0.008092   0.644310  -0.000000  -0.000000
    29  H    0.000002  -0.000530   0.000000  -0.000000   0.431335   0.000024
    30  H    0.001556  -0.000223  -0.000008  -0.000000   0.000024   0.620281
    31  H   -0.000000   0.001946   0.000001   0.000006  -0.000009   0.000000
    32  H    0.000000   0.000001   0.000000  -0.000000  -0.000001   0.000000
    33  H    0.000000   0.000000   0.000000  -0.000000  -0.000005   0.000000
              31         32         33
     1  N    0.000000  -0.000000  -0.000000
     2  N   -0.000000  -0.000000  -0.000000
     3  C    0.000000  -0.000000  -0.000000
     4  C    0.000012  -0.000000   0.000002
     5  C   -0.000013   0.000000   0.000001
     6  N    0.000000  -0.000000  -0.000000
     7  C   -0.000273   0.000000   0.000026
     8  C    0.000081   0.000000   0.000001
     9  N    0.000224   0.000000   0.000010
    10  C   -0.000490  -0.000000   0.000015
    11  C    0.009910   0.000007  -0.000268
    12  C   -0.019217   0.000002   0.004045
    13  N    0.046392   0.000186   0.010663
    14  C   -0.000492   0.000039   0.003547
    15  N    0.000036  -0.000000  -0.000040
    16  N   -0.000000  -0.000000  -0.000000
    17  C   -0.142012  -0.000865   0.001025
    18  N    0.386216   0.006953   0.004534
    19  O   -0.058808  -0.023425  -0.037118
    20  N    0.018230   0.303859   0.305264
    21  H   -0.000000   0.000000   0.000000
    22  H   -0.000000   0.000000   0.000000
    23  H   -0.000000  -0.000000   0.000000
    24  H    0.000000  -0.000000  -0.000000
    25  H   -0.000000   0.000000   0.000000
    26  H    0.001946   0.000001   0.000000
    27  H    0.000001   0.000000   0.000000
    28  H    0.000006  -0.000000  -0.000000
    29  H   -0.000009  -0.000001  -0.000005
    30  H    0.000000   0.000000   0.000000
    31  H    0.471627   0.001374  -0.014741
    32  H    0.001374   0.485342  -0.020324
    33  H   -0.014741  -0.020324   0.472959
 Mulliken charges:
               1
     1  N   -0.524021
     2  N   -0.344440
     3  C    0.039622
     4  C    0.126832
     5  C    0.227019
     6  N   -0.637366
     7  C    0.022215
     8  C   -0.257831
     9  N   -0.008992
    10  C   -0.227584
    11  C    0.197795
    12  C   -0.023295
    13  N   -0.320483
    14  C   -0.197605
    15  N    0.040968
    16  N   -0.254320
    17  C   -0.147772
    18  N   -0.047267
    19  O   -0.290001
    20  N   -0.368804
    21  H    0.241339
    22  H    0.243919
    23  H    0.272219
    24  H    0.244341
    25  H    0.263993
    26  H    0.195984
    27  H    0.057273
    28  H    0.102974
    29  H    0.345839
    30  H    0.210193
    31  H    0.299999
    32  H    0.246852
    33  H    0.270404
 Sum of Mulliken charges =  -0.00000
 Mulliken charges with hydrogens summed into heavy atoms:
               1
     1  N   -0.038762
     2  N   -0.072221
     3  C    0.039622
     4  C    0.126832
     5  C    0.227019
     6  N   -0.129032
     7  C    0.218199
     8  C   -0.200558
     9  N   -0.008992
    10  C   -0.124610
    11  C    0.197795
    12  C   -0.023295
    13  N   -0.320483
    14  C   -0.197605
    15  N    0.386807
    16  N   -0.044127
    17  C   -0.147772
    18  N    0.252732
    19  O   -0.290001
    20  N    0.148452
 Electronic spatial extent (au):  <R**2>=           7007.8083
 Charge=             -0.0000 electrons
 Dipole moment (field-independent basis, Debye):
    X=             11.1595    Y=             -2.2154    Z=              1.4356  Tot=             11.4675
 Quadrupole moment (field-independent basis, Debye-Ang):
   XX=            -98.9177   YY=            -88.2582   ZZ=           -120.9137
   XY=             -7.5291   XZ=              1.3686   YZ=             -0.7437
 Traceless Quadrupole moment (field-independent basis, Debye-Ang):
   XX=              3.7788   YY=             14.4384   ZZ=            -18.2171
   XY=             -7.5291   XZ=              1.3686   YZ=             -0.7437
 Octapole moment (field-independent basis, Debye-Ang**2):
  XXX=            299.3333  YYY=            -59.7985  ZZZ=              0.6318  XYY=             50.8264
  XXY=            -72.8086  XXZ=             44.8590  XZZ=              5.9048  YZZ=             -9.0974
  YYZ=             11.9942  XYZ=              4.1584
 Hexadecapole moment (field-independent basis, Debye-Ang**3):
 XXXX=          -6065.3984 YYYY=          -1587.9111 ZZZZ=           -172.9749 XXXY=           -378.0548
 XXXZ=            241.6764 YYYX=            100.1349 YYYZ=             25.9455 ZZZX=              9.5499
 ZZZY=             -1.5390 XXYY=          -1134.1467 XXZZ=          -1244.3284 YYZZ=           -376.7606
 XXYZ=             -0.7413 YYXZ=            -32.3407 ZZXY=             20.0745
 N-N= 1.523818714308D+03 E-N=-5.280225174104D+03  KE= 9.539446981666D+02
 PrsmSu:  requested number of processors reduced to:  12 ShMem   1 Linda.
 Calling FoFJK, ICntrl=      2127 FMM=F ISym2X=0 I1Cent= 0 IOpClX= 0 NMat=1 NMatS=1 NMatT=0.
 ***** Axes restored to original set *****
 -------------------------------------------------------------------
 Center     Atomic                   Forces (Hartrees/Bohr)
 Number     Number              X              Y              Z
 -------------------------------------------------------------------
      1        7          -0.008182488    0.007218572    0.010534131
      2        7          -0.029020729   -0.053473677   -0.028987617
      3        6          -0.153721137    0.196290463    0.121633121
      4        6          -0.307681578   -0.834302503   -0.758544496
      5        6           0.162268046    0.064545567   -0.003285984
      6        7          -0.079858587   -0.017483149   -0.020644479
      7        6          -0.138629272    0.014862149    0.016070200
      8        6          -0.021598198   -0.030227032   -0.008804323
      9        7           0.029476942   -0.011253009   -0.052793524
     10        6          -0.039119349   -0.047576451   -0.014920878
     11        6           0.060602715    0.001266695    0.053513841
     12        6          -0.049068547   -0.000855184    0.026008452
     13        7          -0.089487989    0.043498575    0.030980530
     14        6           0.221113608   -0.011006515   -0.002247278
     15        7           0.426140842    0.759330887    0.727323297
     16        7          -0.190756178   -0.074523891   -0.042966856
     17        6           0.022459913   -0.035424693    0.002474644
     18        7          -0.033363314    0.059512924   -0.055776793
     19        8           0.043433189    0.016846763    0.053083691
     20        7           0.012371110    0.001452843    0.017918913
     21        1           0.017399179   -0.002587768   -0.008776461
     22        1           0.024358408    0.001563644    0.000483753
     23        1           0.003782149    0.005785254   -0.013735456
     24        1           0.000824966   -0.012357836   -0.001794631
     25        1          -0.011051120   -0.005814311   -0.004537066
     26        1           0.042514760    0.038175263    0.016282634
     27        1          -0.004567767   -0.034553494   -0.021787778
     28        1           0.035944629   -0.027440475   -0.041059457
     29        1           0.023317967   -0.033444643   -0.016359354
     30        1           0.012254740   -0.027416121    0.036742839
     31        1           0.014203179    0.025142689   -0.032841657
     32        1           0.006311615    0.013952892    0.012180667
     33        1          -0.002671704    0.010295572    0.004633373
 -------------------------------------------------------------------
 Cartesian Forces:  Max     0.834302503 RMS     0.172532912

 GradGradGradGradGradGradGradGradGradGradGradGradGradGradGradGradGradGrad
 Berny optimization.
 FormGI is forming the generalized inverse of G from B-inverse, IUseBI=4.
 Internal  Forces:  Max     1.161164822 RMS     0.107907366
 Search for a local minimum.
 Step number   1 out of a maximum of  157
 All quantities printed in internal units (Hartrees-Bohrs-Radians)
 Mixed Optimization -- RFO/linear search
 Second derivative matrix not updated -- first step.
 ITU=  0
     Eigenvalues ---    0.00230   0.00234   0.00320   0.00563   0.00571
     Eigenvalues ---    0.00665   0.01270   0.02169   0.02174   0.02211
     Eigenvalues ---    0.02259   0.02265   0.02563   0.02799   0.02970
     Eigenvalues ---    0.03005   0.03032   0.03242   0.03574   0.03930
     Eigenvalues ---    0.04058   0.04157   0.04698   0.05387   0.05890
     Eigenvalues ---    0.06111   0.06504   0.07073   0.07155   0.07911
     Eigenvalues ---    0.09552   0.11611   0.11767   0.12318   0.12371
     Eigenvalues ---    0.13404   0.14416   0.14958   0.15169   0.15580
     Eigenvalues ---    0.15649   0.15708   0.16000   0.16000   0.16000
     Eigenvalues ---    0.16000   0.16000   0.16001   0.16427   0.19477
     Eigenvalues ---    0.20966   0.21929   0.21995   0.22213   0.23100
     Eigenvalues ---    0.23197   0.23611   0.24046   0.24317   0.24403
     Eigenvalues ---    0.24990   0.25000   0.25554   0.25718   0.29247
     Eigenvalues ---    0.30517   0.32416   0.37552   0.37816   0.38052
     Eigenvalues ---    0.39503   0.39885   0.41209   0.41252   0.41392
     Eigenvalues ---    0.41917   0.43407   0.46449   0.47322   0.47579
     Eigenvalues ---    0.47921   0.50937   0.51316   0.51548   0.53634
     Eigenvalues ---    0.58169   0.58962   0.59327   0.65486   0.66261
     Eigenvalues ---    0.74833   0.86290   4.05498
 RFO step:  Lambda=-6.50081551D-01 EMin= 2.30000000D-03
 Linear search not attempted -- first point.
 Maximum step size (   0.300) exceeded in Quadratic search.
    -- Step size scaled by   0.472
 Iteration  1 RMS(Cart)=  0.12782408 RMS(Int)=  0.00274748
 Iteration  2 RMS(Cart)=  0.00462225 RMS(Int)=  0.00026509
 Iteration  3 RMS(Cart)=  0.00001600 RMS(Int)=  0.00026501
 Iteration  4 RMS(Cart)=  0.00000001 RMS(Int)=  0.00026501
 Variable       Old X    -DE/DX   Delta X   Delta X   Delta X     New X
                                 (Linear)    (Quad)   (Total)
    R1        2.97416  -0.03418   0.00000  -0.01777  -0.01777   2.95639
    R2        1.96643  -0.01481   0.00000  -0.00657  -0.00657   1.95985
    R3        1.96405  -0.01059   0.00000  -0.00469  -0.00469   1.95936
    R4        2.58560  -0.04454   0.00000  -0.01805  -0.01805   2.56755
    R5        1.90329  -0.00193   0.00000  -0.00082  -0.00082   1.90247
    R6        3.37451   0.18751   0.00000   0.10945   0.10956   3.48407
    R7        2.34933   0.07060   0.00000   0.02349   0.02329   2.37261
    R8        3.03613  -0.00341   0.00000   0.00665   0.00686   3.04299
    R9        1.83471   1.16116   0.00000   0.11643   0.11655   1.95126
   R10        2.81249   0.16359   0.00000   0.07815   0.07819   2.89068
   R11        2.46305   0.09564   0.00000   0.03436   0.03436   2.49740
   R12        2.57563  -0.00144   0.00000   0.00258   0.00285   2.57847
   R13        1.89369  -0.00250   0.00000  -0.00105  -0.00105   1.89264
   R14        1.88724   0.00270   0.00000   0.00113   0.00113   1.88837
   R15        2.51567   0.10002   0.00000   0.04421   0.04448   2.56015
   R16        1.85632   0.05934   0.00000   0.02413   0.02413   1.88045
   R17        2.34251   0.11363   0.00000   0.03519   0.03529   2.37780
   R18        1.98934   0.03559   0.00000   0.01606   0.01606   2.00540
   R19        2.46215   0.05708   0.00000   0.02407   0.02430   2.48645
   R20        2.51516   0.16043   0.00000   0.05657   0.05652   2.57168
   R21        2.00990   0.02675   0.00000   0.01224   0.01224   2.02214
   R22        2.92967   0.04918   0.00000   0.01374   0.01310   2.94277
   R23        2.64822   0.03564   0.00000   0.01477   0.01521   2.66343
   R24        3.29361  -0.00683   0.00000  -0.01162  -0.01194   3.28167
   R25        2.66328   0.01686   0.00000   0.01176   0.01191   2.67519
   R26        2.89118  -0.11539   0.00000  -0.06240  -0.06269   2.82849
   R27        3.11018   0.10020   0.00000   0.05098   0.05073   3.16091
   R28        1.98410  -0.03972   0.00000  -0.01785  -0.01785   1.96625
   R29        2.13613  -0.03469   0.00000  -0.01713  -0.01713   2.11900
   R30        2.56366   0.13141   0.00000   0.05223   0.05223   2.61589
   R31        2.51477   0.11141   0.00000   0.04225   0.04225   2.55702
   R32        1.95728  -0.01278   0.00000  -0.00564  -0.00564   1.95165
   R33        2.75022   0.01172   0.00000   0.00539   0.00539   2.75561
   R34        1.89090   0.01923   0.00000   0.00805   0.00805   1.89896
   R35        1.93871  -0.00141   0.00000  -0.00061  -0.00061   1.93809
    A1        1.90696  -0.01213   0.00000  -0.00722  -0.00726   1.89970
    A2        2.06111  -0.03416   0.00000  -0.02001  -0.02005   2.04106
    A3        1.73607   0.01830   0.00000   0.01038   0.01029   1.74636
    A4        2.19813   0.00431   0.00000   0.00234   0.00234   2.20047
    A5        1.94821   0.00183   0.00000   0.00115   0.00114   1.94935
    A6        2.13683  -0.00613   0.00000  -0.00348  -0.00348   2.13335
    A7        2.33543  -0.02287   0.00000  -0.01118  -0.01114   2.32429
    A8        2.07419  -0.00689   0.00000  -0.00762  -0.00735   2.06684
    A9        1.29255   0.04103   0.00000   0.02043   0.02034   1.31290
   A10        2.79485  -0.03883   0.00000  -0.01250  -0.01256   2.78229
   A11        1.41469   0.00802   0.00000   0.00684   0.00670   1.42140
   A12        1.80442   0.01671   0.00000   0.00617   0.00660   1.81103
   A13        2.39783  -0.00821   0.00000  -0.01627  -0.01661   2.38122
   A14        1.86782  -0.06274   0.00000  -0.00911  -0.00843   1.85939
   A15        2.01726   0.07080   0.00000   0.02531   0.02496   2.04222
   A16        2.19159   0.00549   0.00000   0.00319   0.00319   2.19478
   A17        1.96384   0.00952   0.00000   0.00553   0.00553   1.96938
   A18        2.11963  -0.01514   0.00000  -0.00882  -0.00882   2.11081
   A19        2.27927   0.12073   0.00000   0.05348   0.05306   2.33233
   A20        1.97812  -0.05100   0.00000  -0.02221  -0.02203   1.95609
   A21        1.97370  -0.06013   0.00000  -0.02610  -0.02597   1.94773
   A22        1.71875   0.00075   0.00000   0.01112   0.01159   1.73035
   A23        2.14061   0.02010   0.00000   0.00761   0.00728   2.14789
   A24        2.39884  -0.01561   0.00000  -0.01467  -0.01498   2.38386
   A25        2.50653   0.04687   0.00000   0.03002   0.02985   2.53638
   A26        1.79455   0.12230   0.00000   0.04738   0.04712   1.84167
   A27        1.79176  -0.01118   0.00000   0.00441   0.00432   1.79607
   A28        2.19727  -0.02383   0.00000  -0.00575  -0.00630   2.19097
   A29        1.83999   0.06537   0.00000   0.02408   0.02346   1.86346
   A30        2.52229   0.07491   0.00000   0.03547   0.03557   2.55786
   A31        2.10618   0.05364   0.00000   0.01711   0.01703   2.12321
   A32        2.24726  -0.04202   0.00000  -0.01303  -0.01302   2.23424
   A33        2.72774   0.00974   0.00000  -0.01287  -0.01372   2.71402
   A34        1.56542   0.10203   0.00000   0.07302   0.07282   1.63824
   A35        2.61783  -0.02929   0.00000  -0.02371  -0.02341   2.59442
   A36        1.97791  -0.07761   0.00000  -0.05216  -0.05204   1.92587
   A37        1.56983   0.01011   0.00000   0.00635   0.00644   1.57627
   A38        1.92958   0.01796   0.00000   0.01176   0.01177   1.94136
   A39        1.94882   0.09435   0.00000   0.04110   0.04059   1.98941
   A40        1.78869   0.07253   0.00000   0.04960   0.04948   1.83817
   A41        2.42664  -0.12086   0.00000  -0.06326  -0.06293   2.36371
   A42        1.68416   0.05158   0.00000   0.03026   0.03093   1.71510
   A43        1.71561   0.02268   0.00000   0.01329   0.01415   1.72976
   A44        1.69929   0.12194   0.00000   0.06388   0.06388   1.76318
   A45        1.76829   0.00099   0.00000   0.00068   0.00068   1.76897
   A46        1.76012   0.00900   0.00000   0.00568   0.00568   1.76580
   A47        1.88746  -0.00767   0.00000  -0.00462  -0.00462   1.88283
   A48        3.31789  -0.01616   0.00000  -0.01328  -0.01340   3.30450
   A49        2.94589  -0.02218   0.00000  -0.01753  -0.01805   2.92784
   A50        3.09297   0.01078   0.00000   0.00777   0.00770   3.10067
   A51        3.03450   0.00919   0.00000   0.00563   0.00561   3.04011
    D1       -3.13117  -0.00071   0.00000  -0.00011  -0.00005  -3.13122
    D2        0.01807  -0.00229   0.00000  -0.00179  -0.00178   0.01629
    D3        1.18701   0.00510   0.00000   0.00382   0.00381   1.19082
    D4       -1.94693   0.00351   0.00000   0.00214   0.00208  -1.94485
    D5       -0.70888   0.01826   0.00000   0.01268   0.01260  -0.69628
    D6        2.42429   0.02005   0.00000   0.01455   0.01452   2.43881
    D7       -0.07434  -0.00612   0.00000   0.00127   0.00135  -0.07299
    D8       -2.92530   0.01385   0.00000   0.00491   0.00494  -2.92036
    D9        3.08604  -0.00753   0.00000  -0.00055  -0.00053   3.08551
   D10        0.23508   0.01245   0.00000   0.00309   0.00305   0.23814
   D11        1.31718  -0.02898   0.00000  -0.01825  -0.01824   1.29894
   D12        0.10359   0.00324   0.00000   0.00087   0.00089   0.10448
   D13       -3.01014   0.00976   0.00000   0.00435   0.00442  -3.00572
   D14        2.31962   0.03476   0.00000   0.01929   0.01936   2.33898
   D15       -0.79411   0.04128   0.00000   0.02277   0.02289  -0.77122
   D16        0.49194  -0.01602   0.00000  -0.01142  -0.01124   0.48070
   D17       -2.62179  -0.00949   0.00000  -0.00795  -0.00771  -2.62950
   D18       -3.11953   0.02224   0.00000   0.00757   0.00787  -3.11167
   D19       -0.65023   0.01294   0.00000   0.00493   0.00501  -0.64521
   D20        0.83723  -0.01135   0.00000  -0.00889  -0.00857   0.82866
   D21       -2.97665  -0.02065   0.00000  -0.01153  -0.01142  -2.98807
   D22        2.59748   0.03088   0.00000   0.01992   0.02005   2.61753
   D23       -1.21640   0.02159   0.00000   0.01728   0.01719  -1.19920
   D24       -1.12734   0.00239   0.00000   0.00898   0.00902  -1.11832
   D25        2.35890   0.03761   0.00000   0.01903   0.01891   2.37781
   D26       -0.13097   0.00068   0.00000  -0.00040  -0.00035  -0.13132
   D27       -3.13683   0.00289   0.00000   0.00112   0.00118  -3.13565
   D28        2.98108  -0.00780   0.00000  -0.00453  -0.00459   2.97649
   D29       -0.02478  -0.00560   0.00000  -0.00300  -0.00306  -0.02784
   D30       -2.96513  -0.00208   0.00000  -0.00410  -0.00418  -2.96931
   D31       -0.19428   0.01160   0.00000   0.00524   0.00525  -0.18904
   D32        0.19738   0.00371   0.00000  -0.00086  -0.00081   0.19657
   D33        2.96823   0.01740   0.00000   0.00847   0.00862   2.97684
[...]
 000398,0.00000804,0.00005965,0.00010953,0.00001722,-0.00115493,0.00008
 870,0.00052895,0.24394247,0.00001898,0.00001845,-0.00002801,-0.0000483
 6,0.00004591,0.00003730,0.00003450,-0.00011277,-0.00005078,0.00006178,
 -0.00047621,0.00017233,0.00091091,0.00054481,0.00044400,-0.00008780,0.
 00004283,0.00008844,-0.00206894,-0.00106280,0.00113695,-0.00560325,0.0
 1026451,-0.00660202,-0.01937451,-0.00411006,0.01278935,0.04883779,-0.0
 5181604,-0.03534211,0.01196554,-0.00372816,-0.01838413,-0.00089391,0.0
 0004139,-0.00243973,-0.00058457,0.00080339,0.00032049,-0.00046178,-0.0
 0109987,0.00071754,0.00114054,0.00044691,-0.00008948,-0.00020683,0.000
 39533,-0.00007731,-0.00008723,-0.00253139,0.00204291,0.00027768,0.0018
 3051,-0.00142281,-0.00024304,-0.00006103,0.00037504,-0.00006918,-0.000
 19129,-0.00000451,-0.00000006,-0.00000351,-0.00000257,0.00000519,0.000
 00190,-0.00000468,0.00000145,-0.00000395,0.00001257,-0.00002276,0.0000
 5779,-0.00003733,0.00008527,-0.00000929,-0.00006021,-0.00026989,-0.000
 04852,-0.00034062,0.00086246,-0.00042400,-0.00049680,-0.03433138,0.051
 12383,0.00002015,0.00001676,-0.00000259,-0.00011954,0.00004292,0.00007
 107,0.00015596,-0.00014198,-0.00011106,-0.00018991,-0.00086567,-0.0001
 3546,-0.00082815,0.00018918,0.00002152,-0.00008327,0.00015093,-0.00010
 255,0.00126998,0.00025645,-0.00110859,0.00063386,-0.00835923,0.0067269
 4,-0.00846635,0.00953889,0.00720385,0.12100123,-0.03867336,-0.13773744
 ,0.02010313,-0.01110606,-0.00789380,-0.00321019,0.00363734,0.00109338,
 0.00241551,-0.00300614,-0.00056119,-0.00174024,0.00161831,0.00011981,0
 .00091919,0.00009724,-0.00053848,0.00002038,0.00017515,0.00032301,-0.0
 0131728,-0.00210940,-0.00165519,-0.00030955,0.00084852,-0.00044596,-0.
 00015967,0.00007709,0.00006172,-0.00002057,-0.00008867,0.00001820,0.00
 000377,-0.00000367,-0.00000144,-0.00000426,-0.00000139,0.00000101,-0.0
 0000376,-0.00001076,-0.00000678,0.00004270,-0.00000481,-0.00002842,0.0
 0002147,0.00000599,0.00003329,0.00016272,0.00004156,0.00010444,-0.0011
 1042,0.00033878,0.00099445,-0.12915522,0.04738406,0.13406728,0.0011721
 3,0.00056992,0.00010841,-0.00116062,0.00170776,0.00094092,-0.00153980,
 -0.00509056,-0.00358064,0.01777323,-0.01577231,0.00074456,-0.00245631,
 -0.00183608,0.00137476,-0.00080239,-0.00080798,-0.00066084,-0.00019824
 ,0.00005217,0.00024769,0.00014725,-0.00011555,-0.00017225,-0.00060149,
 -0.00018569,-0.00026869,0.00026369,0.00032236,0.00085651,0.00052392,-0
 .00070234,-0.00100978,-0.00109600,-0.00012867,-0.00038925,-0.00487729,
 0.00142559,0.00317834,-0.02619275,0.02097383,-0.00774376,-0.17327790,0
 .16973242,-0.02101107,-0.00136791,0.00217999,0.00103565,-0.00022843,0.
 00059495,-0.00028789,0.00006888,-0.00006185,0.00011833,0.00002814,-0.0
 0003870,0.00001002,0.00001619,0.00002403,0.00001533,0.00018799,0.00019
 537,-0.00016724,0.00014490,-0.00001069,-0.00003100,-0.00016761,0.00010
 312,-0.00011754,0.00011287,-0.00005520,-0.00007815,-0.00012160,-0.0003
 6097,0.00013541,-0.00009204,0.00007002,0.00011648,0.00000709,-0.000058
 26,0.00007805,0.00003214,-0.00006770,0.00004620,0.19376106,0.00011428,
 0.00000497,-0.00012770,0.00056600,0.00004369,-0.00034462,0.00017440,0.
 00034872,0.00022924,0.01158464,-0.03260188,0.00344905,-0.00261137,0.00
 017297,0.00356510,-0.00043431,-0.00075146,-0.00153562,0.00036013,-0.00
 015556,0.00010725,-0.00016653,0.00023091,0.00016731,0.00060236,0.00015
 936,0.00014401,-0.00036241,-0.00035584,-0.00072434,-0.00057119,0.00049
 767,0.00089968,0.00083379,-0.00048348,-0.00010453,-0.00583177,0.003968
 00,-0.00244768,-0.00343088,0.00754095,-0.00134069,0.17149156,-0.304456
 78,0.04595813,0.00086639,-0.00131183,-0.00082005,-0.00017450,-0.000043
 55,0.00006377,-0.00005339,0.00027471,-0.00002487,-0.00009370,0.0000169
 0,0.00000833,-0.00002419,-0.00004576,-0.00002263,0.00003586,0.00000883
 ,-0.00000968,0.00003047,0.00002268,-0.00002051,0.00004714,0.00009511,0
 .00000425,-0.00002874,0.00018566,0.00004444,-0.00006818,-0.00045133,0.
 00013490,0.00008793,-0.00003902,-0.00016270,-0.00003174,0.00005127,-0.
 00005434,-0.00001398,0.00010480,0.00002594,-0.17291651,0.32761775,-0.0
 0120713,-0.00085590,0.00057862,0.00087289,-0.00185696,-0.00081129,-0.0
 0117762,0.00524225,0.00077929,-0.01012188,0.00050468,0.00048228,0.0004
 1426,0.00188073,0.00068730,0.00057698,-0.00027018,0.00049007,0.0010741
 9,-0.00063401,-0.00184366,-0.00009734,0.00042269,0.00049117,-0.0001301
 1,0.00028134,-0.00034959,0.00009571,-0.00013237,0.00079251,-0.00048158
 ,-0.00132838,-0.00100687,-0.00387123,0.00332391,0.00085648,0.00148079,
 0.00326223,0.00798438,-0.00682423,-0.00834351,-0.00800381,-0.00877865,
 0.04744541,-0.02444457,0.00095876,-0.00163604,-0.00063585,0.00104717,0
 .00030303,0.00084220,-0.00009054,-0.00028815,-0.00032601,0.00003407,0.
 00000451,-0.00003135,-0.00001111,-0.00000343,-0.00001782,-0.00022264,-
 0.00012177,0.00021866,-0.00026274,-0.00012883,0.00007193,0.00007452,-0
 .00015307,0.00001433,-0.00008063,0.00007375,0.00012912,0.00031890,0.00
 018622,-0.00007988,-0.00002083,-0.00009479,0.00047039,0.00004432,-0.00
 008888,0.00017739,-0.00006824,0.00005541,-0.00024054,0.02663666,-0.046
 94672,0.02214311,-0.00329744,-0.00010883,-0.00135430,-0.00245548,0.004
 07007,-0.00055347,0.01784505,0.00435060,-0.00162811,-0.01848687,-0.022
 31836,0.00478769,-0.00170526,-0.00164666,0.00060367,-0.00061785,-0.001
 58830,-0.00237435,-0.00055696,0.00029522,0.00018878,0.00009452,-0.0003
 6689,-0.00029263,0.00001237,-0.00004534,0.00032844,0.00009568,0.000065
 51,-0.00020029,-0.00017137,0.00016232,0.00015083,0.00030430,-0.0001364
 4,-0.00021376,-0.00018528,0.00053910,0.00011979,0.00044336,-0.00132957
 ,0.00032524,-0.00202835,0.00219583,0.00273292,-0.15993685,-0.14979317,
 0.04574997,-0.00015636,0.00008178,-0.00000355,0.00005246,-0.00001712,0
 .00006940,0.00002547,-0.00000590,-0.00001931,0.00001276,0.00000936,-0.
 00000227,-0.00007437,-0.00068670,-0.00002260,0.00123108,-0.00129543,-0
 .00057164,-0.00054330,-0.00124737,0.00009854,-0.00028687,0.00037867,0.
 00022767,0.00151483,-0.00053766,-0.00040663,0.00013066,0.00003638,-0.0
 0011495,-0.00009891,0.00012444,-0.00010657,0.00003561,0.00003075,0.000
 03334,-0.00005768,0.00001800,-0.00016501,0.16887707,-0.00028631,0.0020
 2799,0.00104178,-0.00530543,-0.00041567,0.00355120,-0.00771455,-0.0314
 9839,-0.00264502,-0.00506548,0.01160787,0.00524132,0.00360295,0.000711
 48,-0.00244461,0.00015534,-0.00171882,0.00082827,-0.00096994,-0.000928
 61,0.00148538,0.00010078,-0.00021169,-0.00026319,0.00013007,-0.0004734
 3,-0.00008816,0.00006582,0.00018872,-0.00001993,0.00015689,0.00001564,
 -0.00012377,-0.00017229,0.00009860,0.00008126,0.00030381,-0.00029261,-
 0.00005529,-0.00055759,0.00043967,0.00005433,0.00391279,0.00051195,-0.
 00333787,-0.15590688,-0.28211063,0.03755138,-0.00009637,-0.00003324,-0
 .00012517,0.00004046,-0.00012471,0.00009449,0.00003059,-0.00000048,-0.
 00000651,0.00001280,0.00001918,0.00001049,0.00027918,0.00051915,0.0000
 5307,-0.00003503,0.00063443,-0.00011448,-0.00037122,-0.00030490,0.0002
 2872,0.00016594,-0.00052829,0.00023333,-0.00125559,0.00015068,0.000001
 52,-0.00026168,0.00005136,0.00028407,0.00006617,-0.00017688,-0.0001953
 5,0.00000604,-0.00000679,-0.00000329,0.00021591,-0.00063730,-0.0000154
 1,0.16875063,0.30244952,-0.00158021,0.00106499,-0.00452276,-0.00102607
 ,-0.00218012,-0.00424655,-0.00505601,-0.00497876,0.01511648,0.00858175
 ,0.01749541,-0.00304488,0.00160541,0.00033199,-0.00140322,-0.00147041,
 0.00054562,-0.00188449,-0.00049367,0.00004988,0.00000060,0.00005126,-0
 .00012065,-0.00024158,-0.00041078,-0.00019448,0.00016646,0.00030439,0.
 00032161,0.00033200,0.00007292,-0.00014947,-0.00046532,0.00020252,-0.0
 0000123,0.00027885,-0.00057408,0.00051671,-0.00017229,0.00023995,0.000
 13818,-0.00061657,0.00384814,-0.00255120,0.00151195,0.04403971,0.02855
 464,-0.04787936,-0.00001835,0.00006408,0.00010699,-0.00001690,0.000087
 32,-0.00008003,-0.00000440,-0.00000715,0.00001032,-0.00000364,-0.00001
 669,-0.00001419,-0.00096162,0.00089812,0.00106329,0.00073316,0.0004055
 0,-0.00020954,0.00039393,0.00073724,0.00011321,-0.00110936,0.00056612,
 0.00105777,0.00019121,-0.00002790,-0.00018156,-0.00003970,-0.00002794,
 0.00010502,-0.00000256,-0.00008842,-0.00010262,-0.00000437,-0.00003686
 ,0.00002467,-0.00008600,-0.00008612,0.00047821,-0.04739574,-0.04129277
 ,0.04468289,-0.00001053,-0.00000959,0.00000974,-0.00000570,-0.00000177
 ,0.00001095,0.00000471,-0.00000654,-0.00000803,0.00005907,0.00000793,-
 0.00009414,-0.00013568,0.00008752,0.00004227,0.00000334,-0.00002791,0.
 00001337,0.00004240,-0.00001234,-0.00005305,0.00011174,0.00004587,0.00
 030754,0.00015762,-0.00010360,-0.00078631,-0.00092601,-0.00102689,0.00
 114395,0.00064671,0.00004253,-0.00286140,0.00472552,-0.00093603,-0.000
 12054,-0.00123458,0.00111876,-0.00012754,0.00039564,-0.00022506,0.0000
 9866,-0.00024679,0.00001737,-0.00011123,-0.00000280,-0.00001030,0.0000
 2727,-0.01794687,0.00468267,0.01030857,-0.33911332,0.15806419,0.078104
 97,0.01127855,-0.01078189,-0.00302200,0.00180036,0.00121435,-0.0011834
 0,-0.00000170,-0.00000117,0.00000172,-0.00000778,0.00000201,0.00000141
 ,-0.00000370,-0.00000307,-0.00000326,-0.00000460,-0.00002284,-0.000005
 94,-0.00001054,-0.00000333,-0.00000034,0.00000366,0.00000077,0.0000220
 7,-0.00001666,-0.00000952,0.00003790,0.00007099,0.00019182,-0.00015227
 ,0.00001785,-0.00004231,0.00004502,-0.00000517,0.00001266,-0.00000036,
 0.34046526,-0.00004554,-0.00000477,0.00002251,-0.00015308,0.00004628,0
 .00009499,0.00018680,-0.00020811,-0.00012726,0.00022115,-0.00021034,-0
 .00007346,-0.00000940,0.00021966,0.00002755,-0.00013434,-0.00002453,0.
 00006747,0.00002420,-0.00008247,-0.00007740,0.00056048,0.00002529,-0.0
 0028296,-0.00091995,-0.00053200,-0.00109553,-0.00105813,0.00026653,0.0
 0245947,-0.00174186,0.00035594,-0.00221990,-0.00030979,0.00082186,-0.0
 0238143,-0.00002145,0.00013340,0.00038351,0.00032084,0.00058361,-0.000
 16735,-0.00011188,-0.00015065,0.00008463,-0.00023011,0.00024186,0.0001
 7688,0.01993106,-0.01009351,0.01053534,0.11885844,-0.07413416,-0.05464
 682,0.01306798,-0.01735700,-0.02102332,0.00332176,0.00135863,0.0014392
 9,-0.00000732,-0.00000904,0.00000652,-0.00001635,-0.00000058,0.0000011
 8,-0.00000718,-0.00002901,0.00000026,0.00002431,-0.00000730,-0.0000384
 8,0.00004476,-0.00000278,-0.00000970,0.00002726,-0.00005185,0.00003095
 ,-0.00007647,-0.00004017,0.00008070,0.00004247,0.00001315,-0.00007934,
 0.00004560,-0.00003443,-0.00006140,0.00001307,0.00003163,-0.00000909,-
 0.15142931,0.09945581,-0.00001374,-0.00000123,0.00000756,-0.00000158,-
 0.00001237,-0.00000049,-0.00000449,0.00001551,0.00001396,0.00007248,0.
 00017535,-0.00009876,-0.00003982,-0.00004682,-0.00002438,0.00001588,-0
 .00001936,0.00001205,-0.00000657,0.00002781,0.00004523,-0.00009863,0.0
 0000986,0.00006965,0.00011915,-0.00007446,-0.00005205,0.00020713,-0.00
 000374,-0.00028295,0.00151977,-0.00196763,-0.00170767,0.00211864,-0.00
 087180,0.00137640,-0.00151239,0.00125813,-0.00098448,0.00038633,-0.000
 41485,-0.00002506,-0.00047494,0.00006311,0.00005489,0.00000156,-0.0000
 3464,-0.00001309,-0.03079245,0.02158520,0.00526229,0.08858369,-0.06967
 662,-0.07048172,0.02236547,-0.01789979,-0.02372324,-0.00052501,0.00196
 392,0.00200162,-0.00000133,-0.00000181,0.00000144,-0.00000128,-0.00000
 379,-0.00000002,-0.00000163,-0.00000250,-0.00000090,0.00000432,-0.0000
 1207,0.00000415,-0.00000482,-0.00000248,0.00000443,0.00000020,0.000027
 19,0.00003366,0.00001503,0.00000224,-0.00002789,-0.00002216,-0.0001492
 6,-0.00030938,-0.00001388,-0.00004963,0.00009463,-0.00000283,-0.000001
 24,0.00000102,-0.08168952,0.06616683,0.08916921,0.00001512,0.00000259,
 -0.00000914,0.00002500,-0.00000607,-0.00000422,-0.00002531,0.00002838,
 0.00002941,-0.00004579,-0.00002619,0.00002322,0.00000927,-0.00002173,0
 .00000263,0.00001844,0.00001238,-0.00000951,0.00000832,0.00001392,-0.0
 0000323,-0.00001061,-0.00002147,0.00003120,0.00002277,0.00007115,0.000
 05256,0.00001035,-0.00012772,-0.00008456,0.00021491,0.00007656,-0.0001
 4269,-0.00032293,0.00031336,-0.00001283,0.00014958,-0.00022101,0.00004
 367,-0.00017436,0.00003294,-0.00001120,0.00012372,0.00003436,-0.000009
 82,0.00003167,-0.00002971,-0.00001200,-0.00039829,-0.00047772,0.000656
 45,-0.00174109,0.00010392,0.00227600,-0.01377536,-0.01474651,-0.014037
 52,-0.16539899,-0.02225594,-0.15985001,0.00000162,-0.00000047,-0.00000
 276,-0.00000235,0.00000316,-0.00000148,-0.00000326,0.00000764,-0.00000
 453,-0.00000706,-0.00000204,-0.00000039,-0.00000983,0.00000064,0.00000
 153,-0.00000479,0.00000133,-0.00001220,0.00000289,0.00000127,-0.000007
 72,-0.00000275,0.00003333,0.00002862,-0.00000911,0.00001452,-0.0000169
 8,-0.00000920,-0.00000446,-0.00000590,0.00038168,0.00038999,0.00028466
 ,0.19920663,-0.00000984,-0.00000077,0.00000456,-0.00004091,0.00001274,
 0.00002446,0.00004882,-0.00005474,-0.00003292,0.00005907,-0.00007680,-
 0.00001970,0.00000406,0.00006024,0.00001465,-0.00003734,0.00000081,0.0
 0001499,-0.00000534,-0.00004885,-0.00004272,0.00007727,0.00004106,-0.0
 0004146,-0.00012995,-0.00010023,-0.00014879,-0.00001587,0.00026721,0.0
 0035814,-0.00020754,0.00043406,-0.00092319,0.00028234,-0.00030831,-0.0
 0038258,-0.00025066,0.00026477,0.00025662,-0.00002406,0.00007011,-0.00
 008944,-0.00002814,0.00002298,0.00002119,-0.00006101,0.00007109,0.0000
 4596,0.00145494,-0.00223254,0.00230116,-0.00820175,-0.00723504,-0.0020
 2486,-0.02082079,-0.01371198,-0.02806069,-0.03307503,-0.05917854,-0.02
 799217,-0.00000188,-0.00000201,0.00000179,-0.00000410,-0.00000009,0.00
 000035,-0.00000112,-0.00000686,0.00000069,0.00000992,-0.00000058,-0.00
 001164,0.00001437,-0.00000081,-0.00000212,0.00000923,-0.00000536,0.000
 01161,-0.00000607,-0.00000518,0.00003117,0.00001491,-0.00003727,-0.000
 00495,0.00000272,-0.00000589,-0.00000667,0.00000536,0.00000619,-0.0000
 0353,-0.00028858,0.00034940,-0.00016891,0.04016676,0.07483046,-0.00001
 006,-0.00000100,0.00000629,-0.00001733,0.00000118,0.00000336,0.0000175
 4,-0.00001781,-0.00001596,0.00003533,0.00003785,-0.00002507,-0.0000078
 3,0.00000652,-0.00000592,-0.00001014,-0.00001079,0.00000831,-0.0000086
 5,-0.00000766,0.00000153,-0.00000802,0.00000870,-0.00000749,-0.0000010
 8,-0.00002677,-0.00004239,0.00001064,0.00002085,0.00007040,-0.00008027
 ,0.00001885,0.00017040,0.00025351,-0.00020355,0.00000024,-0.00007165,0
 .00002457,-0.00005587,0.00018970,0.00002062,0.00000076,-0.00012601,-0.
 00004995,0.00001496,-0.00002211,0.00001419,0.00000693,0.00056910,0.000
 56327,0.00066665,-0.00003640,-0.00200970,-0.00040598,0.01947779,0.0128
 5413,0.00722398,-0.22302308,-0.04061873,-0.26408965,-0.00000139,0.0000
 0005,0.00000183,0.00000104,-0.00000244,0.00000077,0.00000149,-0.000004
 53,0.00000293,0.00000358,-0.00000071,0.00000022,0.00000538,-0.00000080
 ,-0.00000031,0.00000286,-0.00000024,0.00001250,-0.00000115,-0.00000137
 ,0.00000204,-0.00000006,-0.00002033,-0.00002465,0.00000805,-0.00001492
 ,0.00001441,0.00000389,0.00000291,0.00000387,-0.00053873,0.00016496,-0
 .00005654,0.19617329,0.03369037,0.26004960,0.00001720,0.00000776,-0.00
 001319,-0.00000136,0.00000733,0.00000875,0.00000611,-0.00001064,0.0000
 0979,-0.00006934,-0.00020070,0.00002228,0.00001816,0.00003355,0.000036
 00,-0.00001058,0.00003026,-0.00001446,0.00002909,-0.00002167,-0.000023
 31,0.00006714,0.00002222,-0.00006722,-0.00007989,-0.00000654,0.0000531
 1,0.00008968,0.00018099,-0.00001397,-0.00069382,0.00031131,0.00006143,
 0.00067940,-0.00167028,-0.00111233,0.00019360,0.00055468,0.00115389,-0
 .00068842,0.00048264,-0.00015796,0.00036095,0.00005236,-0.00005522,0.0
 0000163,0.00003655,0.00002646,0.00057201,0.00018449,0.00054307,0.00115
 943,-0.00111920,0.00001817,0.01355358,-0.03082512,0.00504048,-0.236765
 25,0.19017538,-0.01580274,0.00000220,-0.00000088,-0.00000281,0.0000001
 2,0.00000282,-0.00000132,-0.00000241,0.00000456,-0.00000166,0.,0.00000
 746,-0.00000476,0.00000301,0.00000134,-0.00000107,0.00000963,-0.000004
 45,-0.00002028,-0.00000089,0.00000047,0.00001033,-0.00001647,-0.000036
 80,-0.00000759,-0.00001017,0.00002824,-0.00004578,-0.00000168,-0.00000
 606,-0.00000424,-0.00049267,-0.00080799,-0.00048724,-0.01828092,0.0210
 6021,0.00721076,0.24035096,0.00000855,-0.00000219,-0.00000503,0.000016
 63,0.00000256,-0.00000503,-0.00001611,0.00000820,0.00000862,-0.0000395
 2,-0.00006607,0.00004330,0.00002525,0.00000686,0.00000576,-0.00000091,
 0.00001241,-0.00000658,0.00001272,-0.00000686,0.00000185,0.00005450,-0
 .00000872,-0.00004029,-0.00007495,0.00000076,-0.00002392,-0.00003775,0
 .00004387,0.00013987,-0.00020226,0.00016102,-0.00030838,-0.00027875,-0
 .00027610,-0.00059451,-0.00005894,0.00021770,0.00044429,-0.00032041,-0
 .00001450,-0.00009213,0.00021130,0.00007031,0.00000047,0.00000682,-0.0
 0000301,0.00000053,0.00134589,-0.00058509,0.00066312,-0.00015396,-0.00
 425400,0.00034755,0.00899725,-0.03215465,-0.00168335,0.17290536,-0.225
 24549,0.00461717,0.00000078,0.00000088,-0.00000080,-0.00000108,0.00000
 309,-0.00000020,0.00000066,0.00000481,-0.00000092,-0.00000163,0.000001
 59,-0.00000352,-0.00000029,0.00000099,-0.00000043,0.00000484,0.0000027
 5,-0.00001280,-0.00000257,-0.00000133,0.00000202,-0.00000353,-0.000012
 56,0.00001363,-0.00000672,0.00002918,-0.00001969,-0.00000336,-0.000001
 62,-0.00000504,-0.00054639,-0.00093037,0.00011986,-0.00336716,0.006580
 73,-0.00443771,-0.17847427,0.25641488,0.00003240,0.00000663,-0.0000132
 8,0.00004932,-0.00000604,-0.00004266,-0.00006966,0.00006332,0.00002133
 ,-0.00013885,-0.00012565,0.00011530,0.00001871,-0.00002365,0.00001589,
 0.00004148,0.00003369,-0.00005034,0.00002627,0.00000442,0.00001758,0.0
 0003027,-0.00004243,-0.00001322,-0.00001120,0.00006199,0.00001696,-0.0
 0012482,-0.00008087,0.00002611,-0.00016540,0.00024874,-0.00044254,-0.0
 0005627,-0.00037048,-0.00062263,0.00011499,0.00051211,0.00036671,-0.00
 057765,0.00005682,-0.00002162,0.00043231,0.00017027,-0.00011563,0.0000
 8900,-0.00003581,-0.00005932,0.00116711,-0.00162221,0.00161348,-0.0007
 2188,-0.00248035,-0.00146265,-0.00393354,0.02070760,-0.00296507,0.0249
 3931,-0.04174112,-0.02557368,0.00000430,0.00000775,-0.00000219,0.00001
 417,-0.00000034,0.00000044,0.00000790,0.00001073,0.00000699,-0.0000072
 7,0.00002367,0.00002156,-0.00000969,0.00000490,-0.00000065,0.00000004,
 0.00000457,-0.00002947,0.00000766,0.00001283,-0.00000307,0.00000586,0.
 00001315,0.00003888,-0.00003340,0.00003593,-0.00000525,0.00000783,-0.0
 0001145,0.00001134,0.00058263,0.00055039,-0.00036354,-0.02536453,0.023
 17862,-0.00353213,0.00364262,0.00083227,0.03304637\\-0.00000493,-0.000
 00105,0.00000621,0.00000371,0.00000305,-0.00000605,-0.00001008,0.00003
 905,0.00000913,0.00002707,0.00006817,0.00000023,0.00001156,-0.00001547
 ,-0.00000634,0.00000773,-0.00000340,0.00000452,-0.00000875,0.00000892,
 0.00001435,-0.00000754,-0.00001401,0.00000317,0.00001959,0.00000148,0.
 00000681,-0.00000892,-0.00004123,-0.00004533,-0.00000763,0.00005356,0.
 00002370,0.00001957,-0.00001239,0.00003698,-0.00000775,0.00000688,-0.0
 0001240,-0.00000797,-0.00000557,0.00000948,-0.00003988,-0.00005479,-0.
 00002207,0.00001569,-0.00003558,-0.00001237,0.00000599,-0.00001545,-0.
 00003921,-0.00000215,0.00000569,0.00002047,-0.00000355,-0.00000591,0.0
 0000483,0.00000266,0.00000877,-0.00000855,0.00000059,-0.00000210,-0.00
 000055,-0.00000178,-0.00000350,0.00000087,0.00000034,0.00000031,-0.000
 00108,0.00000036,-0.00000063,-0.00000712,-0.00000635,0.00000266,0.0000
 0123,0.00000783,0.00000799,-0.00000497,-0.00000087,0.00000284,-0.00000
 341,-0.00000086,0.00000176,0.00000467,0.00000094,0.00000534,0.00001729
 ,-0.00000323,-0.00000054,0.00000148,0.00000075,0.00000152,0.00000176,-
 0.00000083,-0.00000243,0.00000149,-0.00000131,-0.00000394,0.00000079\\
 \@


 EVERY WORD THAT YOU WRITE IS A BLOW THAT SMITES THE DEVIL.
     -- ST. BERNARD OF CLAIRVAUX
 Job cpu time:       0 days 16 hours 46 minutes 34.5 seconds.
 Elapsed time:       0 days  4 hours 11 minutes 40.0 seconds.
 File lengths (MBytes):  RWF=    974 Int=      0 D2E=      0 Chk=     32 Scr=      1
 Normal termination of Gaussian 16 at Sat May 20 00:03:43 2023.
### All Done ###
