### Starting Gaussian ###
 Entering Gaussian System, Link 0=g16
 Initial command:
 /cluster/software/gaussian/gaussian-16-A.03/avx2/g16/l1.exe "/local/scratch/yxie/Gau-12324.inp" -scrdir="/local/scratch/yxie/"
 Entering Link 1 = /cluster/software/gaussian/gaussian-16-A.03/avx2/g16/l1.exe PID=     12325.
  
 Copyright (c) 1988,1990,1992,1993,1995,1998,2003,2009,2016,
            Gaussian, Inc.  All Rights Reserved.
  
 This is part of the Gaussian(R) 16 program.  It is based on
 the Gaussian(R) 09 system (copyright 2009, Gaussian, Inc.),
 the Gaussian(R) 03 system (copyright 2003, Gaussian, Inc.),
 the Gaussian(R) 98 system (copyright 1998, Gaussian, Inc.),
 the Gaussian(R) 94 system (copyright 1995, Gaussian, Inc.),
 the Gaussian 92(TM) system (copyright 1992, Gaussian, Inc.),
 the Gaussian 90(TM) system (copyright 1990, Gaussian, Inc.),
 the Gaussian 88(TM) system (copyright 1988, Gaussian, Inc.),
 the Gaussian 86(TM) system (copyright 1986, Carnegie Mellon
 University), and the Gaussian 82(TM) system (copyright 1983,
 Carnegie Mellon University). Gaussian is a federally registered
 trademark of Gaussian, Inc.
  
 This software contains proprietary and confidential information,
 including trade secrets, belonging to Gaussian, Inc.
  
 This software is provided under written license and may be
 used, copied, transmitted, or stored only in accord with that
 written license.
  
 The following legend is applicable only to US Government
 contracts under FAR:
  
                    RESTRICTED RIGHTS LEGEND
  
 Use, reproduction and disclosure by the US Government is
 subject to restrictions as set forth in subparagraphs (a)
 and (c) of the Commercial Computer Software - Restricted
 Rights clause in FAR 52.227-19.
  
 Gaussian, Inc.
 340 Quinnipiac St., Bldg. 40, Wallingford CT 06492
  
  
 ---------------------------------------------------------------
 Warning -- This program may not be used in any manner that
 competes with the business of Gaussian, Inc. or will provide
 assistance to any competitor of Gaussian, Inc.  The licensee
 of this program is prohibited from giving any competitor of
 Gaussian, Inc. access to this program.  By using this program,
 the user acknowledges that Gaussian, Inc. is engaged in the
 business of creating and licensing software in the field of
 computational chemistry and represents and warrants to the
 licensee that it is not a competitor of Gaussian, Inc. and that
 it will not use this program in any manner prohibited above.
 ---------------------------------------------------------------
  

 Cite this work as:
 Gaussian 16, Revision A.03,
 M. J. Frisch, G. W. Trucks, H. B. Schlegel, G. E. Scuseria, 
 M. A. Robb, J. R. Cheeseman, G. Scalmani, V. Barone, 
 G. A. Petersson, H. Nakatsuji, X. Li, M. Caricato, A. V. Marenich, 
 J. Bloino, B. G. Janesko, R. Gomperts, B. Mennucci, H. P. Hratchian, 
 J. V. Ortiz, A. F. Izmaylov, J. L. Sonnenberg, D. Williams-Young, 
 F. Ding, F. Lipparini, F. Egidi, J. Goings, B. Peng, A. Petrone, 
 T. Henderson, D. Ranasinghe, V. G. Zakrzewski, J. Gao, N. Rega, 
 G. Zheng, W. Liang, M. Hada, M. Ehara, K. Toyota, R. Fukuda, 
 J. Hasegawa, M. Ishida, T. Nakajima, Y. Honda, O. Kitao, H. Nakai, 
 T. Vreven, K. Throssell, J. A. Montgomery, Jr., J. E. Peralta, 
 F. Ogliaro, M. J. Bearpark, J. J. Heyd, E. N. Brothers, K. N. Kudin, 
 V. N. Staroverov, T. A. Keith, R. Kobayashi, J. Normand, 
 K. Raghavachari, A. P. Rendell, J. C. Burant, S. S. Iyengar, 
 J. Tomasi, M. Cossi, J. M. Millam, M. Klene, C. Adamo, R. Cammi, 
 J. W. Ochterski, R. L. Martin, K. Morokuma, O. Farkas, 
 J. B. Foresman, and D. J. Fox, Gaussian, Inc., Wallingford CT, 2016.
 
 ******************************************
 Gaussian 16:  ES64L-G16RevA.03 25-Dec-2016
                19-May-2023 
 ******************************************
 %chk=NNC1dCC23NdCCdCCdNCdCNCdC2C3dC1.chk
 %NProcShared=20
 Will use up to   20 processors via shared memory.
 -----------------------------
 # opt freq b3lyp/6-31g(2df,p)
 -----------------------------
 1/18=20,19=15,26=3,38=1/1,3;
 2/9=110,12=2,17=6,18=5,40=1/2;
 3/5=1,6=6,7=104,11=2,25=1,30=1,71=1,74=-5/1,2,3;
 4//1;
 5/5=2,38=5/2;
 6/7=2,8=2,9=2,10=2,28=1/1;
 7//1,2,3,16;
 1/18=20,19=15,26=3/3(2);
 2/9=110/2;
 99//99;
 2/9=110/2;
 3/5=1,6=6,7=104,11=2,25=1,30=1,71=1,74=-5/1,2,3;
 4/5=5,16=3,69=1/1;
 5/5=2,38=5/2;
 7//1,2,3,16;
 1/18=20,19=15,26=3/3(-5);
 2/9=110/2;
 6/7=2,8=2,9=2,10=2,19=2,28=1/1;
 99/9=1/99;
 -------------------
 Title Card Required
 -------------------
 Symbolic Z-matrix:
 Charge =  0 Multiplicity = 1
 N                     1.07938  -0.09169  -0.05609 
 N                     2.51528  -0.11136  -0.1496 
 C                     3.36365  -0.83104  -1.15528 
 C                     4.49542  -1.50549  -0.98068 
 C                     5.52427  -2.33923  -2.16009 
 N                     6.2227   -2.69324  -1.10226 
 C                     7.20522  -3.30647  -1.43434 
 C                     8.21306  -3.95346  -0.87029 
 C                     9.13195  -4.55028  -1.49957 
 C                     10.11257  -5.16651  -0.80412 
 N                     10.90587  -5.66546  -1.56842 
 C                     11.93643  -6.36547  -1.61676 
 C                     11.54319  -6.17443  -3.1627 
 N                     9.94711  -5.19162  -3.81864 
 C                     8.22263  -4.04936  -3.80401 
 C                     6.60686  -3.02306  -3.63924 
 C                     4.96769  -1.94764  -3.32675 
 C                     3.5829   -1.05051  -2.72307 
 H                     0.72776   0.38862   0.79909 
 H                     0.71242  -1.04411   0.01886 
 H                     2.98992   0.29514   0.68978 
 H                     4.69272  -1.64402   0.10276 
 H                     7.49402  -3.47901  -2.34489 
 H                     8.25798  -3.95182   0.10401 
 H                     9.26979  -4.62766  -2.47214 
 H                     10.30255  -5.27197   0.17703 
 H                     12.44635  -6.65314  -0.56727 
 H                     12.7232  -6.93346  -3.45233 
 H                     10.6594  -5.58377  -2.81423 
 H                     7.5689   -3.66111  -4.65686 
 H                     2.38643  -0.27783  -2.80509 
 
 Add virtual bond connecting atoms H29        and N14        Dist= 2.44D+00.
 Add virtual bond connecting atoms H31        and C18        Dist= 2.70D+00.
 Add virtual bond connecting atoms H28        and C13        Dist= 2.71D+00.
 Add virtual bond connecting atoms H30        and C16        Dist= 2.91D+00.
 Add virtual bond connecting atoms H23        and C15        Dist= 3.27D+00.
 Add virtual bond connecting atoms H23        and C16        Dist= 3.09D+00.
 Add virtual bond connecting atoms H25        and C15        Dist= 3.38D+00.

 GradGradGradGradGradGradGradGradGradGradGradGradGradGradGradGradGradGrad
 Berny optimization.
 Initialization pass.
                           ----------------------------
                           !    Initial Parameters    !
                           ! (Angstroms and Degrees)  !
 --------------------------                            --------------------------
 ! Name  Definition              Value          Derivative Info.                !
 --------------------------------------------------------------------------------
 ! R1    R(1,2)                  1.4391         estimate D2E/DX2                !
 ! R2    R(1,19)                 1.042          estimate D2E/DX2                !
 ! R3    R(1,20)                 1.0234         estimate D2E/DX2                !
 ! R4    R(2,3)                  1.4997         estimate D2E/DX2                !
 ! R5    R(2,21)                 1.0465         estimate D2E/DX2                !
 ! R6    R(3,4)                  1.329          estimate D2E/DX2                !
 ! R7    R(3,18)                 1.5982         estimate D2E/DX2                !
 ! R8    R(4,5)                  1.7733         estimate D2E/DX2                !
 ! R9    R(4,22)                 1.1099         estimate D2E/DX2                !
 ! R10   R(5,6)                  1.3161         estimate D2E/DX2                !
 ! R11   R(5,17)                 1.3506         estimate D2E/DX2                !
 ! R12   R(6,7)                  1.2049         estimate D2E/DX2                !
 ! R13   R(7,8)                  1.3238         estimate D2E/DX2                !
 ! R14   R(7,23)                 0.9707         estimate D2E/DX2                !
 ! R15   R(8,9)                  1.2635         estimate D2E/DX2                !
 ! R16   R(8,24)                 0.9753         estimate D2E/DX2                !
 ! R17   R(9,10)                 1.3509         estimate D2E/DX2                !
 ! R18   R(9,25)                 0.9853         estimate D2E/DX2                !
 ! R19   R(10,11)                1.2093         estimate D2E/DX2                !
 ! R20   R(10,26)                1.0049         estimate D2E/DX2                !
 ! R21   R(11,12)                1.2468         estimate D2E/DX2                !
 ! R22   R(12,13)                1.6066         estimate D2E/DX2                !
 ! R23   R(12,27)                1.2017         estimate D2E/DX2                !
 ! R24   R(13,28)                1.4326         estimate D2E/DX2                !
 ! R25   R(13,29)                1.1187         estimate D2E/DX2                !
 ! R26   R(14,29)                1.2923         estimate D2E/DX2                !
 ! R27   R(15,23)                1.7278         estimate D2E/DX2                !
 ! R28   R(15,25)                1.7902         estimate D2E/DX2                !
 ! R29   R(15,30)                1.1426         estimate D2E/DX2                !
 ! R30   R(16,23)                1.6341         estimate D2E/DX2                !
 ! R31   R(16,30)                1.5389         estimate D2E/DX2                !
 ! R32   R(17,18)                1.757          estimate D2E/DX2                !
 ! R33   R(18,31)                1.4266         estimate D2E/DX2                !
 ! A1    A(2,1,19)             113.3502         estimate D2E/DX2                !
 ! A2    A(2,1,20)             110.4757         estimate D2E/DX2                !
 ! A3    A(19,1,20)            104.3523         estimate D2E/DX2                !
 ! A4    A(1,2,3)              127.9216         estimate D2E/DX2                !
 ! A5    A(1,2,21)             113.2744         estimate D2E/DX2                !
 ! A6    A(3,2,21)             117.8865         estimate D2E/DX2                !
 ! A7    A(2,3,4)              129.5815         estimate D2E/DX2                !
 ! A8    A(2,3,18)             143.2587         estimate D2E/DX2                !
 ! A9    A(4,3,18)              86.6957         estimate D2E/DX2                !
 ! A10   A(3,4,5)              130.188          estimate D2E/DX2                !
 ! A11   A(3,4,22)             110.057          estimate D2E/DX2                !
 ! A12   A(5,4,22)             119.1696         estimate D2E/DX2                !
 ! A13   A(4,5,6)               84.2486         estimate D2E/DX2                !
 ! A14   A(4,5,17)             101.4839         estimate D2E/DX2                !
 ! A15   A(5,6,7)              110.3727         estimate D2E/DX2                !
 ! A16   A(6,7,8)              138.7761         estimate D2E/DX2                !
 ! A17   A(6,7,23)             126.2719         estimate D2E/DX2                !
 ! A18   A(8,7,23)              94.9508         estimate D2E/DX2                !
 ! A19   A(7,8,9)              124.9107         estimate D2E/DX2                !
 ! A20   A(7,8,24)             117.3785         estimate D2E/DX2                !
 ! A21   A(9,8,24)             117.6972         estimate D2E/DX2                !
 ! A22   A(8,9,10)             119.1412         estimate D2E/DX2                !
 ! A23   A(8,9,25)             129.0799         estimate D2E/DX2                !
 ! A24   A(10,9,25)            111.7624         estimate D2E/DX2                !
 ! A25   A(9,10,11)            109.8175         estimate D2E/DX2                !
 ! A26   A(9,10,26)            133.4495         estimate D2E/DX2                !
 ! A27   A(11,10,26)           116.7275         estimate D2E/DX2                !
 ! A28   A(10,11,12)           142.9775         estimate D2E/DX2                !
 ! A29   A(11,12,13)            76.5981         estimate D2E/DX2                !
 ! A30   A(11,12,27)           116.8256         estimate D2E/DX2                !
 ! A31   A(12,13,28)            85.9818         estimate D2E/DX2                !
 ! A32   A(12,13,29)            87.5019         estimate D2E/DX2                !
 ! A33   A(23,15,25)            74.0388         estimate D2E/DX2                !
 ! A34   A(23,15,30)           106.0762         estimate D2E/DX2                !
 ! A35   A(23,16,30)            93.9392         estimate D2E/DX2                !
 ! A36   A(5,17,18)            100.1396         estimate D2E/DX2                !
 ! A37   A(3,18,17)            121.0178         estimate D2E/DX2                !
 ! A38   A(3,18,31)             82.3552         estimate D2E/DX2                !
 ! A39   A(17,18,31)           156.6081         estimate D2E/DX2                !
 ! A40   A(7,23,16)            122.1326         estimate D2E/DX2                !
 ! A41   A(15,23,16)            69.6428         estimate D2E/DX2                !
 ! A42   A(9,25,15)            128.8395         estimate D2E/DX2                !
 ! A43   A(13,29,14)           110.7062         estimate D2E/DX2                !
 ! A44   A(15,30,16)            90.2855         estimate D2E/DX2                !
 ! A45   L(6,5,17,4,-1)        185.7325         estimate D2E/DX2                !
 ! A46   L(13,12,27,11,-1)     193.4237         estimate D2E/DX2                !
 ! A47   L(28,13,29,12,-1)     173.4837         estimate D2E/DX2                !
 ! A48   L(25,15,30,23,-1)     180.115          estimate D2E/DX2                !
 ! A49   L(7,23,15,16,-1)      191.7754         estimate D2E/DX2                !
 ! A50   L(6,5,17,4,-2)        174.7746         estimate D2E/DX2                !
 ! A51   L(13,12,27,11,-2)     180.2873         estimate D2E/DX2                !
 ! A52   L(28,13,29,12,-2)     179.2551         estimate D2E/DX2                !
 ! A53   L(25,15,30,23,-2)     178.7403         estimate D2E/DX2                !
 ! A54   L(7,23,15,16,-2)      184.6793         estimate D2E/DX2                !
 ! D1    D(19,1,2,3)           173.043          estimate D2E/DX2                !
 ! D2    D(19,1,2,21)            4.3611         estimate D2E/DX2                !
 ! D3    D(20,1,2,3)            56.3375         estimate D2E/DX2                !
 ! D4    D(20,1,2,21)         -112.3444         estimate D2E/DX2                !
 ! D5    D(1,2,3,4)           -138.665          estimate D2E/DX2                !
 ! D6    D(1,2,3,18)            52.0829         estimate D2E/DX2                !
 ! D7    D(21,2,3,4)            29.5657         estimate D2E/DX2                !
 ! D8    D(21,2,3,18)         -139.6864         estimate D2E/DX2                !
 ! D9    D(2,3,4,5)           -178.8855         estimate D2E/DX2                !
 ! D10   D(2,3,4,22)            10.1458         estimate D2E/DX2                !
 ! D11   D(18,3,4,5)            -5.3013         estimate D2E/DX2                !
 ! D12   D(18,3,4,22)         -176.27           estimate D2E/DX2                !
 ! D13   D(2,3,18,17)          172.587          estimate D2E/DX2                !
 ! D14   D(2,3,18,31)           -6.4072         estimate D2E/DX2                !
 ! D15   D(4,3,18,17)            0.8645         estimate D2E/DX2                !
 ! D16   D(4,3,18,31)         -178.1296         estimate D2E/DX2                !
 ! D17   D(3,4,5,6)           -176.5219         estimate D2E/DX2                !
 ! D18   D(3,4,5,17)             8.7035         estimate D2E/DX2                !
 ! D19   D(22,4,5,6)            -6.244          estimate D2E/DX2                !
 ! D20   D(22,4,5,17)          178.9814         estimate D2E/DX2                !
 ! D21   D(4,5,6,7)           -176.1384         estimate D2E/DX2                !
 ! D22   D(7,6,17,18)         -179.1204         estimate D2E/DX2                !
 ! D23   D(4,5,17,18)           -5.0552         estimate D2E/DX2                !
 ! D24   D(5,6,7,8)           -175.771          estimate D2E/DX2                !
 ! D25   D(5,6,7,23)             3.7075         estimate D2E/DX2                !
 ! D26   D(6,7,8,9)            178.6143         estimate D2E/DX2                !
 ! D27   D(6,7,8,24)            -2.76           estimate D2E/DX2                !
 ! D28   D(23,7,8,9)            -0.9636         estimate D2E/DX2                !
 ! D29   D(23,7,8,24)          177.6621         estimate D2E/DX2                !
 ! D30   D(6,7,23,16)           -3.9624         estimate D2E/DX2                !
 ! D31   D(8,7,23,16)          175.6926         estimate D2E/DX2                !
 ! D32   D(7,8,9,10)           179.4942         estimate D2E/DX2                !
 ! D33   D(7,8,9,25)             1.0996         estimate D2E/DX2                !
 ! D34   D(24,8,9,10)            0.8725         estimate D2E/DX2                !
 ! D35   D(24,8,9,25)         -177.522          estimate D2E/DX2                !
 ! D36   D(8,9,10,11)         -179.1665         estimate D2E/DX2                !
 ! D37   D(8,9,10,26)           -0.074          estimate D2E/DX2                !
 ! D38   D(25,9,10,11)          -0.5083         estimate D2E/DX2                !
 ! D39   D(25,9,10,26)         178.5842         estimate D2E/DX2                !
 ! D40   D(8,9,25,15)           -4.4705         estimate D2E/DX2                !
 ! D41   D(10,9,25,15)         177.0393         estimate D2E/DX2                !
 ! D42   D(9,10,11,12)        -176.6288         estimate D2E/DX2                !
 ! D43   D(26,10,11,12)          4.1088         estimate D2E/DX2                !
 ! D44   D(10,11,12,13)        175.0944         estimate D2E/DX2                !
 ! D45   D(10,11,12,27)         -5.1929         estimate D2E/DX2                !
 ! D46   D(11,12,13,28)        178.2122         estimate D2E/DX2                !
 ! D47   D(11,12,13,29)         -1.0429         estimate D2E/DX2                !
 ! D48   D(12,13,29,14)       -178.8228         estimate D2E/DX2                !
 ! D49   D(25,15,23,16)       -179.2992         estimate D2E/DX2                !
 ! D50   D(30,15,23,16)          1.9604         estimate D2E/DX2                !
 ! D51   D(23,15,25,9)           4.9961         estimate D2E/DX2                !
 ! D52   D(9,25,30,16)           3.0204         estimate D2E/DX2                !
 ! D53   D(23,15,30,16)         -1.9517         estimate D2E/DX2                !
 ! D54   D(30,16,23,7)        -176.7225         estimate D2E/DX2                !
 ! D55   D(30,16,23,15)         -1.4018         estimate D2E/DX2                !
 ! D56   D(23,16,30,15)          1.9876         estimate D2E/DX2                !
 ! D57   D(5,17,18,3)            3.8412         estimate D2E/DX2                !
 ! D58   D(5,17,18,31)        -178.6705         estimate D2E/DX2                !
 --------------------------------------------------------------------------------
 Trust Radius=3.00D-01 FncErr=1.00D-07 GrdErr=1.00D-06 EigMax=2.50D+02 EigMin=1.00D-04
 Number of steps in this run=    155 maximum allowed number of steps=    186.
 GradGradGradGradGradGradGradGradGradGradGradGradGradGradGradGradGradGrad

                          Input orientation:                          
 ---------------------------------------------------------------------
 Center     Atomic      Atomic             Coordinates (Angstroms)
 Number     Number       Type             X           Y           Z
 ---------------------------------------------------------------------
      1          7           0        1.079380   -0.091690   -0.056090
      2          7           0        2.515280   -0.111360   -0.149600
      3          6           0        3.363650   -0.831040   -1.155280
      4          6           0        4.495420   -1.505490   -0.980680
      5          6           0        5.524270   -2.339230   -2.160090
      6          7           0        6.222700   -2.693240   -1.102260
      7          6           0        7.205220   -3.306470   -1.434340
      8          6           0        8.213060   -3.953460   -0.870290
      9          6           0        9.131950   -4.550280   -1.499570
     10          6           0       10.112570   -5.166510   -0.804120
     11          7           0       10.905870   -5.665460   -1.568420
     12          6           0       11.936430   -6.365470   -1.616760
     13          6           0       11.543190   -6.174430   -3.162700
     14          7           0        9.947110   -5.191620   -3.818640
     15          6           0        8.222630   -4.049360   -3.804010
     16          6           0        6.606860   -3.023060   -3.639240
     17          6           0        4.967690   -1.947640   -3.326750
     18          6           0        3.582900   -1.050510   -2.723070
     19          1           0        0.727760    0.388620    0.799090
     20          1           0        0.712420   -1.044110    0.018860
     21          1           0        2.989920    0.295140    0.689780
     22          1           0        4.692720   -1.644020    0.102760
     23          1           0        7.494020   -3.479010   -2.344890
     24          1           0        8.257980   -3.951820    0.104010
     25          1           0        9.269790   -4.627660   -2.472140
     26          1           0       10.302550   -5.271970    0.177030
     27          1           0       12.446350   -6.653140   -0.567270
     28          1           0       12.723200   -6.933460   -3.452330
     29          1           0       10.659400   -5.583770   -2.814230
     30          1           0        7.568900   -3.661110   -4.656860
     31          1           0        2.386430   -0.277830   -2.805090
 ---------------------------------------------------------------------
                    Distance matrix (angstroms):
                    1          2          3          4          5
     1  N    0.000000
     2  N    1.439076   0.000000
     3  C    2.640596   1.499688   0.000000
     4  C    3.810909   2.560322   1.329011   0.000000
     5  C    5.406968   4.249647   2.820028   1.773320   0.000000
     6  N    5.858009   4.617210   3.412443   2.099769   1.316105
     7  C    7.054098   5.818490   4.578568   3.285172   2.070715
     8  C    8.152642   6.909835   5.774730   4.452594   3.391005
     9  C    9.317003   8.081259   6.872013   5.571122   4.282567
    10  C   10.388064   9.148866   8.029168   6.707206   5.557397
    11  N   11.397981  10.161844   8.968132   7.664506   6.354172
    12  C   12.636120  11.402829  10.214472   8.910254   7.590890
    13  C   12.495682  11.284624   9.974288   8.731052   7.207037
    14  N   10.899665   9.721265   8.333672   7.166763   5.518010
    15  C    8.985326   7.838138   6.401800   5.323022   3.592793
    16  C    7.210057   6.115277   4.636100   3.718755   1.956402
    17  C    5.409318   4.413674   2.921476   2.433635   1.350637
    18  C    3.781498   2.940164   1.598187   2.018817   2.397220
    19  H    1.041954   2.084519   3.500721   4.577171   6.261343
    20  H    1.023416   2.036837   2.907408   3.939929   5.438663
    21  H    2.087133   1.046463   2.193673   2.880839   4.635148
    22  H    3.935885   2.674692   2.002505   1.109937   2.509040
    23  H    7.606586   6.399079   5.048453   3.840241   2.283236
    24  H    8.152210   6.913180   5.939659   4.617136   3.898688
    25  H    9.669288   8.450714   7.143594   5.896355   4.400364
    26  H   10.580950   9.347735   8.345373   7.017793   6.074130
    27  H   13.134761  11.899390  10.804538   9.480849   8.310360
    28  H   13.925617  12.714193  11.406890  10.162100   8.637212
    29  H   11.381874  10.167311   8.863889   7.615046   6.109378
    30  H    8.719043   7.645600   6.160721   5.254263   3.487368
    31  H    3.049595   2.663821   1.995714   3.046877   3.809388
                    6          7          8          9         10
     6  N    0.000000
     7  C    1.204854   0.000000
     8  C    2.367171   1.323816   0.000000
     9  C    3.474218   2.294255   1.263545   0.000000
    10  C    4.619203   3.508505   2.254774   1.350928   0.000000
    11  N    5.566280   4.390629   3.266429   2.096463   1.209310
    12  C    6.811512   5.636941   4.498721   3.342717   2.329024
    13  C    6.683690   5.480001   4.612767   3.349320   2.936916
    14  N    5.243267   4.093487   3.637683   2.540450   3.019162
    15  C    3.624670   2.683718   2.935303   2.527494   3.717423
    16  C    2.587011   2.302160   3.333558   3.645088   4.992223
    17  C    2.660700   3.230197   4.537613   5.239598   6.572258
    18  C    3.506299   4.457733   5.770467   6.673627   7.953642
    19  H    6.580833   7.784561   8.813070  10.015337  11.022904
    20  H    5.860011   7.027554   8.094103   9.245937  10.297296
    21  H    4.753177   5.937359   6.911267   8.123785   9.099093
    22  H    2.212188   3.382170   4.321242   5.542614   6.527261
    23  H    1.943661   0.970709   1.707796   2.131901   3.475404
    24  H    2.679828   1.972638   0.975336   1.921834   2.395762
    25  H    3.860480   2.661770   2.033998   0.985332   1.944975
    26  H    4.993156   4.006639   2.683527   2.168439   1.004923
    27  H    7.396002   6.278651   5.029994   4.034408   2.777174
    28  H    8.109180   6.904741   5.990717   4.731796   4.117101
    29  H    5.565098   4.361370   3.524400   2.264848   2.124540
    30  H    3.922271   3.262310   3.852080   3.633487   4.855934
    31  H    4.842603   5.854259   7.155650   8.090751   9.359290
                   11         12         13         14         15
    11  N    0.000000
    12  C    1.246758   0.000000
    13  C    1.790798   1.606569   0.000000
    14  N    2.491432   3.191174   1.985861   0.000000
    15  C    3.848301   4.892927   3.994161   2.068527   0.000000
    16  C    5.454545   6.608059   5.875847   3.986491   1.921238
    17  C    7.223288   8.426424   7.818559   5.963219   3.903798
    18  C    8.732518   9.962639   9.477027   7.671521   5.629265
    19  H   12.076875  13.307455  13.256807  11.724288   9.851765
    20  H   11.304104  12.528788  12.399520  10.826253   8.947017
    21  H   10.163193  11.389640  11.395410   9.941473   8.151692
    22  H    7.587362   8.815905   8.838370   7.454627   5.788677
    23  H    4.126038   5.347601   4.932533   3.335060   1.727774
    24  H    3.570001   4.724167   5.138482   4.447184   3.909397
    25  H    2.137872   3.295850   2.835087   1.609309   1.790210
    26  H    1.888233   2.661388   3.675244   4.012253   4.655053
    27  H    2.085879   1.201749   2.789466   4.353579   5.924185
    28  H    2.908544   2.076280   1.432632   3.297706   5.356943
    29  H    1.272581   1.917236   1.118658   1.292276   3.044984
    30  H    4.969029   5.969178   4.933992   2.949738   1.142565
    31  H   10.155627  11.387449  10.896973   9.073946   7.020222
                   16         17         18         19         20
    16  C    0.000000
    17  C    1.985209   0.000000
    18  C    3.724870   1.756962   0.000000
    19  H    8.118014   6.360635   4.756946   0.000000
    20  H    7.214039   5.487877   3.969619   1.631475   0.000000
    21  H    6.544702   5.007409   3.716173   2.266728   2.725937
    22  H    4.423601   3.453887   3.093424   4.509702   4.026130
    23  H    1.634101   3.113115   4.619252   8.403895   7.583281
    24  H    4.195320   5.158765   6.185980   8.719333   8.086872
    25  H    3.320852   5.140129   6.723071  10.432176   9.606013
    26  H    5.768851   7.196414   8.448964  11.140280  10.481909
    27  H    7.530878   9.256717  10.705031  13.739675  13.018828
    28  H    7.261940   9.220743  10.894311  14.682575  13.820001
    29  H    4.864253   6.773454   8.404499  12.139316  11.295013
    30  H    1.538889   3.386955   5.142273   9.642038   8.701860
    31  H    5.103344   3.118220   1.426640   4.023115   3.371081
                   21         22         23         24         25
    21  H    0.000000
    22  H    2.646594   0.000000
    23  H    6.613649   4.147947   0.000000
    24  H    6.792073   4.247001   2.608504   0.000000
    25  H    8.583034   6.040016   2.118714   2.849047   0.000000
    26  H    9.204900   6.681147   4.178831   2.434829   2.915447
    27  H   11.801815   9.255215   6.144966   5.028935   4.221568
    28  H   12.811966  10.252095   6.364273   6.440180   4.266559
    29  H   10.279134   7.722158   3.830134   4.116577   1.721101
    30  H    8.074994   5.915661   2.320339   4.819256   2.932618
    31  H    3.592577   3.954876   6.045396   7.512401   8.149388
                   26         27         28         29         30
    26  H    0.000000
    27  H    2.656594   0.000000
    28  H    4.668228   2.911837   0.000000
    29  H    3.028564   3.063588   2.547176   0.000000
    30  H    5.782232   7.033243   6.223020   4.079595   0.000000
    31  H    9.823412  12.118350  12.311180   9.828281   6.460157
                   31
    31  H    0.000000
 Stoichiometry    C13H13N5
 Framework group  C1[X(C13H13N5)]
 Deg. of freedom    87
 Full point group                 C1      NOp   1
 Largest Abelian subgroup         C1      NOp   1
 Largest concise Abelian subgroup C1      NOp   1
                         Standard orientation:                         
 ---------------------------------------------------------------------
 Center     Atomic      Atomic             Coordinates (Angstroms)
 Number     Number       Type             X           Y           Z
 ---------------------------------------------------------------------
      1          7           0        6.798159   -0.826567    0.455747
      2          7           0        5.567099   -0.908315   -0.285027
      3          6           0        4.340228   -0.059839   -0.130299
      4          6           0        3.058891   -0.411959   -0.151708
      5          6           0        1.596909    0.579650    0.003150
      6          7           0        0.967760   -0.574944   -0.053567
      7          6           0       -0.224796   -0.403233   -0.053357
      8          6           0       -1.334606   -1.124494   -0.028969
      9          6           0       -2.505407   -0.649641   -0.012106
     10          6           0       -3.558377   -1.495849    0.001776
     11          7           0       -4.590650   -0.865897    0.000305
     12          6           0       -5.830488   -0.986567    0.051750
     13          6           0       -5.609661    0.604478    0.081360
     14          7           0       -3.841734    1.508953    0.080605
     15          6           0       -1.791283    1.774676    0.018595
     16          6           0        0.127431    1.871212   -0.000663
     17          6           0        2.111594    1.827333   -0.047882
     18          6           0        3.828011    1.453023   -0.074742
     19          1           0        7.461424   -1.600990    0.241235
     20          1           0        6.618791   -0.916835    1.459271
     21          1           0        5.494443   -1.771387   -0.872319
     22          1           0        2.967572   -1.517862   -0.127261
     23          1           0       -0.681711    0.453094   -0.067856
     24          1           0       -1.239213   -2.095031   -0.044435
     25          1           0       -2.793953    0.292353   -0.028550
     26          1           0       -3.640129   -2.497440    0.000968
     27          1           0       -6.267462   -2.105970    0.037895
     28          1           0       -7.038885    0.701095    0.101843
     29          1           0       -4.509753    0.403197    0.048472
     30          1           0       -1.153988    2.722976    0.024680
     31          1           0        5.227747    1.727442   -0.101814
 ---------------------------------------------------------------------
 Rotational constants (GHZ):           1.5415773           0.1412668           0.1299356
 Standard basis: 6-31G(2df,p) (6D, 7F)
 There are   623 symmetry adapted cartesian basis functions of A   symmetry.
 There are   569 symmetry adapted basis functions of A   symmetry.
   569 basis functions,   883 primitive gaussians,   623 cartesian basis functions
    63 alpha electrons       63 beta electrons
       nuclear repulsion energy      1123.2121113617 Hartrees.
 NAtoms=   31 NActive=   31 NUniq=   31 SFac= 1.00D+00 NAtFMM=   60 NAOKFM=F Big=F
 Integral buffers will be    131072 words long.
 Raffenetti 2 integral format.
 Two-electron integral symmetry is turned on.
 One-electron integrals computed using PRISM.
 PrsmSu:  requested number of processors reduced to:  12 ShMem   1 Linda.
 NBasis=   569 RedAO= T EigKep=  9.72D-05  NBF=   569
 NBsUse=   569 1.00D-06 EigRej= -1.00D+00 NBFU=   569
 ExpMin= 1.61D-01 ExpMax= 4.17D+03 ExpMxC= 6.27D+02 IAcc=3 IRadAn=         5 AccDes= 0.00D+00
 Harris functional with IExCor=  402 and IRadAn=       5 diagonalized for initial guess.
 HarFok:  IExCor=  402 AccDes= 0.00D+00 IRadAn=         5 IDoV= 1 UseB2=F ITyADJ=14
 ICtDFT=  3500011 ScaDFX=  1.000000  1.000000  1.000000  1.000000
 FoFCou: FMM=F IPFlag=           0 FMFlag=      100000 FMFlg1=           0
         NFxFlg=           0 DoJE=T BraDBF=F KetDBF=T FulRan=T
         wScrn=  0.000000 ICntrl=       500 IOpCl=  0 I1Cent=   200000004 NGrid=           0
         NMat0=    1 NMatS0=      1 NMatT0=    0 NMatD0=    1 NMtDS0=    0 NMtDT0=    0
 Petite list used in FoFCou.
 Requested convergence on RMS density matrix=1.00D-08 within 128 cycles.
 Requested convergence on MAX density matrix=1.00D-06.
 Requested convergence on             energy=1.00D-06.
 No special actions if energy rises.
 Integral accuracy reduced to 1.0D-05 until final iterations.
 Rare condition: small coef for last iteration:  0.000D+00
 EnCoef did   100 forward-backward iterations
 Problem detected with inexpensive integrals.
 Switching to full accuracy and repeating last cycle.
 EnCoef did     2 forward-backward iterations
 EnCoef did   100 forward-backward iterations
 EnCoef did   100 forward-backward iterations
 EnCoef did   100 forward-backward iterations
 EnCoef did    21 forward-backward iterations
 EnCoef did     9 forward-backward iterations
 EnCoef did     5 forward-backward iterations
 EnCoef did     3 forward-backward iterations
 EnCoef did     6 forward-backward iterations
 EnCoef did     9 forward-backward iterations
 EnCoef did     4 forward-backward iterations
 EnCoef did     5 forward-backward iterations
 EnCoef did     1 forward-backward iterations
 Restarting incremental Fock formation.
 SCF Done:  E(RB3LYP) =  -775.247649262     A.U. after   36 cycles
            NFock= 36  Conv=0.70D-08     -V/T= 2.0042

 **********************************************************************

            Population analysis using the SCF density.

 **********************************************************************

 Orbital symmetries:
       Occupied  (A) (A) (A) (A) (A) (A) (A) (A) (A) (A) (A) (A)
                 (A) (A) (A) (A) (A) (A) (A) (A) (A) (A) (A) (A)
                 (A) (A) (A) (A) (A) (A) (A) (A) (A) (A) (A) (A)
                 (A) (A) (A) (A) (A) (A) (A) (A) (A) (A) (A) (A)
                 (A) (A) (A) (A) (A) (A) (A) (A) (A) (A) (A) (A)
                 (A) (A) (A)
       Virtual   (A) (A) (A) (A) (A) (A) (A) (A) (A) (A) (A) (A)
                 (A) (A) (A) (A) (A) (A) (A) (A) (A) (A) (A) (A)
                 (A) (A) (A) (A) (A) (A) (A) (A) (A) (A) (A) (A)
                 (A) (A) (A) (A) (A) (A) (A) (A) (A) (A) (A) (A)
                 (A) (A) (A) (A) (A) (A) (A) (A) (A) (A) (A) (A)
                 (A) (A) (A) (A) (A) (A) (A) (A) (A) (A) (A) (A)
                 (A) (A) (A) (A) (A) (A) (A) (A) (A) (A) (A) (A)
                 (A) (A) (A) (A) (A) (A) (A) (A) (A) (A) (A) (A)
                 (A) (A) (A) (A) (A) (A) (A) (A) (A) (A) (A) (A)
                 (A) (A) (A) (A) (A) (A) (A) (A) (A) (A) (A) (A)
                 (A) (A) (A) (A) (A) (A) (A) (A) (A) (A) (A) (A)
                 (A) (A) (A) (A) (A) (A) (A) (A) (A) (A) (A) (A)
                 (A) (A) (A) (A) (A) (A) (A) (A) (A) (A) (A) (A)
                 (A) (A) (A) (A) (A) (A) (A) (A) (A) (A) (A) (A)
                 (A) (A) (A) (A) (A) (A) (A) (A) (A) (A) (A) (A)
                 (A) (A) (A) (A) (A) (A) (A) (A) (A) (A) (A) (A)
                 (A) (A) (A) (A) (A) (A) (A) (A) (A) (A) (A) (A)
                 (A) (A) (A) (A) (A) (A) (A) (A) (A) (A) (A) (A)
                 (A) (A) (A) (A) (A) (A) (A) (A) (A) (A) (A) (A)
                 (A) (A) (A) (A) (A) (A) (A) (A) (A) (A) (A) (A)
                 (A) (A) (A) (A) (A) (A) (A) (A) (A) (A) (A) (A)
                 (A) (A) (A) (A) (A) (A) (A) (A) (A) (A) (A) (A)
                 (A) (A) (A) (A) (A) (A) (A) (A) (A) (A) (A) (A)
                 (A) (A) (A) (A) (A) (A) (A) (A) (A) (A) (A) (A)
                 (A) (A) (A) (A) (A) (A) (A) (A) (A) (A) (A) (A)
                 (A) (A) (A) (A) (A) (A) (A) (A) (A) (A) (A) (A)
                 (A) (A) (A) (A) (A) (A) (A) (A) (A) (A) (A) (A)
                 (A) (A) (A) (A) (A) (A) (A) (A) (A) (A) (A) (A)
                 (A) (A) (A) (A) (A) (A) (A) (A) (A) (A) (A) (A)
                 (A) (A) (A) (A) (A) (A) (A) (A) (A) (A) (A) (A)
                 (A) (A) (A) (A) (A) (A) (A) (A) (A) (A) (A) (A)
                 (A) (A) (A) (A) (A) (A) (A) (A) (A) (A) (A) (A)
                 (A) (A) (A) (A) (A) (A) (A) (A) (A) (A) (A) (A)
                 (A) (A) (A) (A) (A) (A) (A) (A) (A) (A) (A) (A)
                 (A) (A) (A) (A) (A) (A) (A) (A) (A) (A) (A) (A)
                 (A) (A) (A) (A) (A) (A) (A) (A) (A) (A) (A) (A)
                 (A) (A) (A) (A) (A) (A) (A) (A) (A) (A) (A) (A)
                 (A) (A) (A) (A) (A) (A) (A) (A) (A) (A) (A) (A)
                 (A) (A) (A) (A) (A) (A) (A) (A) (A) (A) (A) (A)
                 (A) (A) (A) (A) (A) (A) (A) (A) (A) (A) (A) (A)
                 (A) (A) (A) (A) (A) (A) (A) (A) (A) (A) (A) (A)
                 (A) (A) (A) (A) (A) (A) (A) (A) (A) (A) (A) (A)
                 (A) (A)
 The electronic state is 1-A.
 Alpha  occ. eigenvalues --  -14.40122 -14.37980 -14.37729 -14.34957 -14.33517
 Alpha  occ. eigenvalues --  -10.31132 -10.29951 -10.28121 -10.26683 -10.26571
 Alpha  occ. eigenvalues --  -10.26332 -10.24809 -10.24628 -10.22970 -10.20522
 Alpha  occ. eigenvalues --  -10.19164 -10.15645 -10.15494  -1.05546  -1.01292
 Alpha  occ. eigenvalues --   -0.97682  -0.87571  -0.85936  -0.82608  -0.79743
 Alpha  occ. eigenvalues --   -0.76968  -0.75211  -0.72169  -0.68611  -0.64380
 Alpha  occ. eigenvalues --   -0.62304  -0.60799  -0.59352  -0.58407  -0.56920
 Alpha  occ. eigenvalues --   -0.54113  -0.52193  -0.51131  -0.48198  -0.47506
 Alpha  occ. eigenvalues --   -0.46810  -0.46601  -0.45556  -0.44236  -0.44083
 Alpha  occ. eigenvalues --   -0.41248  -0.40132  -0.38187  -0.37322  -0.34620
 Alpha  occ. eigenvalues --   -0.34513  -0.31760  -0.30829  -0.27881  -0.27442
 Alpha  occ. eigenvalues --   -0.24784  -0.24528  -0.23574  -0.21853  -0.20658
 Alpha  occ. eigenvalues --   -0.20237  -0.19617  -0.18652
 Alpha virt. eigenvalues --   -0.14415  -0.13587  -0.10240  -0.07937  -0.07111
 Alpha virt. eigenvalues --   -0.05605  -0.02629  -0.00707   0.00829   0.02974
 Alpha virt. eigenvalues --    0.03504   0.04251   0.05440   0.06416   0.07382
 Alpha virt. eigenvalues --    0.08907   0.11215   0.11837   0.11974   0.13859
 Alpha virt. eigenvalues --    0.14410   0.16618   0.16912   0.17951   0.18687
 Alpha virt. eigenvalues --    0.19518   0.23361   0.24944   0.25755   0.29606
 Alpha virt. eigenvalues --    0.29668   0.30499   0.32670   0.34706   0.35764
 Alpha virt. eigenvalues --    0.38227   0.39823   0.40180   0.42128   0.43086
 Alpha virt. eigenvalues --    0.43541   0.44175   0.45792   0.47002   0.47896
 Alpha virt. eigenvalues --    0.48800   0.49227   0.49399   0.49942   0.50575
 Alpha virt. eigenvalues --    0.51841   0.52402   0.53189   0.53267   0.53891
 Alpha virt. eigenvalues --    0.54647   0.54760   0.55134   0.56013   0.56074
 Alpha virt. eigenvalues --    0.56543   0.57875   0.58182   0.58461   0.59417
 Alpha virt. eigenvalues --    0.60286   0.61614   0.61693   0.61906   0.62824
 Alpha virt. eigenvalues --    0.63757   0.64347   0.65329   0.65958   0.66512
 Alpha virt. eigenvalues --    0.66933   0.67377   0.68218   0.68855   0.70096
 Alpha virt. eigenvalues --    0.70380   0.71501   0.71686   0.72578   0.73595
 Alpha virt. eigenvalues --    0.73904   0.74399   0.76225   0.77264   0.77411
 Alpha virt. eigenvalues --    0.78890   0.79455   0.79745   0.79986   0.81100
 Alpha virt. eigenvalues --    0.81240   0.82707   0.83301   0.83509   0.84251
 Alpha virt. eigenvalues --    0.84656   0.84773   0.85015   0.86516   0.87141
 Alpha virt. eigenvalues --    0.88051   0.89123   0.89268   0.91272   0.92418
 Alpha virt. eigenvalues --    0.92856   0.93959   0.94673   0.95634   0.96383
 Alpha virt. eigenvalues --    0.96487   0.97810   0.99199   1.00406   1.00524
 Alpha virt. eigenvalues --    1.00774   1.02276   1.03284   1.05310   1.06536
 Alpha virt. eigenvalues --    1.08012   1.08534   1.09773   1.10012   1.10508
 Alpha virt. eigenvalues --    1.11343   1.12837   1.13191   1.13963   1.15412
 Alpha virt. eigenvalues --    1.16309   1.17181   1.19061   1.21223   1.22039
 Alpha virt. eigenvalues --    1.23500   1.24748   1.24992   1.25922   1.27398
 Alpha virt. eigenvalues --    1.29334   1.30028   1.30875   1.31747   1.32836
 Alpha virt. eigenvalues --    1.34518   1.35007   1.35923   1.36435   1.37632
 Alpha virt. eigenvalues --    1.38022   1.41363   1.42076   1.44196   1.44909
 Alpha virt. eigenvalues --    1.45188   1.45783   1.46178   1.48055   1.48448
 Alpha virt. eigenvalues --    1.48874   1.50965   1.51271   1.53150   1.54483
 Alpha virt. eigenvalues --    1.54900   1.56318   1.57525   1.57859   1.58786
 Alpha virt. eigenvalues --    1.60086   1.60847   1.62326   1.63099   1.67264
 Alpha virt. eigenvalues --    1.67689   1.68568   1.69160   1.69918   1.71329
 Alpha virt. eigenvalues --    1.71891   1.74447   1.74526   1.75326   1.76900
 Alpha virt. eigenvalues --    1.79938   1.80924   1.81709   1.83625   1.86896
 Alpha virt. eigenvalues --    1.87643   1.88483   1.89845   1.92554   1.94831
 Alpha virt. eigenvalues --    1.95553   1.97441   2.01792   2.02504   2.05431
 Alpha virt. eigenvalues --    2.06553   2.07598   2.11711   2.13521   2.14816
 Alpha virt. eigenvalues --    2.15120   2.16085   2.18466   2.21221   2.21379
 Alpha virt. eigenvalues --    2.23433   2.24412   2.25898   2.26357   2.28093
 Alpha virt. eigenvalues --    2.28524   2.32820   2.33037   2.34563   2.36363
 Alpha virt. eigenvalues --    2.38053   2.40625   2.40986   2.41998   2.43316
 Alpha virt. eigenvalues --    2.44412   2.47235   2.48949   2.49579   2.51170
 Alpha virt. eigenvalues --    2.54054   2.56347   2.58261   2.59171   2.60179
 Alpha virt. eigenvalues --    2.61967   2.62851   2.65052   2.66890   2.68591
 Alpha virt. eigenvalues --    2.69498   2.72383   2.73347   2.74874   2.75622
 Alpha virt. eigenvalues --    2.76700   2.77916   2.79334   2.80036   2.81041
 Alpha virt. eigenvalues --    2.81826   2.82833   2.84166   2.84456   2.86236
 Alpha virt. eigenvalues --    2.87433   2.88632   2.89205   2.89933   2.90358
 Alpha virt. eigenvalues --    2.91130   2.93397   2.94562   2.96609   2.96918
 Alpha virt. eigenvalues --    2.99110   3.00474   3.00886   3.01894   3.02479
 Alpha virt. eigenvalues --    3.05293   3.05726   3.06634   3.07523   3.08642
 Alpha virt. eigenvalues --    3.09333   3.09730   3.12519   3.13082   3.14554
 Alpha virt. eigenvalues --    3.15515   3.16451   3.18095   3.18778   3.18915
 Alpha virt. eigenvalues --    3.21599   3.22344   3.24503   3.25442   3.25820
 Alpha virt. eigenvalues --    3.26885   3.27667   3.28038   3.32585   3.33213
 Alpha virt. eigenvalues --    3.34161   3.34983   3.35393   3.36283   3.37380
 Alpha virt. eigenvalues --    3.37937   3.40236   3.41530   3.43025   3.43698
 Alpha virt. eigenvalues --    3.45182   3.45702   3.47872   3.48563   3.49421
 Alpha virt. eigenvalues --    3.50592   3.51513   3.52269   3.53384   3.53636
 Alpha virt. eigenvalues --    3.55590   3.56599   3.59010   3.60136   3.61542
 Alpha virt. eigenvalues --    3.63652   3.64556   3.65569   3.66821   3.69684
 Alpha virt. eigenvalues --    3.71856   3.72225   3.72608   3.73246   3.75522
 Alpha virt. eigenvalues --    3.75846   3.75996   3.77300   3.78239   3.79227
 Alpha virt. eigenvalues --    3.79724   3.82560   3.83662   3.84493   3.85336
 Alpha virt. eigenvalues --    3.87084   3.87266   3.88478   3.89607   3.90561
 Alpha virt. eigenvalues --    3.91225   3.92872   3.95191   3.97199   3.98143
 Alpha virt. eigenvalues --    3.99648   4.02368   4.03925   4.04409   4.04806
 Alpha virt. eigenvalues --    4.07819   4.09245   4.10371   4.10652   4.12346
 Alpha virt. eigenvalues --    4.14310   4.15520   4.15934   4.17714   4.19437
 Alpha virt. eigenvalues --    4.19813   4.20162   4.22069   4.23199   4.24022
 Alpha virt. eigenvalues --    4.25263   4.26184   4.27201   4.29105   4.29372
 Alpha virt. eigenvalues --    4.30414   4.31045   4.32877   4.33719   4.34720
 Alpha virt. eigenvalues --    4.35401   4.37904   4.38350   4.39069   4.39725
 Alpha virt. eigenvalues --    4.40208   4.41632   4.42934   4.43954   4.44642
 Alpha virt. eigenvalues --    4.45993   4.46459   4.47832   4.48718   4.50020
 Alpha virt. eigenvalues --    4.51290   4.51750   4.52472   4.53182   4.54361
 Alpha virt. eigenvalues --    4.55048   4.56895   4.57361   4.58087   4.58683
 Alpha virt. eigenvalues --    4.60322   4.60527   4.61570   4.63447   4.63781
 Alpha virt. eigenvalues --    4.65691   4.66328   4.68178   4.69004   4.69972
 Alpha virt. eigenvalues --    4.70709   4.71266   4.72213   4.73233   4.74039
 Alpha virt. eigenvalues --    4.76669   4.77801   4.79944   4.80831   4.81916
 Alpha virt. eigenvalues --    4.82125   4.83570   4.86484   4.89100   4.90282
 Alpha virt. eigenvalues --    4.92561   4.94400   4.96600   4.97212   4.98935
 Alpha virt. eigenvalues --    4.99835   4.99977   5.02400   5.04780   5.08127
 Alpha virt. eigenvalues --    5.09603   5.11339   5.12725   5.15685   5.17073
 Alpha virt. eigenvalues --    5.19282   5.20196   5.24171   5.25170   5.26405
 Alpha virt. eigenvalues --    5.28486   5.30614   5.32093   5.34106   5.35478
 Alpha virt. eigenvalues --    5.37600   5.42554   5.46422   5.49079   5.51640
 Alpha virt. eigenvalues --    5.53875   5.55304   5.65354   5.69437   5.73604
 Alpha virt. eigenvalues --    5.76866   5.77939   5.82874   5.93655   5.96894
 Alpha virt. eigenvalues --    6.05410   6.12403   6.18596   6.30190   6.39780
 Alpha virt. eigenvalues --    6.67935   7.23131   7.35422   7.73786   9.31681
 Alpha virt. eigenvalues --    9.76678  10.14362  10.24474  10.32166  10.48017
 Alpha virt. eigenvalues --   10.68639  10.85863  10.88347  11.12370  11.15548
 Alpha virt. eigenvalues --   11.37134  11.38986  11.41206  11.44650  11.69748
 Alpha virt. eigenvalues --   11.82953  11.96725  12.44334  13.88089  25.49982
 Alpha virt. eigenvalues --   27.50969
          Condensed to atoms (all electrons):
               1          2          3          4          5          6
     1  N    6.605488   0.275116  -0.036755  -0.000269  -0.000008   0.000000
     2  N    0.275116   6.549860   0.358671  -0.025764   0.001236  -0.000078
     3  C   -0.036755   0.358671   4.951433   0.457297  -0.004815   0.005388
     4  C   -0.000269  -0.025764   0.457297   5.159371   0.312551  -0.091044
     5  C   -0.000008   0.001236  -0.004815   0.312551   4.480331   0.533039
     6  N    0.000000  -0.000078   0.005388  -0.091044   0.533039   6.421230
     7  C    0.000000  -0.000001  -0.000048   0.001962  -0.144089   0.605403
     8  C    0.000000  -0.000000   0.000023   0.000243   0.002598   0.024954
     9  C   -0.000000   0.000000   0.000000  -0.000019   0.001663   0.001955
    10  C    0.000000  -0.000000   0.000000   0.000000   0.000013  -0.000097
    11  N    0.000000   0.000000   0.000000   0.000000  -0.000000  -0.000000
    12  C    0.000000   0.000000   0.000000   0.000000  -0.000000  -0.000000
    13  C    0.000000   0.000000  -0.000000   0.000000  -0.000000   0.000000
    14  N   -0.000000   0.000000  -0.000000  -0.000000  -0.000002   0.000007
    15  C    0.000000  -0.000000  -0.000000  -0.000070   0.003369  -0.000194
    16  C   -0.000000   0.000001   0.000162  -0.000229   0.077598  -0.017472
    17  C   -0.000001   0.000193  -0.016099  -0.097836   0.475747  -0.002709
    18  C   -0.000798  -0.027280   0.242881  -0.010010  -0.086682  -0.002687
    19  H    0.336330  -0.027146   0.002610  -0.000076   0.000000  -0.000000
    20  H    0.329843  -0.052104  -0.000420   0.000184  -0.000005  -0.000000
    21  H   -0.045556   0.358116  -0.040721   0.003275  -0.000044   0.000019
    22  H   -0.000377  -0.005429  -0.109632   0.326399  -0.034739   0.006873
    23  H    0.000000  -0.000000   0.000118   0.000562  -0.024756  -0.098317
    24  H    0.000000  -0.000000   0.000001  -0.000054  -0.001103  -0.014502
    25  H    0.000000   0.000000   0.000000   0.000001   0.000023  -0.000401
    26  H    0.000000   0.000000   0.000000   0.000000   0.000002  -0.000003
    27  H    0.000000   0.000000   0.000000   0.000000   0.000000  -0.000000
    28  H    0.000000   0.000000   0.000000  -0.000000   0.000000  -0.000000
    29  H   -0.000000  -0.000000   0.000000  -0.000000   0.000000  -0.000001
    30  H    0.000000  -0.000000  -0.000000  -0.000021  -0.001468   0.000368
    31  H    0.003273  -0.000583  -0.051678   0.003477   0.004897  -0.000011
               7          8          9         10         11         12
     1  N    0.000000   0.000000  -0.000000   0.000000   0.000000   0.000000
     2  N   -0.000001  -0.000000   0.000000  -0.000000   0.000000   0.000000
     3  C   -0.000048   0.000023   0.000000   0.000000   0.000000   0.000000
     4  C    0.001962   0.000243  -0.000019   0.000000   0.000000   0.000000
     5  C   -0.144089   0.002598   0.001663   0.000013  -0.000000  -0.000000
     6  N    0.605403   0.024954   0.001955  -0.000097  -0.000000  -0.000000
     7  C    4.714262   0.500775   0.057429   0.000842  -0.000146  -0.000010
     8  C    0.500775   5.002349   0.486062  -0.027307   0.003180  -0.000984
     9  C    0.057429   0.486062   4.912381   0.491380  -0.018226   0.010520
    10  C    0.000842  -0.027307   0.491380   4.993362   0.529526  -0.152210
    11  N   -0.000146   0.003180  -0.018226   0.529526   6.008909   0.545140
    12  C   -0.000010  -0.000984   0.010520  -0.152210   0.545140   5.262833
    13  C    0.000007  -0.000695   0.001210   0.017513  -0.145441   0.361985
    14  N    0.001579   0.006002   0.010973  -0.018359  -0.068049  -0.011828
    15  C   -0.002051  -0.045165  -0.020277   0.004896  -0.001059  -0.000156
    16  C   -0.048430  -0.014421   0.006803   0.000128  -0.000007  -0.000000
    17  C    0.000848  -0.000414   0.000003  -0.000000   0.000000   0.000000
    18  C   -0.000723   0.000009   0.000001   0.000000   0.000000   0.000000
    19  H   -0.000000   0.000000   0.000000  -0.000000   0.000000   0.000000
    20  H   -0.000000   0.000000   0.000000   0.000000   0.000000   0.000000
    21  H    0.000000  -0.000000  -0.000000  -0.000000  -0.000000  -0.000000
    22  H    0.001073  -0.000159   0.000005  -0.000000  -0.000000  -0.000000
    23  H    0.248555  -0.005582  -0.057360   0.000032   0.000291   0.000015
    24  H   -0.067742   0.328179  -0.069182  -0.033271   0.000174   0.000024
    25  H   -0.033340  -0.060225   0.324739  -0.049153   0.008306   0.005778
    26  H   -0.000454  -0.011021  -0.030984   0.294733  -0.038428  -0.001593
    27  H   -0.000000   0.000015  -0.001449  -0.006570  -0.037271   0.293386
    28  H    0.000000   0.000008  -0.000022  -0.001357   0.013850  -0.100073
    29  H    0.000284   0.001163  -0.010509  -0.016503   0.137648  -0.060099
    30  H    0.006801   0.002850   0.000940  -0.000170   0.000045   0.000002
    31  H    0.000004  -0.000000  -0.000000  -0.000000  -0.000000  -0.000000
              13         14         15         16         17         18
     1  N    0.000000  -0.000000   0.000000  -0.000000  -0.000001  -0.000798
     2  N    0.000000   0.000000  -0.000000   0.000001   0.000193  -0.027280
     3  C   -0.000000  -0.000000  -0.000000   0.000162  -0.016099   0.242881
     4  C    0.000000  -0.000000  -0.000070  -0.000229  -0.097836  -0.010010
     5  C   -0.000000  -0.000002   0.003369   0.077598   0.475747  -0.086682
     6  N    0.000000   0.000007  -0.000194  -0.017472  -0.002709  -0.002687
     7  C    0.000007   0.001579  -0.002051  -0.048430   0.000848  -0.000723
     8  C   -0.000695   0.006002  -0.045165  -0.014421  -0.000414   0.000009
     9  C    0.001210   0.010973  -0.020277   0.006803   0.000003   0.000001
    10  C    0.017513  -0.018359   0.004896   0.000128  -0.000000   0.000000
    11  N   -0.145441  -0.068049  -0.001059  -0.000007   0.000000   0.000000
    12  C    0.361985  -0.011828  -0.000156  -0.000000   0.000000   0.000000
    13  C    5.758804   0.095128   0.003855  -0.000012   0.000000   0.000000
    14  N    0.095128   7.463314   0.099712  -0.000757  -0.000002   0.000000
    15  C    0.003855   0.099712   5.981979   0.123097  -0.001874  -0.000015
    16  C   -0.000012  -0.000757   0.123097   6.099173   0.048713   0.000136
    17  C    0.000000  -0.000002  -0.001874   0.048713   5.488337   0.310124
    18  C    0.000000   0.000000  -0.000015   0.000136   0.310124   5.452717
    19  H    0.000000  -0.000000  -0.000000   0.000000   0.000000  -0.000008
    20  H   -0.000000  -0.000000   0.000000  -0.000000  -0.000000  -0.000173
    21  H    0.000000   0.000000   0.000000  -0.000000  -0.000013   0.002357
    22  H   -0.000000   0.000000  -0.000001   0.000133   0.008335   0.021743
    23  H   -0.000015  -0.002972  -0.063051  -0.080111   0.013490  -0.000264
    24  H   -0.000040  -0.000418  -0.002743  -0.000551   0.000018  -0.000001
    25  H    0.002611  -0.103651  -0.030397  -0.000312  -0.000004   0.000000
    26  H   -0.002943  -0.001597  -0.000361   0.000000   0.000000   0.000000
    27  H   -0.029671  -0.000787   0.000001  -0.000000   0.000000   0.000000
    28  H    0.185850  -0.006388  -0.000014   0.000000  -0.000000   0.000000
    29  H    0.064687   0.084836   0.000688  -0.000007   0.000000  -0.000000
    30  H   -0.000109   0.000718   0.159017   0.009779   0.004745  -0.000038
    31  H    0.000000  -0.000000  -0.000000  -0.000024  -0.011734   0.222135
              19         20         21         22         23         24
     1  N    0.336330   0.329843  -0.045556  -0.000377   0.000000   0.000000
     2  N   -0.027146  -0.052104   0.358116  -0.005429  -0.000000  -0.000000
     3  C    0.002610  -0.000420  -0.040721  -0.109632   0.000118   0.000001
     4  C   -0.000076   0.000184   0.003275   0.326399   0.000562  -0.000054
     5  C    0.000000  -0.000005  -0.000044  -0.034739  -0.024756  -0.001103
     6  N   -0.000000  -0.000000   0.000019   0.006873  -0.098317  -0.014502
     7  C   -0.000000  -0.000000   0.000000   0.001073   0.248555  -0.067742
     8  C    0.000000   0.000000  -0.000000  -0.000159  -0.005582   0.328179
     9  C    0.000000   0.000000  -0.000000   0.000005  -0.057360  -0.069182
    10  C   -0.000000   0.000000  -0.000000  -0.000000   0.000032  -0.033271
    11  N    0.000000   0.000000  -0.000000  -0.000000   0.000291   0.000174
    12  C    0.000000   0.000000  -0.000000  -0.000000   0.000015   0.000024
    13  C    0.000000  -0.000000   0.000000  -0.000000  -0.000015  -0.000040
    14  N   -0.000000  -0.000000   0.000000   0.000000  -0.002972  -0.000418
    15  C   -0.000000   0.000000   0.000000  -0.000001  -0.063051  -0.002743
    16  C    0.000000  -0.000000  -0.000000   0.000133  -0.080111  -0.000551
    17  C    0.000000  -0.000000  -0.000013   0.008335   0.013490   0.000018
    18  C   -0.000008  -0.000173   0.002357   0.021743  -0.000264  -0.000001
    19  H    0.465672  -0.034154  -0.006780  -0.000013  -0.000000  -0.000000
    20  H   -0.034154   0.504856   0.001807  -0.000120  -0.000000  -0.000000
    21  H   -0.006780   0.001807   0.458290   0.005212   0.000000   0.000000
    22  H   -0.000013  -0.000120   0.005212   0.704519  -0.000006   0.000006
    23  H   -0.000000  -0.000000   0.000000  -0.000006   0.790808   0.023738
    24  H   -0.000000  -0.000000   0.000000   0.000006   0.023738   0.765594
    25  H    0.000000   0.000000  -0.000000   0.000000   0.017851   0.013103
    26  H    0.000000   0.000000  -0.000000   0.000000   0.000244   0.012337
    27  H    0.000000   0.000000  -0.000000  -0.000000   0.000000   0.000020
    28  H    0.000000   0.000000   0.000000   0.000000  -0.000000   0.000000
    29  H   -0.000000  -0.000000   0.000000   0.000000  -0.000206  -0.000038
    30  H   -0.000000  -0.000000   0.000000   0.000001   0.001763   0.000073
    31  H   -0.000059   0.000332  -0.000366  -0.001461   0.000001   0.000000
              25         26         27         28         29         30
     1  N    0.000000   0.000000   0.000000   0.000000  -0.000000   0.000000
     2  N    0.000000   0.000000   0.000000   0.000000  -0.000000  -0.000000
     3  C    0.000000   0.000000   0.000000   0.000000   0.000000  -0.000000
     4  C    0.000001   0.000000   0.000000  -0.000000  -0.000000  -0.000021
     5  C    0.000023   0.000002   0.000000   0.000000   0.000000  -0.001468
     6  N   -0.000401  -0.000003  -0.000000  -0.000000  -0.000001   0.000368
     7  C   -0.033340  -0.000454  -0.000000   0.000000   0.000284   0.006801
     8  C   -0.060225  -0.011021   0.000015   0.000008   0.001163   0.002850
     9  C    0.324739  -0.030984  -0.001449  -0.000022  -0.010509   0.000940
    10  C   -0.049153   0.294733  -0.006570  -0.001357  -0.016503  -0.000170
    11  N    0.008306  -0.038428  -0.037271   0.013850   0.137648   0.000045
    12  C    0.005778  -0.001593   0.293386  -0.100073  -0.060099   0.000002
    13  C    0.002611  -0.002943  -0.029671   0.185850   0.064687  -0.000109
    14  N   -0.103651  -0.001597  -0.000787  -0.006388   0.084836   0.000718
    15  C   -0.030397  -0.000361   0.000001  -0.000014   0.000688   0.159017
    16  C   -0.000312   0.000000  -0.000000   0.000000  -0.000007   0.009779
    17  C   -0.000004   0.000000   0.000000  -0.000000   0.000000   0.004745
    18  C    0.000000   0.000000   0.000000   0.000000  -0.000000  -0.000038
    19  H    0.000000   0.000000   0.000000   0.000000  -0.000000  -0.000000
    20  H    0.000000   0.000000   0.000000   0.000000  -0.000000  -0.000000
    21  H   -0.000000  -0.000000  -0.000000   0.000000   0.000000   0.000000
    22  H    0.000000   0.000000  -0.000000   0.000000   0.000000   0.000001
    23  H    0.017851   0.000244   0.000000  -0.000000  -0.000206   0.001763
    24  H    0.013103   0.012337   0.000020   0.000000  -0.000038   0.000073
    25  H    0.601866   0.009112   0.000201   0.000042  -0.013168  -0.000636
    26  H    0.009112   0.661532   0.014765   0.000122   0.002050   0.000003
    27  H    0.000201   0.014765   0.627822   0.006795   0.004739   0.000000
    28  H    0.000042   0.000122   0.006795   0.854794   0.008137   0.000001
    29  H   -0.013168   0.002050   0.004739   0.008137   0.276544   0.000115
    30  H   -0.000636   0.000003   0.000000   0.000001   0.000115   0.630738
    31  H   -0.000000  -0.000000  -0.000000  -0.000000  -0.000000   0.000000
              31
     1  N    0.003273
     2  N   -0.000583
     3  C   -0.051678
     4  C    0.003477
     5  C    0.004897
     6  N   -0.000011
     7  C    0.000004
     8  C   -0.000000
     9  C   -0.000000
    10  C   -0.000000
    11  N   -0.000000
    12  C   -0.000000
    13  C    0.000000
    14  N   -0.000000
    15  C   -0.000000
    16  C   -0.000024
    17  C   -0.011734
    18  C    0.222135
    19  H   -0.000059
    20  H    0.000332
    21  H   -0.000366
    22  H   -0.001461
    23  H    0.000001
    24  H    0.000000
    25  H   -0.000000
    26  H   -0.000000
    27  H   -0.000000
    28  H   -0.000000
    29  H   -0.000000
    30  H    0.000000
    31  H    0.735033
 Mulliken charges:
               1
     1  N   -0.466287
     2  N   -0.404808
     3  C    0.241584
     4  C   -0.039931
     5  C    0.404644
     6  N   -0.371720
     7  C    0.157210
     8  C   -0.192438
     9  C   -0.098035
    10  C   -0.027429
    11  N    0.061555
    12  C   -0.152729
    13  C   -0.312727
    14  N   -0.547460
    15  C   -0.209189
    16  C   -0.203393
    17  C   -0.219867
    18  C   -0.123426
    19  H    0.263623
    20  H    0.249956
    21  H    0.264404
    22  H    0.077638
    23  H    0.235172
    24  H    0.046378
    25  H    0.307652
    26  H    0.092483
    27  H    0.128002
    28  H    0.038255
    29  H    0.519638
    30  H    0.184483
    31  H    0.096764
 Sum of Mulliken charges =  -0.00000
 Mulliken charges with hydrogens summed into heavy atoms:
               1
     1  N    0.047292
     2  N   -0.140404
     3  C    0.241584
     4  C    0.037707
     5  C    0.404644
     6  N   -0.371720
     7  C    0.392382
     8  C   -0.146060
     9  C    0.209617
    10  C    0.065054
    11  N    0.061555
    12  C   -0.024727
    13  C    0.245165
    14  N   -0.547460
    15  C   -0.024706
    16  C   -0.203393
    17  C   -0.219867
    18  C   -0.026663
 Electronic spatial extent (au):  <R**2>=           7774.2957
 Charge=             -0.0000 electrons
 Dipole moment (field-independent basis, Debye):
    X=              5.2989    Y=             -8.0269    Z=              0.2087  Tot=              9.6204
 Quadrupole moment (field-independent basis, Debye-Ang):
   XX=            -80.2004   YY=           -105.0601   ZZ=           -107.5066
   XY=              2.7491   XZ=              3.4494   YZ=              0.5101
 Traceless Quadrupole moment (field-independent basis, Debye-Ang):
   XX=             17.3886   YY=             -7.4710   ZZ=             -9.9176
   XY=              2.7491   XZ=              3.4494   YZ=              0.5101
 Octapole moment (field-independent basis, Debye-Ang**2):
  XXX=            224.4377  YYY=            -64.8650  ZZZ=              3.5170  XYY=             30.2844
  XXY=           -239.5317  XXZ=             20.6912  XZZ=             27.5765  YZZ=            -16.3782
  YYZ=             -2.6062  XYZ=              3.1417
 Hexadecapole moment (field-independent basis, Debye-Ang**3):
 XXXX=          -8286.8481 YYYY=          -1015.2183 ZZZZ=           -124.7369 XXXY=           -296.6957
 XXXZ=            195.9968 YYYX=            -35.8209 YYYZ=              7.6774 ZZZX=             31.3695
 ZZZY=             -1.6938 XXYY=          -1552.0812 XXZZ=          -1572.9363 YYZZ=           -199.4582
 XXYZ=             -8.5672 YYXZ=             -9.6878 ZZXY=            -26.5799
 N-N= 1.123212111362D+03 E-N=-4.049437589650D+03  KE= 7.719908632587D+02
 PrsmSu:  requested number of processors reduced to:  13 ShMem   1 Linda.
 Calling FoFJK, ICntrl=      2127 FMM=F ISym2X=0 I1Cent= 0 IOpClX= 0 NMat=1 NMatS=1 NMatT=0.
 ***** Axes restored to original set *****
 -------------------------------------------------------------------
 Center     Atomic                   Forces (Hartrees/Bohr)
 Number     Number              X              Y              Z
 -------------------------------------------------------------------
      1        7          -0.013785624   -0.005570686   -0.012260167
      2        7           0.040320225   -0.007833683   -0.013907482
      3        6           0.005549802   -0.001913515   -0.041672271
      4        6          -0.012319960   -0.002891565    0.076734380
      5        6          -0.106854189    0.089677652    0.087593878
      6        7          -0.045263492    0.022363691    0.019030342
      7        6           0.110958661   -0.070354726    0.060536618
      8        6          -0.074111563    0.049445427    0.055704177
      9        6           0.048977223   -0.028329133    0.051126731
     10        6          -0.064462559    0.043504371    0.033116731
     11        7           0.010802438   -0.003155413    0.017161942
     12        6           0.039634161   -0.024315083   -0.024920854
     13        6           0.221374754   -0.147332011   -0.032131533
     14        7           0.013686125   -0.008642346   -0.013232025
     15        6          -0.039358713    0.019487478   -0.043098126
     16        6           0.023821256   -0.019053169   -0.051378972
     17        6          -0.026527131    0.012801728   -0.008426953
     18        6          -0.099175847    0.064963816    0.026406052
     19        1           0.021603522   -0.004155981   -0.017084827
     20        1           0.006693870    0.000120946    0.002994522
     21        1          -0.004275380   -0.020714855   -0.027461262
     22        1           0.025246603   -0.011082897   -0.008323553
     23        1           0.010110674   -0.003333030   -0.112390951
     24        1           0.004654765   -0.002865789    0.113271480
     25        1           0.004131805    0.000470904   -0.058067504
     26        1           0.000975053   -0.000818813    0.080330798
     27        1          -0.006443380    0.001005311   -0.050135794
     28        1          -0.057800710    0.035181698   -0.034616711
     29        1          -0.098434975    0.064276560   -0.005523316
     30        1          -0.000187326    0.000268981   -0.022103135
     31        1           0.060459912   -0.041205869   -0.047272214
 -------------------------------------------------------------------
 Cartesian Forces:  Max     0.221374754 RMS     0.052059572

 GradGradGradGradGradGradGradGradGradGradGradGradGradGradGradGradGradGrad
 Berny optimization.
 FormGI is forming the generalized inverse of G from B-inverse, IUseBI=4.
 Internal  Forces:  Max     0.238773731 RMS     0.057297973
 Search for a local minimum.
 Step number   1 out of a maximum of  155
 All quantities printed in internal units (Hartrees-Bohrs-Radians)
 Mixed Optimization -- RFO/linear search
 Second derivative matrix not updated -- first step.
 ITU=  0
     Eigenvalues ---    0.00230   0.00230   0.00230   0.00231   0.00233
     Eigenvalues ---    0.00373   0.00476   0.00490   0.00642   0.00778
     Eigenvalues ---    0.00793   0.01033   0.01188   0.01393   0.01481
     Eigenvalues ---    0.01690   0.01692   0.02021   0.02738   0.03007
     Eigenvalues ---    0.03105   0.03126   0.03393   0.03605   0.03719
     Eigenvalues ---    0.04214   0.04273   0.05198   0.05487   0.06504
     Eigenvalues ---    0.06518   0.08054   0.09211   0.10372   0.11782
     Eigenvalues ---    0.13271   0.13465   0.13710   0.15235   0.15854
     Eigenvalues ---    0.15861   0.15985   0.15997   0.15999   0.16000
     Eigenvalues ---    0.16000   0.16000   0.16616   0.16818   0.18186
     Eigenvalues ---    0.18992   0.19809   0.20982   0.21873   0.22000
     Eigenvalues ---    0.22053   0.22290   0.23326   0.23350   0.23614
     Eigenvalues ---    0.24249   0.24404   0.24538   0.24977   0.25000
     Eigenvalues ---    0.25000   0.28232   0.31700   0.32410   0.32607
     Eigenvalues ---    0.39712   0.40371   0.41012   0.43797   0.46608
     Eigenvalues ---    0.46833   0.51992   0.52301   0.52909   0.54824
     Eigenvalues ---    0.57247   0.57999   0.62912   0.74601   0.84446
     Eigenvalues ---    1.00281   1.02421
 RFO step:  Lambda=-5.41164755D-01 EMin= 2.30000000D-03
 Linear search not attempted -- first point.
 Maximum step size (   0.300) exceeded in Quadratic search.
    -- Step size scaled by   0.368
 Iteration  1 RMS(Cart)=  0.21397204 RMS(Int)=  0.00510294
 Iteration  2 RMS(Cart)=  0.01835610 RMS(Int)=  0.00005179
 Iteration  3 RMS(Cart)=  0.00006943 RMS(Int)=  0.00004939
 Iteration  4 RMS(Cart)=  0.00000000 RMS(Int)=  0.00004939
 Variable       Old X    -DE/DX   Delta X   Delta X   Delta X     New X
                                 (Linear)    (Quad)   (Total)
    R1        2.71946  -0.01632   0.00000  -0.00640  -0.00640   2.71306
    R2        1.96901  -0.02323   0.00000  -0.00898  -0.00898   1.96002
    R3        1.93398  -0.00229   0.00000  -0.00086  -0.00086   1.93311
    R4        2.83400  -0.09232   0.00000  -0.03926  -0.03926   2.79474
    R5        1.97753  -0.03201   0.00000  -0.01247  -0.01247   1.96506
    R6        2.51147   0.03852   0.00000   0.01247   0.01253   2.52400
    R7        3.02014  -0.03052   0.00000  -0.01289  -0.01296   3.00717
    R8        3.35109  -0.01393   0.00000  -0.00869  -0.00859   3.34250
    R9        2.09748  -0.00225   0.00000  -0.00096  -0.00096   2.09652
   R10        2.48708   0.06019   0.00000   0.01892   0.01892   2.50600
   R11        2.55233   0.02619   0.00000   0.00798   0.00799   2.56032
   R12        2.27684   0.17910   0.00000   0.04210   0.04210   2.31894
   R13        2.50165   0.08740   0.00000   0.02908   0.02917   2.53082
   R14        1.83437   0.17832   0.00000   0.06024   0.06017   1.89455
   R15        2.38775   0.15358   0.00000   0.04386   0.04397   2.43173
   R16        1.84312   0.11336   0.00000   0.03919   0.03919   1.88231
   R17        2.55288   0.04603   0.00000   0.01555   0.01555   2.56843
   R18        1.86201   0.09422   0.00000   0.03381   0.03386   1.89586
   R19        2.28526   0.20543   0.00000   0.04896   0.04896   2.33422
   R20        1.89903   0.07870   0.00000   0.02868   0.02868   1.92771
   R21        2.35603   0.14364   0.00000   0.03814   0.03814   2.39417
   R22        3.03598   0.05626   0.00000   0.02672   0.02672   3.06270
   R23        2.27098  -0.04676   0.00000  -0.02187  -0.02187   2.24910
   R24        2.70728  -0.05925   0.00000  -0.03235  -0.03235   2.67493
   R25        2.11396   0.09049   0.00000   0.03880   0.03880   2.15275
   R26        2.44205   0.00012   0.00000   0.00006   0.00006   2.44211
   R27        3.26502   0.01510   0.00000   0.00591   0.00584   3.27086
   R28        3.38301   0.02466   0.00000   0.01372   0.01366   3.39667
   R29        2.15913  -0.00232   0.00000  -0.00103  -0.00105   2.15808
   R30        3.08800   0.03975   0.00000   0.02348   0.02349   3.11150
   R31        2.90808  -0.02216   0.00000  -0.01147  -0.01149   2.89658
   R32        3.32018  -0.05794   0.00000  -0.02986  -0.02995   3.29023
   R33        2.69596  -0.07031   0.00000  -0.03828  -0.03828   2.65768
    A1        1.97833  -0.02397   0.00000  -0.01275  -0.01277   1.96556
    A2        1.92817  -0.00643   0.00000  -0.00356  -0.00358   1.92459
    A3        1.82129   0.00995   0.00000   0.00488   0.00484   1.82613
    A4        2.23265  -0.02281   0.00000  -0.01102  -0.01102   2.22163
    A5        1.97701   0.02278   0.00000   0.01149   0.01149   1.98850
    A6        2.05751  -0.00040   0.00000  -0.00069  -0.00069   2.05682
    A7        2.26162  -0.01856   0.00000  -0.00907  -0.00905   2.25257
    A8        2.50034  -0.05768   0.00000  -0.02753  -0.02754   2.47280
    A9        1.51313   0.07573   0.00000   0.03638   0.03638   1.54950
   A10        2.27221  -0.07182   0.00000  -0.03618  -0.03607   2.23614
   A11        1.92086   0.06553   0.00000   0.03369   0.03364   1.95449
   A12        2.07990   0.00643   0.00000   0.00264   0.00259   2.08249
   A13        1.47042   0.16061   0.00000   0.08455   0.08450   1.55492
   A14        1.77123  -0.00654   0.00000   0.00150   0.00161   1.77284
   A15        1.92637  -0.03689   0.00000  -0.01720  -0.01720   1.90917
   A16        2.42210   0.01069   0.00000   0.00501   0.00499   2.42709
   A17        2.20386  -0.05728   0.00000  -0.03001  -0.03003   2.17383
   A18        1.65720   0.04659   0.00000   0.02499   0.02504   1.68224
   A19        2.18010  -0.08334   0.00000  -0.03766  -0.03748   2.14262
   A20        2.04864   0.04276   0.00000   0.01941   0.01932   2.06796
   A21        2.05420   0.04059   0.00000   0.01826   0.01817   2.07238
   A22        2.07941   0.11047   0.00000   0.05259   0.05252   2.13193
   A23        2.25287  -0.02264   0.00000  -0.00785  -0.00772   2.24515
   A24        1.95062  -0.08776   0.00000  -0.04469  -0.04476   1.90586
   A25        1.91668  -0.03584   0.00000  -0.01732  -0.01732   1.89935
   A26        2.32913   0.00265   0.00000   0.00065   0.00065   2.32978
   A27        2.03728   0.03323   0.00000   0.01670   0.01670   2.05398
   A28        2.49543   0.02931   0.00000   0.01363   0.01363   2.50906
   A29        1.33689   0.23877   0.00000   0.12102   0.12102   1.45791
   A30        2.03899  -0.09756   0.00000  -0.03994  -0.03994   1.99905
   A31        1.50067   0.03411   0.00000   0.02229   0.02229   1.52295
   A32        1.52720   0.06067   0.00000   0.03622   0.03622   1.56342
   A33        1.29222  -0.02405   0.00000  -0.01685  -0.01709   1.27513
   A34        1.85138   0.03765   0.00000   0.02040   0.02050   1.87188
   A35        1.63955   0.02732   0.00000   0.01300   0.01294   1.65249
   A36        1.74777   0.04853   0.00000   0.01959   0.01951   1.76728
   A37        2.11216  -0.04610   0.00000  -0.02134  -0.02146   2.09070
   A38        1.43737   0.09226   0.00000   0.04701   0.04707   1.48444
   A39        2.73333  -0.04614   0.00000  -0.02565  -0.02559   2.70773
   A40        2.13162   0.03415   0.00000   0.01803   0.01806   2.14967
   A41        1.21550  -0.03742   0.00000  -0.01935  -0.01929   1.19621
   A42        2.24867   0.08020   0.00000   0.03605   0.03603   2.28470
   A43        1.93219  -0.05101   0.00000  -0.02372  -0.02372   1.90846
   A44        1.57578  -0.02760   0.00000  -0.01408  -0.01419   1.56159
   A45        3.24164   0.15407   0.00000   0.08606   0.08611   3.32775
   A46        3.37588   0.14121   0.00000   0.08108   0.08108   3.45696
   A47        3.02786   0.09478   0.00000   0.05851   0.05851   3.08637
   A48        3.14360   0.01361   0.00000   0.00355   0.00341   3.14701
   A49        3.34711  -0.00327   0.00000  -0.00132  -0.00123   3.34588
   A50        3.05039  -0.00201   0.00000  -0.00130  -0.00129   3.04910
   A51        3.14661   0.00053   0.00000   0.00035   0.00035   3.14696
   A52        3.12859  -0.00051   0.00000  -0.00034  -0.00034   3.12825
   A53        3.11961   0.00011   0.00000  -0.00002  -0.00002   3.11959
   A54        3.22326  -0.00066   0.00000  -0.00014  -0.00014   3.22312
    D1        3.02017  -0.00086   0.00000  -0.00030  -0.00029   3.01988
    D2        0.07612   0.00097   0.00000   0.00073   0.00075   0.07686
    D3        0.98328   0.00614   0.00000   0.00404   0.00402   0.98729
    D4       -1.96078   0.00796   0.00000   0.00507   0.00506  -1.95572
    D5       -2.42016  -0.00066   0.00000  -0.00051  -0.00049  -2.42065
    D6        0.90902  -0.00313   0.00000  -0.00196  -0.00199   0.90703
    D7        0.51602  -0.00047   0.00000  -0.00047  -0.00044   0.51557
    D8       -2.43799  -0.00294   0.00000  -0.00193  -0.00194  -2.43993
    D9       -3.12214   0.00720   0.00000   0.00378   0.00370  -3.11844
   D10        0.17708   0.00296   0.00000   0.00108   0.00106   0.17814
   D11       -0.09253   0.00046   0.00000   0.00074   0.00068  -0.09184
   D12       -3.07649  -0.00378   0.00000  -0.00196  -0.00195  -3.07845
   D13        3.01221   0.00349   0.00000   0.00189   0.00184   3.01405
   D14       -0.11183   0.00342   0.00000   0.00180   0.00171  -0.11012
   D15        0.01509   0.00320   0.00000   0.00157   0.00156   0.01664
   D16       -3.10895   0.00313   0.00000   0.00147   0.00143  -3.10752
   D17       -3.08089  -0.00688   0.00000  -0.00405  -0.00405  -3.08494
   D18        0.15190  -0.00487   0.00000  -0.00276  -0.00276   0.14915
   D19       -0.10898   0.00118   0.00000   0.00071   0.00071  -0.10827
   D20        3.12381   0.00319   0.00000   0.00201   0.00201   3.12582
   D21       -3.07419   0.00550   0.00000   0.00238   0.00238  -3.07182
   D22       -3.12624  -0.00814   0.00000  -0.00425  -0.00425  -3.13049
   D23       -0.08823  -0.00406   0.00000  -0.00166  -0.00161  -0.08984
   D24       -3.06778  -0.00145   0.00000  -0.00078  -0.00078  -3.06856
   D25        0.06471  -0.00168   0.00000  -0.00120  -0.00120   0.06351
   D26        3.11741  -0.00089   0.00000  -0.00055  -0.00055   3.11686
   D27       -0.04817   0.00060   0.00000   0.00046   0.00046  -0.04772
   D28       -0.01682  -0.00037   0.00000  -0.00003  -0.00003  -0.01685
   D29        3.10079   0.00112   0.00000   0.00098   0.00098   3.10177
   D30       -0.06916   0.00031   0.00000   0.00011   0.00011  -0.06904
   D31        3.06641   0.00021   0.00000  -0.00015  -0.00014   3.06627
   D32        3.13276   0.00169   0.00000   0.00124   0.00126   3.13403
   D33        0.01919  -0.00082   0.00000  -0.00032  -0.00034   0.01885
   D34        0.01523   0.00018   0.00000   0.00022   0.00024   0.01547
   D35       -3.09834  -0.00234   0.00000  -0.00134  -0.00136  -3.09971
   D36       -3.12704  -0.00356   0.00000  -0.00228  -0.00228  -3.12932
   D37       -0.00129  -0.00058   0.00000  -0.00037  -0.00036  -0.00165
   D38       -0.00887  -0.00107   0.00000  -0.00070  -0.00071  -0.00958
   D39        3.11688   0.00191   0.00000   0.00121   0.00121   3.11809
   D40       -0.07803  -0.00079   0.00000  -0.00073  -0.00075  -0.07878
   D41        3.08992  -0.00570   0.00000  -0.00345  -0.00342   3.08650
   D42       -3.08275   0.00219   0.00000   0.00141   0.00141  -3.08134
   D43        0.07171  -0.00004   0.00000  -0.00005  -0.00005   0.07166
   D44        3.05597   0.00209   0.00000   0.00133   0.00133   3.05731
   D45       -0.09063   0.00156   0.00000   0.00098   0.00098  -0.08965
   D46        3.11039   0.00087   0.00000   0.00059   0.00059   3.11098
   D47       -0.01820   0.00138   0.00000   0.00093   0.00093  -0.01727
   D48       -3.12105  -0.00195   0.00000  -0.00132  -0.00132  -3.12237
   D49       -3.12936   0.00117   0.00000   0.00061   0.00062  -3.12874
   D50        0.03422   0.00105   0.00000   0.00063   0.00063   0.03485
   D51        0.08720   0.00218   0.00000   0.00107   0.00108   0.08827
   D52        0.05272   0.00061   0.00000   0.00018   0.00018   0.05290
   D53       -0.03406  -0.00127   0.00000  -0.00077  -0.00078  -0.03484
   D54       -3.08439  -0.00136   0.00000  -0.00055  -0.00055  -3.08494
   D55       -0.02447  -0.00069   0.00000  -0.00041  -0.00041  -0.02488
   D56        0.03469   0.00070   0.00000   0.00041   0.00041   0.03510
   D57        0.06704  -0.00132   0.00000  -0.00099  -0.00100   0.06605
   D58       -3.11839   0.00299   0.00000   0.00158   0.00153  -3.11686
         Item               Value     Threshold  Converged?
 Maximum Force            0.238774     0.000450     NO 
 RMS     Force            0.057298     0.000300     NO 
 Maximum Displacement     0.692582     0.001800     NO 
 RMS     Displacement     0.219307     0.001200     NO 
 Predicted change in Energy=-1.868792D-01
 GradGradGradGradGradGradGradGradGradGradGradGradGradGradGradGradGradGrad

                          Input orientation:                          
 ---------------------------------------------------------------------
 Center     Atomic      Atomic             Coordinates (Angstroms)
 Number     Number       Type             X           Y           Z
 ---------------------------------------------------------------------
      1          7           0        0.966112   -0.036926   -0.347947
      2          7           0        2.401034   -0.037488   -0.301034
      3          6           0        3.325297   -0.808931   -1.159986
      4          6           0        4.444372   -1.455964   -0.823888
      5          6           0        5.550094   -2.345836   -1.879381
      6          7           0        6.257760   -2.690524   -0.812147
      7          6           0        7.252076   -3.315882   -1.167273
      8          6           0        8.284441   -3.970402   -0.620080
      9          6           0        9.183320   -4.565200   -1.323019
[...]
      4          6           0        4.422817   -1.497004    0.267526
      5          6           0        5.268353   -2.072783   -0.746558
      6          7           0        6.337071   -2.748026   -0.449232
      7          6           0        7.138955   -3.332328   -1.382613
      8          6           0        8.264189   -3.995513   -0.990604
      9          6           0        9.155593   -4.634357   -1.900386
     10          6           0       10.286439   -5.291830   -1.531499
     11          7           0       11.097284   -5.884808   -2.463462
     12          6           0       12.161808   -6.498158   -2.083033
     13          6           0       13.052116   -7.144934   -3.063938
     14          7           0       12.888248   -7.171921   -4.328850
     15          6           0        5.411300   -2.266276   -4.519661
     16          6           0        5.066180   -2.020779   -3.387648
     17          6           0        4.633756   -1.712927   -2.083397
     18          6           0        3.519816   -0.990714   -1.802681
     19          1           0        0.928856    1.106061   -0.291524
     20          1           0        0.464625   -0.475173   -0.246325
     21          1           0        2.293588   -0.219174    1.244444
     22          1           0        4.620552   -1.588291    1.324625
     23          1           0        6.892797   -3.285195   -2.443132
     24          1           0        8.484813   -4.031193    0.073407
     25          1           0        8.922473   -4.599405   -2.961606
     26          1           0       10.563291   -5.354189   -0.473397
     27          1           0       12.448273   -6.564546   -1.023940
     28          1           0       13.932317   -7.642834   -2.645478
     29          1           0       12.022290   -6.666487   -4.552381
     30          1           0        5.714289   -2.481804   -5.513493
     31          1           0        2.828870   -0.566669   -2.513910
 ---------------------------------------------------------------------
                    Distance matrix (angstroms):
                    1          2          3          4          5
     1  N    0.000000
     2  N    1.404805   0.000000
     3  C    2.390949   1.366497   0.000000
     4  C    3.683534   2.455540   1.367800   0.000000
     5  C    4.626921   3.615453   2.280266   1.440423   0.000000
     6  N    5.882832   4.791898   3.510469   2.396490   1.298658
     7  C    6.926095   5.958562   4.617591   3.669983   2.343111
     8  C    8.190327   7.144421   5.840258   4.752007   3.568120
     9  C    9.373847   8.410432   7.073006   6.077992   4.796208
    10  C   10.626654   9.604382   8.291821   7.212438   6.013284
    11  N   11.742736  10.787096   9.449833   8.441542   7.173265
    12  C   12.903003  11.898379  10.580052   9.509398   8.299990
    13  C   14.137145  13.189040  11.851179  10.838015   9.575173
    14  N   14.300161  13.446841  12.088184  11.180111   9.843618
    15  C    6.292668   6.031980   4.850362   4.948336   3.780764
    16  C    5.279382   4.891954   3.666686   3.748140   2.649327
    17  C    4.201368   3.601043   2.306453   2.370223   1.522941
    18  C    2.881014   2.490764   1.469304   2.314626   2.311634
    19  H    1.014430   1.981450   3.141460   4.392750   5.398458
    20  H    1.018058   2.007395   2.944605   4.120129   5.087081
    21  H    2.080028   1.012329   2.029814   2.668490   4.031028
    22  H    4.233176   2.882652   2.204933   1.079301   2.223551
    23  H    6.913209   6.122855   4.756613   4.079962   2.643316
    24  H    8.403518   7.244164   6.024716   4.791619   3.854001
    25  H    9.380467   8.543212   7.179994   6.348156   4.964156
    26  H   10.846086   9.732230   8.474776   7.289188   6.235271
    27  H   13.095413  12.012827  10.735250   9.578925   8.473731
    28  H   15.066737  14.076615  12.753798  11.691339  10.473568
    29  H   13.403305  12.593753  11.229935  10.378200   9.011219
    30  H    7.231914   7.051711   5.897905   6.004824   4.805187
    31  H    2.677703   2.823363   2.255890   3.338050   3.367936
                    6          7          8          9         10
     6  N    0.000000
     7  C    1.362214   0.000000
     8  C    2.358620   1.363685   0.000000
     9  C    3.688923   2.455646   1.424930   0.000000
    10  C    4.820762   3.710589   2.462215   1.359103   0.000000
    11  N    6.046169   4.832366   3.710145   2.377152   1.370273
    12  C    7.117609   5.978471   4.758999   3.541814   2.297047
    13  C    8.441642   7.233830   6.094409   4.779095   3.664878
    14  N    8.805691   7.515129   6.528046   5.125367   4.257854
    15  C    4.202085   3.736620   4.856282   5.146663   6.469163
    16  C    3.283039   3.168080   4.457876   5.076026   6.433986
    17  C    2.577442   3.064243   4.425431   5.386581   6.713119
    18  C    3.585651   4.331025   5.674272   6.711755   8.022489
    19  H    6.642865   7.710714   8.962247  10.159726  11.403285
    20  H    6.300211   7.348549   8.589525   9.775871  11.014531
    21  H    5.060968   6.330146   7.409741   8.744765   9.865261
    22  H    2.727268   4.088172   4.942781   6.343958   7.346831
    23  H    2.138461   1.089732   2.120166   2.689806   4.046537
    24  H    2.555869   2.102318   1.087229   2.170164   2.722276
    25  H    4.052644   2.698080   2.163994   1.087084   2.094054
    26  H    4.965239   4.079298   2.720179   2.129806   1.095498
    27  H    7.227925   6.226133   4.909949   3.916061   2.559482
    28  H    9.298946   8.144019   6.940406   5.694136   4.478905
    29  H    8.031928   6.709024   5.826121   4.402338   3.745476
    30  H    5.109351   4.451656   5.408311   5.434206   6.682595
    31  H    4.618300   5.244573   6.604554   7.546517   8.882996
                   11         12         13         14         15
    11  N    0.000000
    12  C    1.286132   0.000000
    13  C    2.402053   1.474159   0.000000
    14  N    2.888578   2.454662   1.275767   0.000000
    15  C    7.046428   8.331587   9.181640   8.944637   0.000000
    16  C    7.222124   8.490989   9.494048   9.413017   1.208647
    17  C    7.702353   8.920202  10.066626  10.147873   2.616514
    18  C    9.044712  10.251564  11.416214  11.504624   3.547781
    19  H   12.529426  13.682575  14.924431  15.094769   7.024393
    20  H   12.133973  13.284349  14.521350  14.692170   6.777834
    21  H   11.106442  12.160573  13.500898  13.843740   6.865541
    22  H    8.646255   9.622342  11.010315  11.467061   5.936381
    23  H    4.943290   6.181851   7.295218   7.389723   2.746817
    24  H    4.086147   4.925083   6.355987   6.973828   5.801524
    25  H    2.574920   3.856222   4.852231   4.920830   4.494370
    26  H    2.127691   2.540640   4.013966   4.855316   7.242270
    27  H    2.087927   1.099158   2.205237   3.388940   8.956237
    28  H    3.340837   2.182047   1.094425   2.036070  10.248301
    29  H    2.414589   2.479008   1.872142   1.027285   7.941544
    30  H    7.061145   8.334846   9.032652   8.652530   1.061112
    31  H    9.831166  11.066705  12.169259  12.170229   3.685192
                   16         17         18         19         20
    16  C    0.000000
    17  C    1.408131   0.000000
    18  C    2.442211   1.356929   0.000000
    19  H    6.039914   4.988365   3.659663   0.000000
    20  H    5.781964   4.721072   3.467307   1.648591   0.000000
    21  H    5.691162   4.333845   3.374001   2.444982   2.373401
    22  H    4.753015   3.410326   3.368792   4.847690   4.580245
    23  H    2.413999   2.775735   4.129385   7.712402   7.351434
    24  H    5.263813   4.985660   6.116814   9.144236   8.779005
    25  H    4.658522   5.243672   6.599580  10.177406   9.793734
    26  H    7.058521   7.142148   8.391510  11.601304  11.217817
    27  H    8.984890   9.258906  10.554212  13.858991  13.464508
    28  H   10.524577  11.042779  12.384716  15.848478  15.443770
    29  H    8.445512   9.231688  10.586185  14.199707  13.800511
    30  H    2.269759   3.677537   4.561709   7.939906   7.702506
    31  H    2.807741   2.181023   1.078457   3.368543   3.277189
                   21         22         23         24         25
    21  H    0.000000
    22  H    2.701051   0.000000
    23  H    6.644654   4.715779   0.000000
    24  H    7.364380   4.739813   3.069852   0.000000
    25  H    8.989961   6.778281   2.472963   3.118607   0.000000
    26  H    9.884703   7.261612   4.651142   2.523763   3.074600
    27  H   12.187164   9.568285   6.605419   4.830224   4.477454
    28  H   14.342324  11.795260   8.281594   7.078953   5.870344
    29  H   13.031450  10.729072   6.495673   6.391903   4.051205
    30  H    7.905087   6.982441   3.385475   6.425719   4.613980
    31  H    3.812153   4.357544   4.889877   7.119469   7.320887
                   26         27         28         29         30
    26  H    0.000000
    27  H    2.306777   0.000000
    28  H    4.615860   2.448362   0.000000
    29  H    4.526469   3.555524   2.870146   0.000000
    30  H    7.560819   9.064845  10.119176   7.630608   0.000000
    31  H    9.322302  11.433611  13.167231  11.219720   4.581581
                   31
    31  H    0.000000
 Stoichiometry    C13H13N5
 Framework group  C1[X(C13H13N5)]
 Deg. of freedom    87
 Full point group                 C1      NOp   1
 Largest Abelian subgroup         C1      NOp   1
 Largest concise Abelian subgroup C1      NOp   1
                         Standard orientation:                         
 ---------------------------------------------------------------------
 Center     Atomic      Atomic             Coordinates (Angstroms)
 Number     Number       Type             X           Y           Z
 ---------------------------------------------------------------------
      1          7           0        6.772868    0.073648    0.241348
      2          7           0        5.797420   -0.875089   -0.107759
      3          6           0        4.477145   -0.527416   -0.050224
      4          6           0        3.390893   -1.358582   -0.040398
      5          6           0        2.197051   -0.552633   -0.038058
      6          7           0        1.010617   -1.080611   -0.026736
      7          6           0       -0.136537   -0.346852    0.008770
      8          6           0       -1.345700   -0.976848   -0.017057
      9          6           0       -2.591410   -0.285886    0.017648
     10          6           0       -3.806512   -0.893754   -0.016774
     11          7           0       -4.965410   -0.163583    0.021341
     12          6           0       -6.100112   -0.767976   -0.014656
     13          6           0       -7.362387   -0.007559    0.024961
     14          7           0       -7.477122    1.261224    0.092840
     15          6           0        1.272082    3.113034   -0.076716
     16          6           0        1.898952    2.079757   -0.062539
     17          6           0        2.663229    0.897164   -0.048803
     18          6           0        4.019842    0.868897   -0.056424
     19          1           0        7.556049   -0.009567   -0.398005
     20          1           0        7.112112   -0.086023    1.187847
     21          1           0        6.011863   -1.852341    0.046529
     22          1           0        3.376224   -2.437760   -0.033267
     23          1           0       -0.105786    0.741011    0.064663
     24          1           0       -1.348603   -2.062836   -0.068909
     25          1           0       -2.578027    0.799502    0.076868
     26          1           0       -3.871178   -1.985725   -0.076230
     27          1           0       -6.174682   -1.862896   -0.075797
     28          1           0       -8.276328   -0.608655   -0.009150
     29          1           0       -6.534600    1.668969    0.119504
     30          1           0        0.721737    4.020185   -0.089163
     31          1           0        4.683400    1.718933   -0.070507
 ---------------------------------------------------------------------
 Rotational constants (GHZ):           1.4679974           0.1061005           0.0990661
 Standard basis: 6-31G(2df,p) (6D, 7F)
 There are   623 symmetry adapted cartesian basis functions of A   symmetry.
 There are   569 symmetry adapted basis functions of A   symmetry.
   569 basis functions,   883 primitive gaussians,   623 cartesian basis functions
    63 alpha electrons       63 beta electrons
       nuclear repulsion energy      1058.2231358286 Hartrees.
 NAtoms=   31 NActive=   31 NUniq=   31 SFac= 1.00D+00 NAtFMM=   60 NAOKFM=F Big=F
 Integral buffers will be    131072 words long.
 Raffenetti 2 integral format.
 Two-electron integral symmetry is turned on.
 One-electron integrals computed using PRISM.
 PrsmSu:  requested number of processors reduced to:  12 ShMem   1 Linda.
 NBasis=   569 RedAO= T EigKep=  6.83D-05  NBF=   569
 NBsUse=   569 1.00D-06 EigRej= -1.00D+00 NBFU=   569
 Initial guess from the checkpoint file:  "NNC1dCC23NdCCdCCdNCdCNCdC2C3dC1.chk"
 B after Tr=     0.000000    0.000000   -0.000000
         Rot=    1.000000    0.000233    0.000004   -0.000068 Ang=   0.03 deg.
 ExpMin= 1.61D-01 ExpMax= 4.17D+03 ExpMxC= 6.27D+02 IAcc=2 IRadAn=         4 AccDes= 0.00D+00
 Harris functional with IExCor=  402 and IRadAn=       4 diagonalized for initial guess.
 HarFok:  IExCor=  402 AccDes= 0.00D+00 IRadAn=         4 IDoV= 1 UseB2=F ITyADJ=14
 ICtDFT=  3500011 ScaDFX=  1.000000  1.000000  1.000000  1.000000
 FoFCou: FMM=F IPFlag=           0 FMFlag=      100000 FMFlg1=           0
         NFxFlg=           0 DoJE=T BraDBF=F KetDBF=T FulRan=T
         wScrn=  0.000000 ICntrl=       500 IOpCl=  0 I1Cent=   200000004 NGrid=           0
         NMat0=    1 NMatS0=      1 NMatT0=    0 NMatD0=    1 NMtDS0=    0 NMtDT0=    0
 Petite list used in FoFCou.
 Requested convergence on RMS density matrix=1.00D-08 within 128 cycles.
 Requested convergence on MAX density matrix=1.00D-06.
 Requested convergence on             energy=1.00D-06.
 No special actions if energy rises.
 Integral accuracy reduced to 1.0D-05 until final iterations.
 Initial convergence to 1.0D-05 achieved.  Increase integral accuracy.
 SCF Done:  E(RB3LYP) =  -776.808063263     A.U. after   10 cycles
            NFock= 10  Conv=0.59D-08     -V/T= 2.0077
 PrsmSu:  requested number of processors reduced to:  13 ShMem   1 Linda.
 Calling FoFJK, ICntrl=      2127 FMM=F ISym2X=0 I1Cent= 0 IOpClX= 0 NMat=1 NMatS=1 NMatT=0.
 ***** Axes restored to original set *****
 -------------------------------------------------------------------
 Center     Atomic                   Forces (Hartrees/Bohr)
 Number     Number              X              Y              Z
 -------------------------------------------------------------------
      1        7           0.000043679    0.000067381    0.000027523
      2        7           0.000051711   -0.000077598   -0.000086171
      3        6          -0.000347952    0.000119393    0.000009994
      4        6           0.000113712    0.000166055    0.000011363
      5        6          -0.000472991    0.000485804   -0.000877272
      6        7           0.000790998   -0.000351579   -0.000015652
      7        6           0.000576947   -0.000859883   -0.000080473
      8        6           0.000153495   -0.000120257   -0.000649649
      9        6          -0.000243786    0.000067892    0.000603307
     10        6          -0.000410678    0.000238026    0.000252549
     11        7           0.000280815   -0.000179467   -0.000316184
     12        6          -0.000236545   -0.000009395   -0.000040780
     13        6           0.000158305    0.000011154   -0.000339529
     14        7           0.000151194   -0.000351800    0.000851111
     15        6          -0.001612871    0.001043973    0.002865725
     16        6           0.002881721   -0.001813387   -0.002752499
     17        6          -0.001132371    0.000346136    0.000421004
     18        6          -0.000169082    0.000213077    0.000890535
     19        1          -0.000035593    0.000007202    0.000008388
     20        1          -0.000019812   -0.000030169   -0.000014056
     21        1          -0.000037290    0.000045542   -0.000006015
     22        1          -0.000049557   -0.000134746   -0.000032670
     23        1          -0.000223168    0.000436978    0.000551717
     24        1           0.000018582    0.000101457    0.000066017
     25        1           0.000159763    0.000019663   -0.000315751
     26        1          -0.000003028    0.000014874   -0.000000377
     27        1           0.000044090   -0.000041460   -0.000049646
     28        1          -0.000325150    0.000279747   -0.000199046
     29        1          -0.000149557    0.000312622   -0.000122241
     30        1           0.000221647   -0.000128297   -0.000472018
     31        1          -0.000177227    0.000121063   -0.000189205
 -------------------------------------------------------------------
 Cartesian Forces:  Max     0.002881721 RMS     0.000661396

 GradGradGradGradGradGradGradGradGradGradGradGradGradGradGradGradGradGrad
 Berny optimization.
 Using GEDIIS/GDIIS optimizer.
 FormGI is forming the generalized inverse of G from B-inverse, IUseBI=4.
 Internal  Forces:  Max     0.008328317 RMS     0.001036736
 Search for a local minimum.
 Step number  59 out of a maximum of  155
 All quantities printed in internal units (Hartrees-Bohrs-Radians)
 Mixed Optimization -- RFO/linear search
 Update second derivatives using D2CorX and points   49   50   51   52   53
                                                     54   56   57   55   58
                                                     59
 DE= -2.53D-05 DEPred=-1.89D-05 R= 1.34D+00
 TightC=F SS=  1.41D+00  RLast= 3.82D-01 DXNew= 5.1499D-01 1.1453D+00
 Trust test= 1.34D+00 RLast= 3.82D-01 DXMaxT set to 5.15D-01
 ITU=  1  0 -1 -1  0  1  1  1  1  1  1  1  1  1  1  1  0  0  1  1
 ITU=  1  0  1 -1  1  1  1  1  1  1  0  0  0  0 -1  0 -1  0 -1  1
 ITU=  1  1  0  1  0  1  1 -1  1 -1  0  0  1  0  0  0  0  1  0
 Use linear search instead of GDIIS.
     Eigenvalues ---    0.00009   0.00208   0.00500   0.00604   0.00651
     Eigenvalues ---    0.00740   0.00856   0.01099   0.01294   0.01382
     Eigenvalues ---    0.01724   0.02071   0.02143   0.02260   0.02335
     Eigenvalues ---    0.02415   0.02743   0.02822   0.02949   0.03221
     Eigenvalues ---    0.03277   0.03462   0.03703   0.03773   0.04207
     Eigenvalues ---    0.04687   0.05364   0.06063   0.06631   0.07034
     Eigenvalues ---    0.07858   0.09469   0.09978   0.12352   0.13463
     Eigenvalues ---    0.14875   0.15087   0.15744   0.15900   0.15990
     Eigenvalues ---    0.16033   0.16066   0.16147   0.16660   0.17660
     Eigenvalues ---    0.18385   0.19397   0.20863   0.21137   0.21467
     Eigenvalues ---    0.21906   0.22479   0.22671   0.23862   0.23957
     Eigenvalues ---    0.24457   0.24829   0.25107   0.25572   0.29824
     Eigenvalues ---    0.32556   0.33368   0.34994   0.36729   0.39287
     Eigenvalues ---    0.40609   0.41229   0.42373   0.43807   0.46238
     Eigenvalues ---    0.47468   0.50240   0.52372   0.54549   0.56188
     Eigenvalues ---    0.57528   0.59383   0.60074   0.69596   0.80738
     Eigenvalues ---    0.89036   0.95568   1.11115   1.22942   1.89591
     Eigenvalues ---    3.23996  23.32689
 RFO step:  Lambda=-5.71383158D-05 EMin= 8.53870050D-05
 Quartic linear search produced a step of -0.15507.
 Iteration  1 RMS(Cart)=  0.00025135 RMS(Int)=  0.00413204
 Iteration  2 RMS(Cart)=  0.00253180 RMS(Int)=  0.00118728
 SLEqS3 Cycle:    75 Max:0.722984E-02 RMS: 16.8998     Conv:0.108262E-03
 Iteration  3 RMS(Cart)=  0.00194494 RMS(Int)=  0.00105403
 SLEqS3 Cycle:   931 Max:0.694919E-02 RMS:0.110877E-02 Conv:0.422086E-06
slurmstepd: error: *** JOB 27449634 ON lewis4-r630-hpc4-node297 CANCELLED AT 2023-05-20T18:43:41 DUE TO TIME LIMIT ***
