### Starting Gaussian ###
 Entering Gaussian System, Link 0=g16
 Initial command:
 /cluster/software/gaussian/gaussian-16-A.03/avx2/g16/l1.exe "/local/scratch/yxie/Gau-17520.inp" -scrdir="/local/scratch/yxie/"
 Entering Link 1 = /cluster/software/gaussian/gaussian-16-A.03/avx2/g16/l1.exe PID=     17521.
  
 Copyright (c) 1988,1990,1992,1993,1995,1998,2003,2009,2016,
            Gaussian, Inc.  All Rights Reserved.
  
 This is part of the Gaussian(R) 16 program.  It is based on
 the Gaussian(R) 09 system (copyright 2009, Gaussian, Inc.),
 the Gaussian(R) 03 system (copyright 2003, Gaussian, Inc.),
 the Gaussian(R) 98 system (copyright 1998, Gaussian, Inc.),
 the Gaussian(R) 94 system (copyright 1995, Gaussian, Inc.),
 the Gaussian 92(TM) system (copyright 1992, Gaussian, Inc.),
 the Gaussian 90(TM) system (copyright 1990, Gaussian, Inc.),
 the Gaussian 88(TM) system (copyright 1988, Gaussian, Inc.),
 the Gaussian 86(TM) system (copyright 1986, Carnegie Mellon
 University), and the Gaussian 82(TM) system (copyright 1983,
 Carnegie Mellon University). Gaussian is a federally registered
 trademark of Gaussian, Inc.
  
 This software contains proprietary and confidential information,
 including trade secrets, belonging to Gaussian, Inc.
  
 This software is provided under written license and may be
 used, copied, transmitted, or stored only in accord with that
 written license.
  
 The following legend is applicable only to US Government
 contracts under FAR:
  
                    RESTRICTED RIGHTS LEGEND
  
 Use, reproduction and disclosure by the US Government is
 subject to restrictions as set forth in subparagraphs (a)
 and (c) of the Commercial Computer Software - Restricted
 Rights clause in FAR 52.227-19.
  
 Gaussian, Inc.
 340 Quinnipiac St., Bldg. 40, Wallingford CT 06492
  
  
 ---------------------------------------------------------------
 Warning -- This program may not be used in any manner that
 competes with the business of Gaussian, Inc. or will provide
 assistance to any competitor of Gaussian, Inc.  The licensee
 of this program is prohibited from giving any competitor of
 Gaussian, Inc. access to this program.  By using this program,
 the user acknowledges that Gaussian, Inc. is engaged in the
 business of creating and licensing software in the field of
 computational chemistry and represents and warrants to the
 licensee that it is not a competitor of Gaussian, Inc. and that
 it will not use this program in any manner prohibited above.
 ---------------------------------------------------------------
  

 Cite this work as:
 Gaussian 16, Revision A.03,
 M. J. Frisch, G. W. Trucks, H. B. Schlegel, G. E. Scuseria, 
 M. A. Robb, J. R. Cheeseman, G. Scalmani, V. Barone, 
 G. A. Petersson, H. Nakatsuji, X. Li, M. Caricato, A. V. Marenich, 
 J. Bloino, B. G. Janesko, R. Gomperts, B. Mennucci, H. P. Hratchian, 
 J. V. Ortiz, A. F. Izmaylov, J. L. Sonnenberg, D. Williams-Young, 
 F. Ding, F. Lipparini, F. Egidi, J. Goings, B. Peng, A. Petrone, 
 T. Henderson, D. Ranasinghe, V. G. Zakrzewski, J. Gao, N. Rega, 
 G. Zheng, W. Liang, M. Hada, M. Ehara, K. Toyota, R. Fukuda, 
 J. Hasegawa, M. Ishida, T. Nakajima, Y. Honda, O. Kitao, H. Nakai, 
 T. Vreven, K. Throssell, J. A. Montgomery, Jr., J. E. Peralta, 
 F. Ogliaro, M. J. Bearpark, J. J. Heyd, E. N. Brothers, K. N. Kudin, 
 V. N. Staroverov, T. A. Keith, R. Kobayashi, J. Normand, 
 K. Raghavachari, A. P. Rendell, J. C. Burant, S. S. Iyengar, 
 J. Tomasi, M. Cossi, J. M. Millam, M. Klene, C. Adamo, R. Cammi, 
 J. W. Ochterski, R. L. Martin, K. Morokuma, O. Farkas, 
 J. B. Foresman, and D. J. Fox, Gaussian, Inc., Wallingford CT, 2016.
 
 ******************************************
 Gaussian 16:  ES64L-G16RevA.03 25-Dec-2016
                19-May-2023 
 ******************************************
 %chk=NNdc1ccnc2cnncccn-2cc1.chk
 %NProcShared=20
 Will use up to   20 processors via shared memory.
 -----------------------------
 # opt freq b3lyp/6-31g(2df,p)
 -----------------------------
 1/18=20,19=15,26=3,38=1/1,3;
 2/9=110,12=2,17=6,18=5,40=1/2;
 3/5=1,6=6,7=104,11=2,25=1,30=1,71=1,74=-5/1,2,3;
 4//1;
 5/5=2,38=5/2;
 6/7=2,8=2,9=2,10=2,28=1/1;
 7//1,2,3,16;
 1/18=20,19=15,26=3/3(2);
 2/9=110/2;
 99//99;
 2/9=110/2;
 3/5=1,6=6,7=104,11=2,25=1,30=1,71=1,74=-5/1,2,3;
 4/5=5,16=3,69=1/1;
 5/5=2,38=5/2;
 7//1,2,3,16;
 1/18=20,19=15,26=3/3(-5);
 2/9=110/2;
 6/7=2,8=2,9=2,10=2,19=2,28=1/1;
 99/9=1/99;
 -------------------
 Title Card Required
 -------------------
 Symbolic Z-matrix:
 Charge =  0 Multiplicity = 1
 N                     1.12463  -0.02113  -0.17841 
 N                     2.58549  -0.20337  -0.67718 
 C                     3.55533  -0.6158   -1.79088 
 C                     4.79804  -0.33574  -1.03389 
 C                     5.78902  -0.6308   -1.83123 
 N                     7.03755  -0.79344  -2.26122 
 C                     7.66783  -1.18364  -3.36042 
 C                     8.95524  -1.02215  -2.88414 
 N                     9.73509  -1.32518  -3.71815 
 N                     10.92178  -1.43824  -4.03127 
 C                     10.31508  -1.87192  -5.23662 
 C                     11.57324  -2.02131  -5.52257 
 C                     9.78134  -2.0527   -5.5901 
 N                     7.82091  -1.73958  -4.89347 
 C                     5.88031  -1.64737  -4.56363 
 C                     4.31196  -1.28793  -3.59151 
 H                     0.6541    0.32375   0.75332 
 H                     0.40256  -0.26007  -0.82619 
 H                     4.93569   0.02812  -0.04556 
 H                     5.54168  -0.94788  -2.69257 
 H                     9.27113  -0.69281  -1.99553 
 H                     10.16045  -2.47441  -6.86905 
 H                     12.78512  -1.76105  -4.90026 
 H                     11.2216  -2.31791  -6.366 
 H                     5.28971  -1.9594   -5.4164 
 H                     2.98751  -1.21731  -3.3945 
 
 Add virtual bond connecting atoms H24        and H22        Dist= 2.24D+00.
 Add virtual bond connecting atoms H26        and C16        Dist= 2.53D+00.
 Add virtual bond connecting atoms H23        and C12        Dist= 2.62D+00.
 Add virtual bond connecting atoms H20        and C16        Dist= 2.95D+00.
 Add virtual bond connecting atoms N14        and C15        Dist= 3.72D+00.
 Add virtual bond connecting atoms C16        and C15        Dist= 3.55D+00.
 Add virtual bond connecting atoms H20        and C15        Dist= 3.83D+00.

 GradGradGradGradGradGradGradGradGradGradGradGradGradGradGradGradGradGrad
 Berny optimization.
 Initialization pass.
                           ----------------------------
                           !    Initial Parameters    !
                           ! (Angstroms and Degrees)  !
 --------------------------                            --------------------------
 ! Name  Definition              Value          Derivative Info.                !
 --------------------------------------------------------------------------------
 ! R1    R(1,2)                  1.5544         estimate D2E/DX2                !
 ! R2    R(1,17)                 1.0993         estimate D2E/DX2                !
 ! R3    R(1,18)                 0.999          estimate D2E/DX2                !
 ! R4    R(2,3)                  1.5333         estimate D2E/DX2                !
 ! R5    R(3,4)                  1.4818         estimate D2E/DX2                !
 ! R6    R(4,5)                  1.3057         estimate D2E/DX2                !
 ! R7    R(4,19)                 1.0621         estimate D2E/DX2                !
 ! R8    R(5,6)                  1.3305         estimate D2E/DX2                !
 ! R9    R(5,20)                 0.9506         estimate D2E/DX2                !
 ! R10   R(6,7)                  1.3258         estimate D2E/DX2                !
 ! R11   R(7,8)                  1.3822         estimate D2E/DX2                !
 ! R12   R(7,14)                 1.6379         estimate D2E/DX2                !
 ! R13   R(8,9)                  1.1813         estimate D2E/DX2                !
 ! R14   R(8,21)                 0.9989         estimate D2E/DX2                !
 ! R15   R(9,10)                 1.2325         estimate D2E/DX2                !
 ! R16   R(9,11)                 1.715          estimate D2E/DX2                !
 ! R17   R(10,11)                1.4174         estimate D2E/DX2                !
 ! R18   R(10,12)                1.7287         estimate D2E/DX2                !
 ! R19   R(11,12)                1.2989         estimate D2E/DX2                !
 ! R20   R(11,13)                0.6652         estimate D2E/DX2                !
 ! R21   R(12,13)                1.7934         estimate D2E/DX2                !
 ! R22   R(12,23)                1.387          estimate D2E/DX2                !
 ! R23   R(12,24)                0.9607         estimate D2E/DX2                !
 ! R24   R(14,15)                1.9706         estimate D2E/DX2                !
 ! R25   R(15,16)                1.8799         estimate D2E/DX2                !
 ! R26   R(15,20)                2.026          estimate D2E/DX2                !
 ! R27   R(15,25)                1.0832         estimate D2E/DX2                !
 ! R28   R(16,20)                1.5607         estimate D2E/DX2                !
 ! R29   R(16,26)                1.3409         estimate D2E/DX2                !
 ! R30   R(22,24)                1.1847         estimate D2E/DX2                !
 ! A1    A(2,1,17)             135.3183         estimate D2E/DX2                !
 ! A2    A(2,1,18)             116.3066         estimate D2E/DX2                !
 ! A3    A(17,1,18)            108.3749         estimate D2E/DX2                !
 ! A4    A(1,2,3)              149.2119         estimate D2E/DX2                !
 ! A5    A(2,3,4)               96.2325         estimate D2E/DX2                !
 ! A6    A(3,4,5)              106.3694         estimate D2E/DX2                !
 ! A7    A(3,4,19)             130.4498         estimate D2E/DX2                !
 ! A8    A(5,4,19)             123.1806         estimate D2E/DX2                !
 ! A9    A(4,5,6)              159.5862         estimate D2E/DX2                !
 ! A10   A(4,5,20)             115.5453         estimate D2E/DX2                !
 ! A11   A(6,5,20)              84.8683         estimate D2E/DX2                !
 ! A12   A(5,6,7)              138.5938         estimate D2E/DX2                !
 ! A13   A(6,7,8)               97.0494         estimate D2E/DX2                !
 ! A14   A(6,7,14)             156.9747         estimate D2E/DX2                !
 ! A15   A(8,7,14)             105.9701         estimate D2E/DX2                !
 ! A16   A(7,8,9)              109.9768         estimate D2E/DX2                !
 ! A17   A(7,8,21)             129.7623         estimate D2E/DX2                !
 ! A18   A(9,8,21)             120.2537         estimate D2E/DX2                !
 ! A19   A(8,9,10)             146.9811         estimate D2E/DX2                !
 ! A20   A(8,9,11)             158.456          estimate D2E/DX2                !
 ! A21   A(9,10,12)            127.8033         estimate D2E/DX2                !
 ! A22   A(9,11,12)            124.0002         estimate D2E/DX2                !
 ! A23   A(9,11,13)            106.6057         estimate D2E/DX2                !
 ! A24   A(10,11,13)           151.4585         estimate D2E/DX2                !
 ! A25   A(10,12,13)            70.2363         estimate D2E/DX2                !
 ! A26   A(10,12,23)            83.0454         estimate D2E/DX2                !
 ! A27   A(10,12,24)           136.3483         estimate D2E/DX2                !
 ! A28   A(11,12,23)           136.5539         estimate D2E/DX2                !
 ! A29   A(11,12,24)            82.7753         estimate D2E/DX2                !
 ! A30   A(13,12,23)           153.2772         estimate D2E/DX2                !
 ! A31   A(13,12,24)            66.1616         estimate D2E/DX2                !
 ! A32   A(23,12,24)           140.5021         estimate D2E/DX2                !
 ! A33   A(7,14,15)             74.6576         estimate D2E/DX2                !
 ! A34   A(14,15,16)           156.5043         estimate D2E/DX2                !
 ! A35   A(14,15,20)           109.5925         estimate D2E/DX2                !
 ! A36   A(14,15,25)           113.0587         estimate D2E/DX2                !
 ! A37   A(16,15,25)            90.4188         estimate D2E/DX2                !
 ! A38   A(20,15,25)           137.337          estimate D2E/DX2                !
 ! A39   A(15,16,26)           155.5201         estimate D2E/DX2                !
 ! A40   A(20,16,26)           133.0117         estimate D2E/DX2                !
 ! A41   A(5,20,15)            155.2951         estimate D2E/DX2                !
 ! A42   A(5,20,16)            143.0894         estimate D2E/DX2                !
 ! A43   A(12,24,22)           137.8496         estimate D2E/DX2                !
 ! D1    D(17,1,2,3)           179.9319         estimate D2E/DX2                !
 ! D2    D(18,1,2,3)            -0.2422         estimate D2E/DX2                !
 ! D3    D(2,1,17,18)          179.8356         estimate D2E/DX2                !
 ! D4    D(1,2,3,4)           -179.8235         estimate D2E/DX2                !
 ! D5    D(2,3,4,5)           -179.989          estimate D2E/DX2                !
 ! D6    D(2,3,4,19)             0.1329         estimate D2E/DX2                !
 ! D7    D(3,4,5,6)           -179.595          estimate D2E/DX2                !
 ! D8    D(3,4,5,20)             0.1016         estimate D2E/DX2                !
 ! D9    D(19,4,5,6)             0.2941         estimate D2E/DX2                !
 ! D10   D(19,4,5,20)          179.9908         estimate D2E/DX2                !
 ! D11   D(4,5,6,7)           -179.2056         estimate D2E/DX2                !
 ! D12   D(20,5,6,7)             1.0692         estimate D2E/DX2                !
 ! D13   D(4,5,20,15)         -179.3903         estimate D2E/DX2                !
 ! D14   D(4,5,20,16)           -0.5939         estimate D2E/DX2                !
 ! D15   D(6,5,20,15)            0.5034         estimate D2E/DX2                !
 ! D16   D(6,5,20,16)          179.2998         estimate D2E/DX2                !
 ! D17   D(5,6,7,8)            179.6849         estimate D2E/DX2                !
 ! D18   D(5,6,7,14)            -1.6022         estimate D2E/DX2                !
 ! D19   D(6,7,8,9)            179.7321         estimate D2E/DX2                !
 ! D20   D(6,7,8,21)            -1.2603         estimate D2E/DX2                !
 ! D21   D(14,7,8,9)             0.2558         estimate D2E/DX2                !
 ! D22   D(14,7,8,21)          179.2633         estimate D2E/DX2                !
 ! D23   D(6,7,14,15)            0.0969         estimate D2E/DX2                !
 ! D24   D(8,7,14,15)          178.7682         estimate D2E/DX2                !
 ! D25   D(7,8,9,10)           179.4638         estimate D2E/DX2                !
 ! D26   D(7,8,9,11)            -0.0533         estimate D2E/DX2                !
 ! D27   D(21,8,9,10)            0.347          estimate D2E/DX2                !
 ! D28   D(21,8,9,11)         -179.1701         estimate D2E/DX2                !
 ! D29   D(8,9,10,12)          178.3983         estimate D2E/DX2                !
 ! D30   D(8,9,11,12)         -178.015          estimate D2E/DX2                !
 ! D31   D(8,9,11,13)           -4.8695         estimate D2E/DX2                !
 ! D32   D(9,10,12,13)           0.3554         estimate D2E/DX2                !
 ! D33   D(9,10,12,23)         179.8562         estimate D2E/DX2                !
 ! D34   D(9,10,12,24)           3.1828         estimate D2E/DX2                !
 ! D35   D(9,11,12,23)          -5.3865         estimate D2E/DX2                !
 ! D36   D(9,11,12,24)         178.8559         estimate D2E/DX2                !
 ! D37   D(10,12,24,22)         -1.27           estimate D2E/DX2                !
 ! D38   D(11,12,24,22)         -0.6617         estimate D2E/DX2                !
 ! D39   D(13,12,24,22)          1.639          estimate D2E/DX2                !
 ! D40   D(23,12,24,22)       -176.0743         estimate D2E/DX2                !
 ! D41   D(7,14,15,16)           2.015          estimate D2E/DX2                !
 ! D42   D(7,14,15,20)           0.6531         estimate D2E/DX2                !
 ! D43   D(7,14,15,25)         179.6261         estimate D2E/DX2                !
 ! D44   D(14,15,16,26)        178.1798         estimate D2E/DX2                !
 ! D45   D(25,15,16,26)          0.3779         estimate D2E/DX2                !
 ! D46   D(14,15,20,5)          -1.565          estimate D2E/DX2                !
 ! D47   D(25,15,20,5)         179.8295         estimate D2E/DX2                !
 ! D48   D(26,16,20,5)           0.6077         estimate D2E/DX2                !
 --------------------------------------------------------------------------------
 Trust Radius=3.00D-01 FncErr=1.00D-07 GrdErr=1.00D-06 EigMax=2.50D+02 EigMin=1.00D-04
 Number of steps in this run=    131 maximum allowed number of steps=    156.
 GradGradGradGradGradGradGradGradGradGradGradGradGradGradGradGradGradGrad

                          Input orientation:                          
 ---------------------------------------------------------------------
 Center     Atomic      Atomic             Coordinates (Angstroms)
 Number     Number       Type             X           Y           Z
 ---------------------------------------------------------------------
      1          7           0        1.124630   -0.021130   -0.178410
      2          7           0        2.585490   -0.203370   -0.677180
      3          6           0        3.555330   -0.615800   -1.790880
      4          6           0        4.798040   -0.335740   -1.033890
      5          6           0        5.789020   -0.630800   -1.831230
      6          7           0        7.037550   -0.793440   -2.261220
      7          6           0        7.667830   -1.183640   -3.360420
      8          6           0        8.955240   -1.022150   -2.884140
      9          7           0        9.735090   -1.325180   -3.718150
     10          7           0       10.921780   -1.438240   -4.031270
     11          6           0       10.315080   -1.871920   -5.236620
     12          6           0       11.573240   -2.021310   -5.522570
     13          6           0        9.781340   -2.052700   -5.590100
     14          7           0        7.820910   -1.739580   -4.893470
     15          6           0        5.880310   -1.647370   -4.563630
     16          6           0        4.311960   -1.287930   -3.591510
     17          1           0        0.654100    0.323750    0.753320
     18          1           0        0.402560   -0.260070   -0.826190
     19          1           0        4.935690    0.028120   -0.045560
     20          1           0        5.541680   -0.947880   -2.692570
     21          1           0        9.271130   -0.692810   -1.995530
     22          1           0       10.160450   -2.474410   -6.869050
     23          1           0       12.785120   -1.761050   -4.900260
     24          1           0       11.221600   -2.317910   -6.366000
     25          1           0        5.289710   -1.959400   -5.416400
     26          1           0        2.987510   -1.217310   -3.394500
 ---------------------------------------------------------------------
                    Distance matrix (angstroms):
                    1          2          3          4          5
     1  N    0.000000
     2  N    1.554379   0.000000
     3  C    2.976910   1.533302   0.000000
     4  C    3.784807   2.245026   1.481822   0.000000
     5  C    4.985985   3.431783   2.234105   1.305700   0.000000
     6  N    6.316422   4.762164   3.518328   2.594462   1.330477
     7  C    7.368180   5.830170   4.438305   3.790431   2.484750
     8  C    8.345146   6.790787   5.524434   4.601836   3.359572
     9  N    9.400549   7.850015   6.512068   5.706024   4.428781
    10  N   10.622470   9.070201   7.743406   6.906518   5.642461
    11  C   10.652478   9.127930   7.690590   7.103557   5.798472
    12  C   11.905218  10.371228   8.954767   8.300164   7.001193
    13  C   10.409241   8.907135   7.433838   6.967085   5.664761
    14  N    8.368096   6.895409   5.392969   5.099497   3.838657
    15  C    6.670180   5.295797   3.762687   3.918003   2.916806
    16  C    4.838709   3.556724   2.065555   2.772068   2.390002
    17  H    1.099300   2.460580   3.971504   4.560843   5.827389
    18  H    0.999048   2.188744   3.316192   4.401035   5.491948
    19  H    3.813693   2.444580   2.316499   1.062138   2.085897
    20  H    5.166256   3.654470   2.206560   1.918055   0.950591
    21  H    8.373681   6.831938   5.719981   4.589203   3.486535
    22  H   11.507793  10.043749   8.536384   8.208437   6.920110
    23  H   12.700009  11.148687   9.806573   8.987423   7.722812
    24  H   12.062764  10.555394   9.088487   8.580357   7.274847
    25  H    6.967160   5.732072   4.237656   4.699405   3.855896
    26  H    3.904408   2.928058   1.804392   3.102848   3.261329
                    6          7          8          9         10
     6  N    0.000000
     7  C    1.325801   0.000000
     8  C    2.029254   1.382153   0.000000
     9  N    3.111610   2.102753   1.181341   0.000000
    10  N    4.316953   3.332124   2.314372   1.232501   0.000000
    11  C    4.556131   3.316894   2.847005   1.714953   1.417403
    12  C    5.719838   4.541895   3.848838   2.668206   1.728683
    13  C    4.493947   3.192752   3.011095   2.008886   2.026849
    14  N    2.904750   1.637909   2.416365   2.284117   3.232582
    15  C    2.714681   2.204084   3.559042   3.959542   5.073811
    16  C    3.072952   3.365433   4.704366   5.424736   6.626138
    17  H    7.147307   8.269673   9.162504  10.255603  11.463951
    18  H    6.809324   7.749803   8.829737   9.828225  11.059594
    19  H    3.162582   4.463323   5.031638   6.193027   7.339576
    20  H    1.564462   2.241009   3.419738   4.333458   5.565793
    21  H    2.251577   2.162038   0.998939   1.892768   2.724802
    22  H    5.814659   4.493298   4.409206   3.380803   3.115488
    23  H    6.398075   5.375050   4.390751   3.300008   2.081198
    24  H    6.056360   4.790549   4.351865   3.194735   2.512902
    25  H    3.790721   3.237949   4.552679   4.800801   5.823264
    26  H    4.226915   4.680565   5.992692   6.756199   7.962847
                   11         12         13         14         15
    11  C    0.000000
    12  C    1.298865   0.000000
    13  C    0.665213   1.793447   0.000000
    14  N    2.521141   3.815117   2.103954   0.000000
    15  C    4.491161   5.785227   4.054130   1.970590   0.000000
    16  C    6.251790   7.549373   5.873104   3.769856   1.879877
    17  H   11.577343  12.810688  11.366310   9.354503   7.711585
    18  H   10.968501  12.245082  10.670983   8.588576   6.774866
    19  H    7.713306   8.846178   7.651932   5.911978   4.910451
    20  H    5.487384   6.748397   5.252716   3.265829   2.026036
    21  H    3.603442   4.416405   3.876925   3.405425   4.359356
    22  H    1.746921   2.003568   1.399027   3.149022   4.931385
    23  H    2.495301   1.386960   3.095744   4.964261   6.913946
    24  H    1.515317   0.960727   1.657319   3.750667   5.676931
    25  H    5.029346   6.284732   4.495956   2.593983   1.083230
    26  H    7.583878   8.881996   7.188509   5.087380   3.149620
                   16         17         18         19         20
    16  C    0.000000
    17  H    5.903812   0.000000
    18  H    4.897642   1.702636   0.000000
    19  H    3.833378   4.365503   4.608872   0.000000
    20  H    1.560749   6.113889   5.510627   2.885561   0.000000
    21  H    5.243538   9.101801   8.955789   4.808135   3.802594
    22  H    6.808439  12.502036  11.689135   8.951022   6.411421
    23  H    8.586682  13.545147  13.121691   9.401212   7.615941
    24  H    7.516766  13.012884  12.327848   9.217618   6.901635
    25  H    2.176486   8.047801   6.916790   5.737725   2.916490
    26  H    1.340883   5.002407   3.767558   4.069631   2.662533
                   21         22         23         24         25
    21  H    0.000000
    22  H    5.264616   0.000000
    23  H    4.682597   3.357664   0.000000
    24  H    5.054334   1.184732   2.214290   0.000000
    25  H    5.399843   5.108770   7.515778   6.018105   0.000000
    26  H    6.458800   8.068697   9.927544   8.822776   3.152602
                   26
    26  H    0.000000
 Stoichiometry    C10H10N6
 Framework group  C1[X(C10H10N6)]
 Deg. of freedom    72
 Full point group                 C1      NOp   1
 Largest Abelian subgroup         C1      NOp   1
 Largest concise Abelian subgroup C1      NOp   1
                         Standard orientation:                         
 ---------------------------------------------------------------------
 Center     Atomic      Atomic             Coordinates (Angstroms)
 Number     Number       Type             X           Y           Z
 ---------------------------------------------------------------------
      1          7           0        6.600628   -0.080854    0.002416
      2          7           0        5.061992   -0.301513    0.000259
      3          6           0        3.646707    0.288388   -0.000007
      4          6           0        2.931492   -1.009403    0.000937
      5          6           0        1.656692   -0.727025    0.000625
      6          7           0        0.338920   -0.910428    0.003948
      7          6           0       -0.766882   -0.179203   -0.012209
      8          6           0       -1.665072   -1.229626    0.002318
      9          7           0       -2.771215   -0.814920   -0.003327
     10          7           0       -3.974652   -1.080992   -0.005872
     11          6           0       -4.043722    0.334671   -0.018500
     12          6           0       -5.304115    0.023575    0.022484
     13          6           0       -3.758985    0.934066    0.027957
     14          7           0       -1.670885    1.186589   -0.023940
     15          6           0        0.201345    1.800764    0.003767
     16          6           0        2.073120    1.626417    0.004330
     17          1           0        7.484075   -0.735057    0.002881
     18          1           0        6.911762    0.868509    0.001028
     19          1           0        3.306772   -2.003031    0.003447
     20          1           0        1.441959    0.198993   -0.001623
     21          1           0       -1.496720   -2.214277    0.002571
     22          1           0       -4.727953    1.942015   -0.021221
     23          1           0       -6.054948   -1.142256   -0.004844
     24          1           0       -5.415600    0.977690    0.007232
     25          1           0        0.293923    2.880023   -0.000329
     26          1           0        3.339738    2.066466    0.006260
 ---------------------------------------------------------------------
 Rotational constants (GHZ):           2.4298565           0.1907075           0.1768329
 Standard basis: 6-31G(2df,p) (6D, 7F)
 There are   546 symmetry adapted cartesian basis functions of A   symmetry.
 There are   498 symmetry adapted basis functions of A   symmetry.
   498 basis functions,   774 primitive gaussians,   546 cartesian basis functions
    56 alpha electrons       56 beta electrons
       nuclear repulsion energy       967.4701564151 Hartrees.
 NAtoms=   26 NActive=   26 NUniq=   26 SFac= 1.00D+00 NAtFMM=   60 NAOKFM=F Big=F
 Integral buffers will be    131072 words long.
 Raffenetti 2 integral format.
 Two-electron integral symmetry is turned on.
 One-electron integrals computed using PRISM.
 PrsmSu:  requested number of processors reduced to:  12 ShMem   1 Linda.
 NBasis=   498 RedAO= T EigKep=  1.09D-05  NBF=   498
 NBsUse=   498 1.00D-06 EigRej= -1.00D+00 NBFU=   498
 ExpMin= 1.61D-01 ExpMax= 4.17D+03 ExpMxC= 6.27D+02 IAcc=3 IRadAn=         5 AccDes= 0.00D+00
 Harris functional with IExCor=  402 and IRadAn=       5 diagonalized for initial guess.
 HarFok:  IExCor=  402 AccDes= 0.00D+00 IRadAn=         5 IDoV= 1 UseB2=F ITyADJ=14
 ICtDFT=  3500011 ScaDFX=  1.000000  1.000000  1.000000  1.000000
 FoFCou: FMM=F IPFlag=           0 FMFlag=      100000 FMFlg1=           0
         NFxFlg=           0 DoJE=T BraDBF=F KetDBF=T FulRan=T
         wScrn=  0.000000 ICntrl=       500 IOpCl=  0 I1Cent=   200000004 NGrid=           0
         NMat0=    1 NMatS0=      1 NMatT0=    0 NMatD0=    1 NMtDS0=    0 NMtDT0=    0
 Petite list used in FoFCou.
 Requested convergence on RMS density matrix=1.00D-08 within 128 cycles.
 Requested convergence on MAX density matrix=1.00D-06.
 Requested convergence on             energy=1.00D-06.
 No special actions if energy rises.
 Integral accuracy reduced to 1.0D-05 until final iterations.
 EnCoef did     6 forward-backward iterations
 EnCoef did   100 forward-backward iterations
 Problem detected with inexpensive integrals.
 Switching to full accuracy and repeating last cycle.
 EnCoef did     3 forward-backward iterations
 EnCoef did     2 forward-backward iterations
 EnCoef did     2 forward-backward iterations
 EnCoef did    13 forward-backward iterations
 EnCoef did     2 forward-backward iterations
 EnCoef did     2 forward-backward iterations
 EnCoef did   100 forward-backward iterations
 EnCoef did     2 forward-backward iterations
 EnCoef did     4 forward-backward iterations
 EnCoef did     9 forward-backward iterations
 EnCoef did     3 forward-backward iterations
 EnCoef did     5 forward-backward iterations
 EnCoef did     1 forward-backward iterations
 EnCoef did     4 forward-backward iterations
 Restarting incremental Fock formation.
 SCF Done:  E(RB3LYP) =  -711.893235928     A.U. after   43 cycles
            NFock= 43  Conv=0.41D-08     -V/T= 1.9944

 **********************************************************************

            Population analysis using the SCF density.

 **********************************************************************

 Orbital symmetries:
       Occupied  (A) (A) (A) (A) (A) (A) (A) (A) (A) (A) (A) (A)
                 (A) (A) (A) (A) (A) (A) (A) (A) (A) (A) (A) (A)
                 (A) (A) (A) (A) (A) (A) (A) (A) (A) (A) (A) (A)
                 (A) (A) (A) (A) (A) (A) (A) (A) (A) (A) (A) (A)
                 (A) (A) (A) (A) (A) (A) (A) (A)
       Virtual   (A) (A) (A) (A) (A) (A) (A) (A) (A) (A) (A) (A)
                 (A) (A) (A) (A) (A) (A) (A) (A) (A) (A) (A) (A)
                 (A) (A) (A) (A) (A) (A) (A) (A) (A) (A) (A) (A)
                 (A) (A) (A) (A) (A) (A) (A) (A) (A) (A) (A) (A)
                 (A) (A) (A) (A) (A) (A) (A) (A) (A) (A) (A) (A)
                 (A) (A) (A) (A) (A) (A) (A) (A) (A) (A) (A) (A)
                 (A) (A) (A) (A) (A) (A) (A) (A) (A) (A) (A) (A)
                 (A) (A) (A) (A) (A) (A) (A) (A) (A) (A) (A) (A)
                 (A) (A) (A) (A) (A) (A) (A) (A) (A) (A) (A) (A)
                 (A) (A) (A) (A) (A) (A) (A) (A) (A) (A) (A) (A)
                 (A) (A) (A) (A) (A) (A) (A) (A) (A) (A) (A) (A)
                 (A) (A) (A) (A) (A) (A) (A) (A) (A) (A) (A) (A)
                 (A) (A) (A) (A) (A) (A) (A) (A) (A) (A) (A) (A)
                 (A) (A) (A) (A) (A) (A) (A) (A) (A) (A) (A) (A)
                 (A) (A) (A) (A) (A) (A) (A) (A) (A) (A) (A) (A)
                 (A) (A) (A) (A) (A) (A) (A) (A) (A) (A) (A) (A)
                 (A) (A) (A) (A) (A) (A) (A) (A) (A) (A) (A) (A)
                 (A) (A) (A) (A) (A) (A) (A) (A) (A) (A) (A) (A)
                 (A) (A) (A) (A) (A) (A) (A) (A) (A) (A) (A) (A)
                 (A) (A) (A) (A) (A) (A) (A) (A) (A) (A) (A) (A)
                 (A) (A) (A) (A) (A) (A) (A) (A) (A) (A) (A) (A)
                 (A) (A) (A) (A) (A) (A) (A) (A) (A) (A) (A) (A)
                 (A) (A) (A) (A) (A) (A) (A) (A) (A) (A) (A) (A)
                 (A) (A) (A) (A) (A) (A) (A) (A) (A) (A) (A) (A)
                 (A) (A) (A) (A) (A) (A) (A) (A) (A) (A) (A) (A)
                 (A) (A) (A) (A) (A) (A) (A) (A) (A) (A) (A) (A)
                 (A) (A) (A) (A) (A) (A) (A) (A) (A) (A) (A) (A)
                 (A) (A) (A) (A) (A) (A) (A) (A) (A) (A) (A) (A)
                 (A) (A) (A) (A) (A) (A) (A) (A) (A) (A) (A) (A)
                 (A) (A) (A) (A) (A) (A) (A) (A) (A) (A) (A) (A)
                 (A) (A) (A) (A) (A) (A) (A) (A) (A) (A) (A) (A)
                 (A) (A) (A) (A) (A) (A) (A) (A) (A) (A) (A) (A)
                 (A) (A) (A) (A) (A) (A) (A) (A) (A) (A) (A) (A)
                 (A) (A) (A) (A) (A) (A) (A) (A) (A) (A) (A) (A)
                 (A) (A) (A) (A) (A) (A) (A) (A) (A) (A) (A) (A)
                 (A) (A) (A) (A) (A) (A) (A) (A) (A) (A) (A) (A)
                 (A) (A) (A) (A) (A) (A) (A) (A) (A) (A)
 The electronic state is 1-A.
 Alpha  occ. eigenvalues --  -14.41894 -14.39434 -14.39290 -14.37072 -14.35538
 Alpha  occ. eigenvalues --  -14.34619 -10.45852 -10.28014 -10.26793 -10.26423
 Alpha  occ. eigenvalues --  -10.26195 -10.25683 -10.21710 -10.21415 -10.20703
 Alpha  occ. eigenvalues --  -10.20505  -1.13326  -0.98378  -0.95399  -0.90324
 Alpha  occ. eigenvalues --   -0.88190  -0.83052  -0.77617  -0.75356  -0.71170
 Alpha  occ. eigenvalues --   -0.68665  -0.65594  -0.64077  -0.59254  -0.58896
 Alpha  occ. eigenvalues --   -0.56632  -0.55398  -0.52091  -0.50351  -0.50029
 Alpha  occ. eigenvalues --   -0.49296  -0.46375  -0.45923  -0.45288  -0.41985
 Alpha  occ. eigenvalues --   -0.40389  -0.38876  -0.35109  -0.34759  -0.33052
 Alpha  occ. eigenvalues --   -0.32651  -0.31187  -0.30183  -0.28015  -0.26502
 Alpha  occ. eigenvalues --   -0.23488  -0.22837  -0.20524  -0.19995  -0.18899
 Alpha  occ. eigenvalues --   -0.18369
 Alpha virt. eigenvalues --   -0.15317  -0.11897  -0.06964  -0.06752  -0.05045
 Alpha virt. eigenvalues --   -0.02239   0.00001   0.00049   0.02100   0.03278
 Alpha virt. eigenvalues --    0.06858   0.07421   0.08909   0.09958   0.10234
 Alpha virt. eigenvalues --    0.13364   0.15455   0.15839   0.17420   0.18731
 Alpha virt. eigenvalues --    0.20019   0.22423   0.24693   0.25977   0.27210
 Alpha virt. eigenvalues --    0.27661   0.30053   0.31946   0.34641   0.35314
 Alpha virt. eigenvalues --    0.37924   0.41313   0.42138   0.42718   0.44396
 Alpha virt. eigenvalues --    0.45370   0.46429   0.46855   0.48412   0.48815
 Alpha virt. eigenvalues --    0.49429   0.50018   0.50979   0.51612   0.52641
 Alpha virt. eigenvalues --    0.52967   0.53683   0.54376   0.54817   0.55678
 Alpha virt. eigenvalues --    0.56211   0.57180   0.58532   0.59414   0.59957
 Alpha virt. eigenvalues --    0.60259   0.61101   0.61819   0.63638   0.64755
 Alpha virt. eigenvalues --    0.65800   0.66087   0.66687   0.67104   0.67976
 Alpha virt. eigenvalues --    0.70463   0.70744   0.71339   0.72568   0.72646
 Alpha virt. eigenvalues --    0.72905   0.73330   0.74262   0.75077   0.76307
 Alpha virt. eigenvalues --    0.77595   0.77951   0.78166   0.78637   0.79569
 Alpha virt. eigenvalues --    0.80156   0.80675   0.81324   0.81568   0.83648
 Alpha virt. eigenvalues --    0.85090   0.85145   0.85619   0.87224   0.87748
 Alpha virt. eigenvalues --    0.89279   0.89669   0.90645   0.91714   0.92823
 Alpha virt. eigenvalues --    0.93186   0.95121   0.97433   0.98626   0.99409
 Alpha virt. eigenvalues --    0.99594   1.00306   1.02727   1.03989   1.05033
 Alpha virt. eigenvalues --    1.05884   1.06684   1.07708   1.08740   1.09960
 Alpha virt. eigenvalues --    1.10461   1.11210   1.11585   1.11961   1.13930
 Alpha virt. eigenvalues --    1.16264   1.17316   1.18803   1.19743   1.20583
 Alpha virt. eigenvalues --    1.20663   1.23648   1.26029   1.27905   1.28432
 Alpha virt. eigenvalues --    1.28957   1.31277   1.32376   1.33546   1.35567
 Alpha virt. eigenvalues --    1.36494   1.37764   1.38088   1.38715   1.41092
 Alpha virt. eigenvalues --    1.42261   1.42800   1.43503   1.44902   1.46146
 Alpha virt. eigenvalues --    1.47763   1.48667   1.50097   1.50805   1.51572
 Alpha virt. eigenvalues --    1.56544   1.57168   1.58111   1.58647   1.59090
 Alpha virt. eigenvalues --    1.61420   1.62127   1.63730   1.66023   1.66336
 Alpha virt. eigenvalues --    1.68188   1.69550   1.71513   1.71727   1.72456
 Alpha virt. eigenvalues --    1.73454   1.74040   1.77992   1.79284   1.82483
 Alpha virt. eigenvalues --    1.84699   1.87621   1.89043   1.90057   1.91972
 Alpha virt. eigenvalues --    1.93712   1.94163   1.98416   1.99564   2.02474
 Alpha virt. eigenvalues --    2.03690   2.05892   2.05980   2.08715   2.09440
 Alpha virt. eigenvalues --    2.10712   2.15053   2.16945   2.20025   2.21581
 Alpha virt. eigenvalues --    2.24519   2.25429   2.26316   2.27443   2.29520
 Alpha virt. eigenvalues --    2.31886   2.32994   2.33407   2.38151   2.40531
 Alpha virt. eigenvalues --    2.40564   2.42546   2.43035   2.44655   2.48132
 Alpha virt. eigenvalues --    2.49782   2.51600   2.53432   2.55742   2.56431
 Alpha virt. eigenvalues --    2.58902   2.62425   2.63744   2.66411   2.69472
 Alpha virt. eigenvalues --    2.72396   2.73636   2.74584   2.76630   2.77626
 Alpha virt. eigenvalues --    2.80707   2.84648   2.85118   2.87291   2.87662
 Alpha virt. eigenvalues --    2.87871   2.89869   2.91093   2.92544   2.93222
 Alpha virt. eigenvalues --    2.94027   2.94805   2.95708   2.97217   2.97990
 Alpha virt. eigenvalues --    3.00850   3.01510   3.03116   3.04406   3.05470
 Alpha virt. eigenvalues --    3.07043   3.08462   3.09354   3.09667   3.11079
 Alpha virt. eigenvalues --    3.11981   3.14606   3.15587   3.16541   3.18289
 Alpha virt. eigenvalues --    3.18482   3.20186   3.21720   3.23560   3.24624
 Alpha virt. eigenvalues --    3.28031   3.32107   3.32800   3.33035   3.33739
 Alpha virt. eigenvalues --    3.34229   3.36578   3.38239   3.40245   3.40848
 Alpha virt. eigenvalues --    3.43449   3.43585   3.43997   3.46011   3.47437
 Alpha virt. eigenvalues --    3.48272   3.48746   3.50459   3.51911   3.53383
 Alpha virt. eigenvalues --    3.54873   3.56776   3.57607   3.57998   3.60369
 Alpha virt. eigenvalues --    3.61348   3.62033   3.62793   3.63461   3.66861
 Alpha virt. eigenvalues --    3.68244   3.69420   3.70530   3.72356   3.74384
 Alpha virt. eigenvalues --    3.76655   3.77316   3.79831   3.81719   3.83213
 Alpha virt. eigenvalues --    3.84045   3.87063   3.87146   3.88634   3.90721
 Alpha virt. eigenvalues --    3.91560   3.92030   3.93794   3.94521   3.97423
 Alpha virt. eigenvalues --    3.97595   3.98214   3.98818   3.99407   4.01932
 Alpha virt. eigenvalues --    4.02870   4.04605   4.05298   4.06382   4.07932
 Alpha virt. eigenvalues --    4.09148   4.09465   4.10783   4.11852   4.13433
 Alpha virt. eigenvalues --    4.14469   4.16204   4.17072   4.18681   4.19027
 Alpha virt. eigenvalues --    4.20919   4.22126   4.23110   4.23241   4.24943
 Alpha virt. eigenvalues --    4.25653   4.26723   4.28203   4.28484   4.29514
 Alpha virt. eigenvalues --    4.30788   4.31603   4.33527   4.33763   4.34589
 Alpha virt. eigenvalues --    4.34740   4.36838   4.40714   4.40857   4.42013
 Alpha virt. eigenvalues --    4.42803   4.43355   4.45481   4.45630   4.47398
 Alpha virt. eigenvalues --    4.48621   4.50423   4.50677   4.52285   4.52372
 Alpha virt. eigenvalues --    4.55097   4.55757   4.56656   4.57185   4.58964
 Alpha virt. eigenvalues --    4.59880   4.60710   4.61661   4.63239   4.67083
 Alpha virt. eigenvalues --    4.67441   4.69195   4.69413   4.72667   4.73112
 Alpha virt. eigenvalues --    4.73414   4.75387   4.78153   4.79584   4.80360
 Alpha virt. eigenvalues --    4.82456   4.83005   4.84018   4.84882   4.88490
 Alpha virt. eigenvalues --    4.89495   4.90838   4.92901   4.94306   4.95750
 Alpha virt. eigenvalues --    5.00581   5.03707   5.03936   5.05052   5.10909
 Alpha virt. eigenvalues --    5.12636   5.17909   5.19310   5.19997   5.21955
 Alpha virt. eigenvalues --    5.27320   5.30060   5.31943   5.37390   5.38673
 Alpha virt. eigenvalues --    5.39040   5.42512   5.44133   5.44961   5.52459
 Alpha virt. eigenvalues --    5.55743   5.59791   5.62639   5.65582   5.74656
 Alpha virt. eigenvalues --    5.80197   5.84481   5.89566   5.99428   6.08296
 Alpha virt. eigenvalues --    6.16624   6.31496   6.34928   6.38448   6.45599
 Alpha virt. eigenvalues --    6.71319   6.79101   7.19476   7.23724   7.67401
 Alpha virt. eigenvalues --    9.11426   9.81889  10.04782  10.13304  10.30402
 Alpha virt. eigenvalues --   10.81106  10.90787  11.09130  11.16327  11.30981
 Alpha virt. eigenvalues --   11.32502  11.35673  11.39255  11.45374  11.52302
 Alpha virt. eigenvalues --   11.56468  12.11442  12.98944  14.37503  16.57664
 Alpha virt. eigenvalues --   23.57023  28.02413
          Condensed to atoms (all electrons):
               1          2          3          4          5          6
     1  N    6.614049   0.220430  -0.023025   0.001995  -0.000231   0.000000
     2  N    0.220430   6.743513   0.341605  -0.037321   0.004919  -0.000039
     3  C   -0.023025   0.341605   5.337837   0.468136  -0.041958  -0.000798
     4  C    0.001995  -0.037321   0.468136   5.047537   0.333733  -0.003158
     5  C   -0.000231   0.004919  -0.041958   0.333733   4.889984   0.441787
     6  N    0.000000  -0.000039  -0.000798  -0.003158   0.441787   6.606950
     7  C   -0.000000  -0.000000   0.000290   0.000810  -0.109177   0.417173
     8  C    0.000000  -0.000000  -0.000006  -0.000248   0.007600  -0.006558
     9  N   -0.000000   0.000000  -0.000000   0.000001  -0.000442  -0.001836
    10  N    0.000000  -0.000000   0.000000  -0.000000  -0.000011  -0.000639
    11  C   -0.000000  -0.000000   0.000000   0.000000  -0.000077  -0.001547
    12  C    0.000000  -0.000000   0.000000   0.000000   0.000000   0.000008
    13  C   -0.000000  -0.000000   0.000000  -0.000000   0.000052   0.001178
    14  N    0.000000   0.000000  -0.000029   0.000000   0.000930  -0.026113
    15  C    0.000000  -0.000035   0.005003   0.004268  -0.051555   0.018749
    16  C   -0.000166  -0.008436   0.067526  -0.032218   0.021799  -0.042773
    17  H    0.336858  -0.016796   0.000371  -0.000083  -0.000001  -0.000000
    18  H    0.325181  -0.017774   0.001488  -0.000129   0.000018  -0.000000
    19  H   -0.000108  -0.002531  -0.040005   0.393629  -0.064333  -0.008789
    20  H   -0.000011   0.000746  -0.049116  -0.022118   0.285847  -0.032274
    21  H   -0.000000   0.000000  -0.000000   0.000082   0.001166   0.006165
    22  H    0.000000   0.000000  -0.000000  -0.000000   0.000000  -0.000001
    23  H    0.000000   0.000000  -0.000000  -0.000000   0.000000   0.000000
    24  H    0.000000   0.000000  -0.000000  -0.000000  -0.000000  -0.000000
    25  H   -0.000000   0.000001  -0.000073  -0.000202   0.002873   0.000145
    26  H    0.000126   0.003154  -0.052089  -0.005908   0.007108   0.000889
               7          8          9         10         11         12
     1  N   -0.000000   0.000000  -0.000000   0.000000  -0.000000   0.000000
     2  N   -0.000000  -0.000000   0.000000  -0.000000  -0.000000  -0.000000
     3  C    0.000290  -0.000006  -0.000000   0.000000   0.000000   0.000000
     4  C    0.000810  -0.000248   0.000001  -0.000000   0.000000   0.000000
     5  C   -0.109177   0.007600  -0.000442  -0.000011  -0.000077   0.000000
     6  N    0.417173  -0.006558  -0.001836  -0.000639  -0.001547   0.000008
     7  C    4.983717   0.233606  -0.099375   0.024440   0.041261   0.000363
     8  C    0.233606   4.954334   0.643134  -0.126981  -0.138903   0.002959
     9  N   -0.099375   0.643134   6.350221   0.407483  -1.412287  -0.010445
    10  N    0.024440  -0.126981   0.407483   7.228992   2.236162   0.086700
    11  C    0.041261  -0.138903  -1.412287   2.236162  35.025209  -1.124112
    12  C    0.000363   0.002959  -0.010445   0.086700  -1.124112   5.760268
    13  C   -0.030539   0.128750   1.023039  -2.572161 -31.692199   1.214758
    14  N    0.307751  -0.037500   0.020808  -0.008442   0.106433   0.004583
    15  C    0.023423   0.005066   0.000796   0.000001   0.000183  -0.000017
    16  C   -0.000762   0.000138   0.000000  -0.000000  -0.000001   0.000000
    17  H   -0.000000   0.000000   0.000000  -0.000000  -0.000000   0.000000
    18  H    0.000000  -0.000000  -0.000000  -0.000000   0.000000   0.000000
    19  H   -0.000230  -0.000007  -0.000000  -0.000000  -0.000000   0.000000
    20  H   -0.010411   0.001608   0.000150   0.000002   0.000036  -0.000000
    21  H   -0.074195   0.351382  -0.050368  -0.018000  -0.010166  -0.000084
    22  H    0.000033  -0.000334  -0.002826   0.017446   0.802054  -0.202491
    23  H   -0.000021  -0.000353   0.003269  -0.044339  -0.086667   0.340759
    24  H   -0.000149   0.000125   0.000880  -0.001348   0.171559   0.189716
    25  H   -0.001292  -0.000385  -0.000030   0.000001  -0.000059  -0.000000
    26  H   -0.000053   0.000001   0.000000  -0.000000  -0.000000  -0.000000
              13         14         15         16         17         18
     1  N   -0.000000   0.000000   0.000000  -0.000166   0.336858   0.325181
     2  N   -0.000000   0.000000  -0.000035  -0.008436  -0.016796  -0.017774
     3  C    0.000000  -0.000029   0.005003   0.067526   0.000371   0.001488
     4  C   -0.000000   0.000000   0.004268  -0.032218  -0.000083  -0.000129
     5  C    0.000052   0.000930  -0.051555   0.021799  -0.000001   0.000018
     6  N    0.001178  -0.026113   0.018749  -0.042773  -0.000000  -0.000000
     7  C   -0.030539   0.307751   0.023423  -0.000762  -0.000000   0.000000
     8  C    0.128750  -0.037500   0.005066   0.000138   0.000000  -0.000000
     9  N    1.023039   0.020808   0.000796   0.000000   0.000000  -0.000000
    10  N   -2.572161  -0.008442   0.000001  -0.000000  -0.000000  -0.000000
    11  C  -31.692199   0.106433   0.000183  -0.000001  -0.000000   0.000000
    12  C    1.214758   0.004583  -0.000017   0.000000   0.000000   0.000000
    13  C   40.460487  -0.049713  -0.001646   0.000002  -0.000000   0.000000
    14  N   -0.049713   6.979657   0.142315  -0.002132   0.000000  -0.000000
    15  C   -0.001646   0.142315   5.446142   0.303695  -0.000000   0.000000
    16  C    0.000002  -0.002132   0.303695   5.654657  -0.000001   0.000062
    17  H   -0.000000   0.000000  -0.000000  -0.000001   0.414072  -0.042432
    18  H    0.000000  -0.000000   0.000000   0.000062  -0.042432   0.471676
    19  H    0.000000   0.000000  -0.000068   0.003022   0.000012   0.000010
    20  H   -0.000039   0.001981  -0.009255   0.089714   0.000000  -0.000001
    21  H    0.007482   0.005080  -0.000277   0.000004  -0.000000   0.000000
    22  H   -0.506259  -0.009747   0.000064  -0.000000   0.000000  -0.000000
    23  H    0.074772   0.000007   0.000000  -0.000000   0.000000   0.000000
    24  H   -0.284062  -0.001392   0.000007  -0.000000   0.000000  -0.000000
    25  H    0.000060  -0.014756   0.285030  -0.020069   0.000000   0.000000
    26  H   -0.000000   0.000027  -0.012297   0.300741   0.000003  -0.000095
              19         20         21         22         23         24
     1  N   -0.000108  -0.000011  -0.000000   0.000000   0.000000   0.000000
     2  N   -0.002531   0.000746   0.000000   0.000000   0.000000   0.000000
     3  C   -0.040005  -0.049116  -0.000000  -0.000000  -0.000000  -0.000000
     4  C    0.393629  -0.022118   0.000082  -0.000000  -0.000000  -0.000000
     5  C   -0.064333   0.285847   0.001166   0.000000   0.000000  -0.000000
     6  N   -0.008789  -0.032274   0.006165  -0.000001   0.000000  -0.000000
     7  C   -0.000230  -0.010411  -0.074195   0.000033  -0.000021  -0.000149
     8  C   -0.000007   0.001608   0.351382  -0.000334  -0.000353   0.000125
     9  N   -0.000000   0.000150  -0.050368  -0.002826   0.003269   0.000880
    10  N   -0.000000   0.000002  -0.018000   0.017446  -0.044339  -0.001348
    11  C   -0.000000   0.000036  -0.010166   0.802054  -0.086667   0.171559
    12  C    0.000000  -0.000000  -0.000084  -0.202491   0.340759   0.189716
    13  C    0.000000  -0.000039   0.007482  -0.506259   0.074772  -0.284062
    14  N    0.000000   0.001981   0.005080  -0.009747   0.000007  -0.001392
    15  C   -0.000068  -0.009255  -0.000277   0.000064   0.000000   0.000007
    16  C    0.003022   0.089714   0.000004  -0.000000  -0.000000  -0.000000
    17  H    0.000012   0.000000  -0.000000   0.000000   0.000000   0.000000
    18  H    0.000010  -0.000001   0.000000  -0.000000   0.000000  -0.000000
    19  H    0.586415   0.004784   0.000013   0.000000  -0.000000   0.000000
    20  H    0.004784   0.511581  -0.000056   0.000000  -0.000000   0.000000
    21  H    0.000013  -0.000056   0.673787   0.000003   0.000078   0.000004
    22  H    0.000000   0.000000   0.000003   0.760070  -0.000085   0.124121
    23  H   -0.000000  -0.000000   0.000078  -0.000085   0.594380  -0.039340
    24  H    0.000000   0.000000   0.000004   0.124121  -0.039340   0.791181
    25  H    0.000001  -0.004111   0.000003   0.000006  -0.000000   0.000000
    26  H   -0.000264  -0.007395  -0.000000   0.000000   0.000000   0.000000
              25         26
     1  N   -0.000000   0.000126
     2  N    0.000001   0.003154
     3  C   -0.000073  -0.052089
     4  C   -0.000202  -0.005908
     5  C    0.002873   0.007108
     6  N    0.000145   0.000889
     7  C   -0.001292  -0.000053
     8  C   -0.000385   0.000001
     9  N   -0.000030   0.000000
    10  N    0.000001  -0.000000
    11  C   -0.000059  -0.000000
    12  C   -0.000000  -0.000000
    13  C    0.000060  -0.000000
    14  N   -0.014756   0.000027
    15  C    0.285030  -0.012297
    16  C   -0.020069   0.300741
    17  H    0.000000   0.000003
    18  H    0.000000  -0.000095
    19  H    0.000001  -0.000264
    20  H   -0.004111  -0.007395
    21  H    0.000003  -0.000000
    22  H    0.000006   0.000000
    23  H   -0.000000   0.000000
    24  H    0.000000   0.000000
    25  H    0.609412   0.001733
    26  H    0.001733   0.512336
 Mulliken charges:
               1
     1  N   -0.475099
     2  N   -0.231436
     3  C   -0.015157
     4  C   -0.148805
     5  C    0.269968
     6  N   -0.368515
     7  C    0.293339
     8  C   -0.017427
     9  N    0.127827
    10  N   -0.229305
    11  C    2.083119
    12  C   -0.262966
    13  C   -1.773961
    14  N   -0.419749
    15  C   -0.159590
    16  C   -0.334801
    17  H    0.307998
    18  H    0.261995
    19  H    0.128450
    20  H    0.238338
    21  H    0.107899
    22  H    0.017945
    23  H    0.157540
    24  H    0.048698
    25  H    0.141713
    26  H    0.251983
 Sum of Mulliken charges =  -0.00000
 Mulliken charges with hydrogens summed into heavy atoms:
               1
     1  N    0.094894
     2  N   -0.231436
     3  C   -0.015157
     4  C   -0.020355
     5  C    0.508305
     6  N   -0.368515
     7  C    0.293339
     8  C    0.090472
     9  N    0.127827
    10  N   -0.229305
    11  C    2.083119
    12  C   -0.056728
    13  C   -1.756016
    14  N   -0.419749
    15  C   -0.017877
    16  C   -0.082818
 Electronic spatial extent (au):  <R**2>=           5709.4352
 Charge=             -0.0000 electrons
 Dipole moment (field-independent basis, Debye):
    X=              2.3975    Y=             -1.7922    Z=             -0.0120  Tot=              2.9934
 Quadrupole moment (field-independent basis, Debye-Ang):
   XX=            -41.3457   YY=            -89.5425   ZZ=            -95.4615
   XY=              5.1214   XZ=              0.0828   YZ=             -0.0801
 Traceless Quadrupole moment (field-independent basis, Debye-Ang):
   XX=             34.1042   YY=            -14.0926   ZZ=            -20.0116
   XY=              5.1214   XZ=              0.0828   YZ=             -0.0801
 Octapole moment (field-independent basis, Debye-Ang**2):
  XXX=            266.8573  YYY=            -15.7504  ZZZ=             -0.0870  XYY=             20.3662
  XXY=              2.0095  XXZ=             -0.6534  XZZ=            -12.8339  YZZ=             -7.1246
  YYZ=             -0.0793  XYZ=              0.4810
 Hexadecapole moment (field-independent basis, Debye-Ang**3):
 XXXX=          -3410.7690 YYYY=           -653.1255 ZZZZ=            -90.9231 XXXY=             53.1805
 XXXZ=              4.0319 YYYX=             11.8026 YYYZ=             -0.5399 ZZZX=              0.2163
 ZZZY=             -0.0866 XXYY=          -1153.4282 XXZZ=          -1232.9419 YYZZ=           -137.9740
 XXYZ=             -2.0689 YYXZ=              0.6485 ZZXY=             -4.5419
 N-N= 9.674701564151D+02 E-N=-3.597693677533D+03  KE= 7.158722008005D+02
 PrsmSu:  requested number of processors reduced to:  13 ShMem   1 Linda.
 Calling FoFJK, ICntrl=      2127 FMM=F ISym2X=0 I1Cent= 0 IOpClX= 0 NMat=1 NMatS=1 NMatT=0.
 ***** Axes restored to original set *****
 -------------------------------------------------------------------
 Center     Atomic                   Forces (Hartrees/Bohr)
 Number     Number              X              Y              Z
 -------------------------------------------------------------------
      1        7           0.036884560   -0.013752576   -0.037567889
      2        7          -0.018809111    0.010887364    0.030496597
      3        6          -0.053020319    0.038032641    0.103424552
      4        6          -0.022913260    0.003358770    0.008763103
      5        6           0.093052235    0.014755460    0.043170487
      6        7          -0.038322662    0.021067168    0.051203923
      7        6           0.016334851   -0.014683335   -0.041210228
      8        6          -0.042252161    0.016851444    0.044240678
      9        7           0.098010273    0.008309833    0.017988922
     10        7           0.055919902    0.046435727    0.110603554
     11        6           4.738227062    1.669588707    3.313497477
     12        6           0.321169688    0.037355299    0.102025886
     13        6          -4.962963621   -1.740468515   -3.513962445
     14        7          -0.109602907    0.045982752    0.123194387
     15        6          -0.052708974    0.001820658    0.005328612
     16        6           0.002762031   -0.010149745   -0.028214368
     17        1           0.057660683   -0.014983471   -0.040113285
     18        1          -0.006115300   -0.004034863   -0.011786519
     19        1          -0.010640594    0.005089158    0.013796769
     20        1          -0.100102725   -0.050025707   -0.135522327
     21        1           0.008001077    0.026859968    0.080324177
     22        1          -0.073020259    0.000361820    0.022303729
     23        1          -0.081917915   -0.019873416   -0.051570976
     24        1           0.056714071   -0.061365762   -0.162825541
     25        1           0.003326756   -0.004486175   -0.011931209
     26        1           0.084326620   -0.012933203   -0.035658065
 -------------------------------------------------------------------
 Cartesian Forces:  Max     4.962963621 RMS     0.990624516

 GradGradGradGradGradGradGradGradGradGradGradGradGradGradGradGradGradGrad
 Berny optimization.
 FormGI is forming the generalized inverse of G from B-inverse, IUseBI=4.
 Internal  Forces:  Max     4.436122486 RMS     0.483058226
 Search for a local minimum.
 Step number   1 out of a maximum of  131
 All quantities printed in internal units (Hartrees-Bohrs-Radians)
 Mixed Optimization -- RFO/linear search
 Second derivative matrix not updated -- first step.
 ITU=  0
     Eigenvalues ---    0.00230   0.00230   0.00230   0.00230   0.00231
     Eigenvalues ---    0.00337   0.00457   0.00710   0.01006   0.01267
     Eigenvalues ---    0.01294   0.01529   0.01868   0.01945   0.02325
     Eigenvalues ---    0.02455   0.02458   0.02830   0.02979   0.03324
     Eigenvalues ---    0.03336   0.03358   0.04584   0.07468   0.10015
     Eigenvalues ---    0.11330   0.11657   0.12693   0.14844   0.15963
     Eigenvalues ---    0.15997   0.15998   0.15998   0.16000   0.16000
     Eigenvalues ---    0.16000   0.16000   0.16000   0.16693   0.17486
     Eigenvalues ---    0.18707   0.19644   0.21106   0.22000   0.22000
     Eigenvalues ---    0.22373   0.22470   0.23232   0.24992   0.24998
     Eigenvalues ---    0.25000   0.25000   0.25000   0.27282   0.29121
     Eigenvalues ---    0.33760   0.34283   0.34362   0.35607   0.38242
     Eigenvalues ---    0.41210   0.47856   0.47875   0.48711   0.52526
     Eigenvalues ---    0.55317   0.57316   0.59798   0.65635   0.79172
     Eigenvalues ---    1.14787  12.33824
 RFO step:  Lambda=-2.09130724D+00 EMin= 2.30000000D-03
 Linear search not attempted -- first point.
 Maximum step size (   0.300) exceeded in Quadratic search.
    -- Step size scaled by   0.672
 Iteration  1 RMS(Cart)=  0.04758523 RMS(Int)=  0.00115982
 Iteration  2 RMS(Cart)=  0.00123819 RMS(Int)=  0.00032128
 Iteration  3 RMS(Cart)=  0.00000359 RMS(Int)=  0.00032125
 Iteration  4 RMS(Cart)=  0.00000000 RMS(Int)=  0.00032125
 Variable       Old X    -DE/DX   Delta X   Delta X   Delta X     New X
                                 (Linear)    (Quad)   (Total)
    R1        2.93735  -0.11566   0.00000  -0.03286  -0.03286   2.90449
    R2        2.07738  -0.06338   0.00000  -0.01753  -0.01753   2.05985
    R3        1.88793   0.01303   0.00000   0.00340   0.00340   1.89133
    R4        2.89752  -0.09276   0.00000  -0.02615  -0.02615   2.87137
    R5        2.80024  -0.03968   0.00000  -0.01095  -0.01095   2.78929
    R6        2.46742   0.05935   0.00000   0.01451   0.01451   2.48192
    R7        2.00715   0.01320   0.00000   0.00358   0.00358   2.01074
    R8        2.51424   0.02766   0.00000   0.00675   0.00672   2.52096
    R9        1.79636   0.18289   0.00000   0.04629   0.04626   1.84262
   R10        2.50540   0.05271   0.00000   0.01286   0.01286   2.51827
   R11        2.61189   0.09507   0.00000   0.02476   0.02476   2.63665
   R12        3.09520  -0.07352   0.00000  -0.02173  -0.02172   3.07348
   R13        2.23241   0.23006   0.00000   0.04770   0.04770   2.28011
   R14        1.88772   0.08284   0.00000   0.02165   0.02165   1.90937
   R15        2.32909  -0.14642   0.00000   0.00461   0.00468   2.33377
   R16        3.24079   0.28550   0.00000   0.05126   0.05104   3.29183
   R17        2.67850  -0.46605   0.00000  -0.00168  -0.00137   2.67714
   R18        3.26674   0.40730   0.00000   0.04823   0.04796   3.31469
   R19        2.45450  -1.15044   0.00000  -0.02061  -0.01861   2.43589
   R20        1.25707   4.43612   0.00000   0.20683   0.20789   1.46496
   R21        3.38912   1.80559   0.00000   0.09799   0.09634   3.48546
   R22        2.62097  -0.09845   0.00000  -0.02952  -0.02952   2.59145
   R23        1.81551   0.14817   0.00000   0.03763   0.03763   1.85314
   R24        3.72388  -0.06786   0.00000  -0.02070  -0.02066   3.70321
   R25        3.55245  -0.10200   0.00000  -0.03098  -0.03097   3.52148
   R26        3.82865  -0.01725   0.00000  -0.00508  -0.00509   3.82356
   R27        2.04701   0.00887   0.00000   0.00243   0.00243   2.04944
   R28        2.94939   0.02430   0.00000   0.00736   0.00734   2.95673
   R29        2.53390  -0.08921   0.00000  -0.02653  -0.02653   2.50737
   R30        2.23882   0.05588   0.00000   0.01703   0.01703   2.25585
    A1        2.36175  -0.04378   0.00000  -0.01306  -0.01306   2.34869
    A2        2.02993   0.01738   0.00000   0.00519   0.00519   2.03512
    A3        1.89150   0.02640   0.00000   0.00788   0.00788   1.89937
    A4        2.60424  -0.11313   0.00000  -0.03245  -0.03245   2.57179
    A5        1.67957   0.07217   0.00000   0.02070   0.02070   1.70028
    A6        1.85650   0.00072   0.00000   0.00021   0.00021   1.85670
    A7        2.27678  -0.01286   0.00000  -0.00383  -0.00383   2.27295
    A8        2.14991   0.01214   0.00000   0.00363   0.00363   2.15353
    A9        2.78531  -0.07201   0.00000  -0.02102  -0.02097   2.76434
   A10        2.01665   0.02300   0.00000   0.00649   0.00654   2.02318
   A11        1.48123   0.04901   0.00000   0.01453   0.01443   1.49566
   A12        2.41892  -0.01169   0.00000  -0.00370  -0.00376   2.41516
   A13        1.69383   0.10726   0.00000   0.03093   0.03092   1.72475
   A14        2.73972  -0.06804   0.00000  -0.01984  -0.01981   2.71991
   A15        1.84953  -0.03924   0.00000  -0.01110  -0.01111   1.83842
   A16        1.91946   0.03073   0.00000   0.00893   0.00893   1.92839
   A17        2.26478  -0.03349   0.00000  -0.00987  -0.00987   2.25491
   A18        2.09882   0.00278   0.00000   0.00095   0.00095   2.09977
   A19        2.56530   0.12656   0.00000   0.00451   0.00441   2.56971
   A20        2.76558   0.15348   0.00000   0.01232   0.01222   2.77780
   A21        2.23059  -0.12773   0.00000   0.00758   0.00819   2.23878
   A22        2.16421   0.62194   0.00000   0.02175   0.02115   2.18536
   A23        1.86062   0.44265   0.00000   0.05354   0.05258   1.91320
   A24        2.64345   0.34189   0.00000   0.04364   0.04259   2.68604
   A25        1.22585   0.94182   0.00000   0.04649   0.04720   1.27305
   A26        1.44942  -0.23500   0.00000  -0.00882  -0.00898   1.44043
   A27        2.37973   0.22878   0.00000   0.00767   0.00784   2.38757
   A28        2.38332  -0.45143   0.00000  -0.02148  -0.02186   2.36146
   A29        1.44470   0.44449   0.00000   0.02022   0.02061   1.46531
   A30        2.67519   0.70855   0.00000   0.03770   0.03824   2.71343
   A31        1.15474  -0.70901   0.00000  -0.03877  -0.03932   1.11542
   A32        2.45222   0.00660   0.00000   0.00125   0.00125   2.45347
   A33        1.30302   0.11049   0.00000   0.03143   0.03159   1.33461
   A34        2.73151  -0.02338   0.00000  -0.00655  -0.00652   2.72499
   A35        1.91275  -0.04265   0.00000  -0.01237  -0.01235   1.90040
   A36        1.97325   0.01537   0.00000   0.00432   0.00431   1.97755
   A37        1.57811   0.00800   0.00000   0.00222   0.00221   1.58031
   A38        2.39698   0.02728   0.00000   0.00805   0.00804   2.40502
   A39        2.71434  -0.03867   0.00000  -0.01161  -0.01159   2.70274
   A40        2.32149   0.02292   0.00000   0.00676   0.00678   2.32827
   A41        2.71041  -0.03712   0.00000  -0.01005  -0.01011   2.70031
   A42        2.49738   0.07214   0.00000   0.02072   0.02075   2.51813
   A43        2.40593  -0.11476   0.00000  -0.03424  -0.03424   2.37169
    D1        3.14040  -0.00033   0.00000  -0.00011  -0.00011   3.14030
    D2       -0.00423  -0.00044   0.00000  -0.00014  -0.00014  -0.00437
    D3        3.13872  -0.00010   0.00000  -0.00003  -0.00003   3.13869
    D4       -3.13851  -0.00109   0.00000  -0.00035  -0.00035  -3.13886
    D5       -3.14140  -0.00011   0.00000  -0.00003  -0.00003  -3.14144
    D6        0.00232  -0.00016   0.00000  -0.00005  -0.00005   0.00227
    D7       -3.13452  -0.00019   0.00000  -0.00006  -0.00006  -3.13458
    D8        0.00177   0.00001   0.00000   0.00000   0.00000   0.00177
    D9        0.00513  -0.00018   0.00000  -0.00005  -0.00005   0.00508
   D10        3.14143   0.00002   0.00000   0.00000   0.00000   3.14144
   D11       -3.12773  -0.00005   0.00000  -0.00002  -0.00002  -3.12775
   D12        0.01866  -0.00031   0.00000  -0.00009  -0.00010   0.01856
   D13       -3.13095   0.00042   0.00000   0.00013   0.00012  -3.13083
   D14       -0.01037   0.00038   0.00000   0.00011   0.00011  -0.01026
   D15        0.00879   0.00014   0.00000   0.00004   0.00004   0.00883
   D16        3.12937   0.00010   0.00000   0.00003   0.00003   3.12940
   D17        3.13609   0.00115   0.00000   0.00036   0.00037   3.13646
   D18       -0.02796   0.00108   0.00000   0.00034   0.00034  -0.02762
   D19        3.13692  -0.00328   0.00000  -0.00102  -0.00102   3.13590
   D20       -0.02200  -0.00130   0.00000  -0.00040  -0.00040  -0.02240
   D21        0.00446  -0.00189   0.00000  -0.00061  -0.00061   0.00385
   D22        3.12873   0.00009   0.00000   0.00001   0.00001   3.12874
   D23        0.00169  -0.00058   0.00000  -0.00018  -0.00018   0.00151
   D24        3.12009  -0.00009   0.00000  -0.00004  -0.00004   3.12006
   D25        3.13223   0.00266   0.00000  -0.00063  -0.00064   3.13159
   D26       -0.00093  -0.00621   0.00000  -0.00048  -0.00046  -0.00139
   D27        0.00606   0.00135   0.00000  -0.00105  -0.00106   0.00499
   D28       -3.12711  -0.00752   0.00000  -0.00090  -0.00089  -3.12799
   D29        3.11364  -0.01436   0.00000  -0.00083  -0.00078   3.11285
   D30       -3.10695   0.06296   0.00000   0.00220   0.00213  -3.10482
   D31       -0.08499  -0.08579   0.00000  -0.00239  -0.00225  -0.08724
   D32        0.00620  -0.09326   0.00000  -0.00238  -0.00217   0.00403
   D33        3.13908   0.00992   0.00000  -0.00030  -0.00034   3.13874
   D34        0.05555   0.01139   0.00000  -0.00173  -0.00176   0.05379
   D35       -0.09401  -0.03774   0.00000  -0.00303  -0.00292  -0.09694
   D36        3.12162  -0.05358   0.00000  -0.00394  -0.00384   3.11778
   D37       -0.02217  -0.03331   0.00000  -0.00032  -0.00029  -0.02246
   D38       -0.01155  -0.05464   0.00000  -0.00348  -0.00340  -0.01495
   D39        0.02861   0.10748   0.00000   0.00207   0.00191   0.03052
   D40       -3.07308  -0.03289   0.00000  -0.00252  -0.00247  -3.07554
   D41        0.03517   0.00063   0.00000   0.00018   0.00019   0.03536
   D42        0.01140   0.00033   0.00000   0.00009   0.00009   0.01149
   D43        3.13507   0.00060   0.00000   0.00017   0.00017   3.13524
   D44        3.10983   0.00023   0.00000   0.00006   0.00006   3.10988
   D45        0.00660   0.00001   0.00000  -0.00000   0.00000   0.00660
   D46       -0.02731   0.00045   0.00000   0.00013   0.00013  -0.02718
   D47        3.13862   0.00063   0.00000   0.00018   0.00019   3.13880
   D48        0.01061   0.00078   0.00000   0.00022   0.00022   0.01082
         Item               Value     Threshold  Converged?
 Maximum Force            4.436122     0.000450     NO 
 RMS     Force            0.483058     0.000300     NO 
 Maximum Displacement     0.206091     0.001800     NO 
 RMS     Displacement     0.047801     0.001200     NO 
 Predicted change in Energy=-1.022972D+00
 GradGradGradGradGradGradGradGradGradGradGradGradGradGradGradGradGradGrad

                          Input orientation:                          
 ---------------------------------------------------------------------
 Center     Atomic      Atomic             Coordinates (Angstroms)
 Number     Number       Type             X           Y           Z
 ---------------------------------------------------------------------
      1          7           0        1.094592   -0.033160   -0.206276
      2          7           0        2.561447   -0.189970   -0.637656
      3          6           0        3.537677   -0.593320   -1.729928
      4          6           0        4.781737   -0.318035   -0.984813
      5          6           0        5.772050   -0.616679   -1.794165
      6          7           0        7.029986   -0.773547   -2.209661
      7          6           0        7.674781   -1.162839   -3.308996
      8          6           0        8.984901   -1.009447   -2.854244
      9          7           0        9.770164   -1.322499   -3.715177
     10          7           0       10.953483   -1.442406   -4.047666
     11          6           0       10.359073   -1.878525   -5.257400
     12          6           0       11.600596   -2.037300   -5.565583
     13          6           0        9.762115   -2.100931   -5.699158
     14          7           0        7.810321   -1.714677   -4.832917
     15          6           0        5.873659   -1.637606   -4.543686
     16          6           0        4.303837   -1.289676   -3.601782
     17          1           0        0.596434    0.302391    0.703340
     18          1           0        0.399605   -0.281608   -0.882268
     19          1           0        4.923783    0.045592    0.005020
     20          1           0        5.517377   -0.941237   -2.677663
     21          1           0        9.315321   -0.677920   -1.958806
     22          1           0       10.153758   -2.490870   -6.895467
     23          1           0       12.798513   -1.777560   -4.950684
     24          1           0       11.240942   -2.342651   -6.425272
     25          1           0        5.298008   -1.952953   -5.407030
     26          1           0        2.988229   -1.231839   -3.439492
 ---------------------------------------------------------------------
                    Distance matrix (angstroms):
                    1          2          3          4          5
     1  N    0.000000
     2  N    1.536991   0.000000
     3  C    2.933251   1.519465   0.000000
     4  C    3.779195   2.250913   1.476029   0.000000
     5  C    4.973983   3.439123   2.235419   1.313377   0.000000
     6  N    6.307982   4.772799   3.529710   2.600455   1.334034
     7  C    7.362196   5.850531   4.464688   3.805946   2.492667
     8  C    8.379848   6.844382   5.577589   4.651818   3.405942
     9  N    9.446710   7.919556   6.581551   5.774793   4.491479
    10  N   10.674267   9.144563   7.815819   6.981097   5.710283
    11  C   10.712135   9.219340   7.786287   7.197000   5.884474
    12  C   11.963063  10.459604   9.044777   8.392626   7.086163
    13  C   10.467731   9.006675   7.534674   7.085756   5.776902
    14  N    8.326723   6.890256   5.398284   5.092233   3.820230
    15  C    6.650328   5.321980   3.803233   3.949575   2.934703
    16  C    4.838135   3.609892   2.139101   2.832137   2.424058
    17  H    1.090026   2.429396   3.920969   4.555387   5.819727
    18  H    1.000849   2.177566   3.265454   4.383483   5.459579
    19  H    3.835825   2.459503   2.310745   1.064035   2.096480
    20  H    5.147173   3.669271   2.222265   1.948150   0.975072
    21  H    8.430152   6.899156   5.782795   4.650975   3.547623
    22  H   11.526235  10.104332   8.605581   8.277418   6.981062
    23  H   12.748886  11.221416   9.876172   9.062397   7.789893
    24  H   12.122627  10.651956   9.189489   8.684411   7.371222
    25  H    6.957166   5.774410   4.297494   4.742942   3.881126
    26  H    3.934003   3.019589   1.905836   3.174454   3.291684
                    6          7          8          9         10
     6  N    0.000000
     7  C    1.332609   0.000000
     8  C    2.071914   1.395257   0.000000
     9  N    3.174351   2.140351   1.206584   0.000000
    10  N    4.384000   3.372488   2.342440   1.234978   0.000000
    11  C    4.646774   3.393215   2.901518   1.741962   1.416679
    12  C    5.809454   4.611821   3.905087   2.699153   1.754060
    13  C    4.626345   3.309057   3.144668   2.131244   2.140196
    14  N    2.894153   1.626417   2.406686   2.290007   3.251187
    15  C    2.744333   2.234704   3.595639   3.996057   5.107714
    16  C    3.104236   3.386011   4.748652   5.467601   6.666328
    17  H    7.143795   8.267329   9.205634  10.311202  11.527568
    18  H    6.779818   7.719700   8.838877   9.844603  11.079329
    19  H    3.164158   4.473365   5.077517   6.260906   7.415907
    20  H    1.592210   2.258779   3.472687   4.394086   5.628439
    21  H    2.301050   2.179343   1.010395   1.925410   2.762490
    22  H    5.887608   4.557605   4.460081   3.409762   3.138281
    23  H    6.465071   5.415316   4.419128   3.302189   2.081323
    24  H    6.161624   4.880639   4.429379   3.247847   2.558532
    25  H    3.822815   3.267273   4.582586   4.822864   5.838914
    26  H    4.249508   4.688877   6.029266   6.788142   7.991213
                   11         12         13         14         15
    11  C    0.000000
    12  C    1.289017   0.000000
    13  C    0.775225   1.844425   0.000000
    14  N    2.589048   3.873897   2.170038   0.000000
    15  C    4.548227   5.831109   4.082876   1.959656   0.000000
    16  C    6.305053   7.593296   5.903382   3.740554   1.863486
    17  H   11.644567  12.878864  11.435806   9.314444   7.690512
    18  H   10.994677  12.266952  10.684988   8.519391   6.723837
    19  H    7.806259   8.941470   7.781688   5.902227   4.942282
    20  H    5.565571   6.822536   5.337802   3.240513   2.023341
    21  H    3.662185   4.480986   4.026764   3.405938   4.409948
    22  H    1.760790   2.016843   1.317797   3.216875   4.957638
    23  H    2.460718   1.371338   3.143961   4.989978   6.938215
    24  H    1.535262   0.980641   1.665112   3.833942   5.731071
    25  H    5.063823   6.305146   4.476102   2.588068   1.084519
    26  H    7.619209   8.907408   7.193535   5.042553   3.116024
                   16         17         18         19         20
    16  C    0.000000
    17  H    5.900305   0.000000
    18  H    4.863639   1.701162   0.000000
    19  H    3.895676   4.390848   4.621961   0.000000
    20  H    1.564636   6.098645   5.463528   2.919413   0.000000
    21  H    5.309293   9.168807   8.989216   4.864740   3.874335
    22  H    6.820029  12.525439  11.669743   9.022361   6.456567
    23  H    8.614933  13.608266  13.134793   9.481258   7.673395
    24  H    7.563350  13.081242  12.349388   9.325173   6.983390
    25  H    2.165002   8.032932   6.874680   5.781394   2.919099
    26  H    1.326842   5.023704   3.760758   4.152452   2.657334
                   21         22         23         24         25
    21  H    0.000000
    22  H    5.325447   0.000000
    23  H    4.721564   3.359422   0.000000
    24  H    5.140882   1.193742   2.218054   0.000000
    25  H    5.445619   5.107162   7.516421   6.042114   0.000000
    26  H    6.521607   8.054423   9.940985   8.846246   3.118701
                   26
    26  H    0.000000
 Stoichiometry    C10H10N6
 Framework group  C1[X(C10H10N6)]
 Deg. of freedom    72
 Full point group                 C1      NOp   1
 Largest Abelian subgroup         C1      NOp   1
 Largest concise Abelian subgroup C1      NOp   1
                         Standard orientation:                         
 ---------------------------------------------------------------------
 Center     Atomic      Atomic             Coordinates (Angstroms)
 Number     Number       Type             X           Y           Z
 ---------------------------------------------------------------------
      1          7           0        6.609042   -0.018856    0.003972
      2          7           0        5.099627   -0.308687    0.001600
      3          6           0        3.688611    0.255056    0.000062
      4          6           0        2.968585   -1.033440    0.001991
      5          6           0        1.687925   -0.742116    0.000776
      6          7           0        0.369595   -0.946179    0.003877
      7          6           0       -0.750273   -0.224070   -0.013473
      8          6           0       -1.677383   -1.266653    0.001698
      9          7           0       -2.802666   -0.831277   -0.004073
     10          7           0       -4.012352   -1.079914   -0.006769
     11          6           0       -4.097250    0.334164   -0.019296
     12          6           0       -5.353809    0.049838    0.022936
     13          6           0       -3.803960    1.049700    0.035129
     14          7           0       -1.636657    1.139523   -0.026491
     15          6           0        0.210441    1.793534    0.000912
     16          6           0        2.068534    1.651874    0.001755
     17          1           0        7.506705   -0.637204    0.005746
     18          1           0        6.880456    0.944486    0.001232
     19          1           0        3.342483   -2.029611    0.005701
     20          1           0        1.466856    0.207558   -0.002608
     21          1           0       -1.516598   -2.264172    0.002742
     22          1           0       -4.743961    1.971885   -0.015499
     23          1           0       -6.093530   -1.104523   -0.005911
     24          1           0       -5.468675    1.023639    0.009778
     25          1           0        0.282589    2.875638   -0.004261
     26          1           0        3.309028    2.122706    0.003330
 ---------------------------------------------------------------------
 Rotational constants (GHZ):           2.3637118           0.1880932           0.1742336
 Standard basis: 6-31G(2df,p) (6D, 7F)
 There are   546 symmetry adapted cartesian basis functions of A   symmetry.
 There are   498 symmetry adapted basis functions of A   symmetry.
   498 basis functions,   774 primitive gaussians,   546 cartesian basis functions
    56 alpha electrons       56 beta electrons
       nuclear repulsion energy       955.3845098915 Hartrees.
 NAtoms=   26 NActive=   26 NUniq=   26 SFac= 1.00D+00 NAtFMM=   60 NAOKFM=F Big=F
 Integral buffers will be    131072 words long.
 Raffenetti 2 integral format.
 Two-electron integral symmetry is turned on.
 One-electron integrals computed using PRISM.
 PrsmSu:  requested number of processors reduced to:  12 ShMem   1 Linda.
 NBasis=   498 RedAO= T EigKep=  3.07D-05  NBF=   498
 NBsUse=   498 1.00D-06 EigRej= -1.00D+00 NBFU=   498
 Initial guess from the checkpoint file:  "NNdc1ccnc2cnncccn-2cc1.chk"
 B after Tr=    -0.000000    0.000000   -0.000000
         Rot=    1.000000    0.000316    0.000009   -0.000192 Ang=   0.04 deg.
 ExpMin= 1.61D-01 ExpMax= 4.17D+03 ExpMxC= 6.27D+02 IAcc=2 IRadAn=         4 AccDes= 0.00D+00
 Harris functional with IExCor=  402 and IRadAn=       4 diagonalized for initial guess.
 HarFok:  IExCor=  402 AccDes= 0.00D+00 IRadAn=         4 IDoV= 1 UseB2=F ITyADJ=14
 ICtDFT=  3500011 ScaDFX=  1.000000  1.000000  1.000000  1.000000
 FoFCou: FMM=F IPFlag=           0 FMFlag=      100000 FMFlg1=           0
         NFxFlg=           0 DoJE=T BraDBF=F KetDBF=T FulRan=T
         wScrn=  0.000000 ICntrl=       500 IOpCl=  0 I1Cent=   200000004 NGrid=           0
         NMat0=    1 NMatS0=      1 NMatT0=    0 NMatD0=    1 NMtDS0=    0 NMtDT0=    0
 Petite list used in FoFCou.
 Requested convergence on RMS density matrix=1.00D-08 within 128 cycles.
 Requested convergence on MAX density matrix=1.00D-06.
 Requested convergence on             energy=1.00D-06.
 No special actions if energy rises.
 Integral accuracy reduced to 1.0D-05 until final iterations.
 Initial convergence to 1.0D-05 achieved.  Increase integral accuracy.
 SCF Done:  E(RB3LYP) =  -712.993411885     A.U. after   33 cycles
            NFock= 33  Conv=0.81D-08     -V/T= 1.9987
 PrsmSu:  requested number of processors reduced to:  13 ShMem   1 Linda.
 Calling FoFJK, ICntrl=      2127 FMM=F ISym2X=0 I1Cent= 0 IOpClX= 0 NMat=1 NMatS=1 NMatT=0.
 ***** Axes restored to original set *****
 -------------------------------------------------------------------
 Center     Atomic                   Forces (Hartrees/Bohr)
 Number     Number              X              Y              Z
 -------------------------------------------------------------------
      1        7           0.040185330   -0.014079911   -0.039089845
      2        7          -0.019155411    0.009350310    0.027376772
      3        6          -0.060287297    0.035263844    0.097155238
      4        6          -0.019529851    0.001729715    0.002862193
      5        6           0.086295698    0.003415362    0.012804596
      6        7          -0.026990319    0.019246495    0.044208947
      7        6           0.023363877   -0.013896536   -0.034674412
      8        6          -0.019507850    0.009453292    0.021861254
      9        7           0.051528884    0.013196024    0.041668989
     10        7           0.029924238    0.046121834    0.113448229
     11        6           2.486689982    0.986395062    1.981753623
     12        6           0.298394634    0.015133406    0.040896560
     13        6          -2.679684782   -1.040257525   -2.151759848
     14        7          -0.108954780    0.045815537    0.121158364
     15        6          -0.060970936    0.001780948    0.005195551
[...]
 SLEqS3 Cycle:    75 Max:0.911983E-01 RMS: 347.308     Conv:0.178202E-02
 Iteration  4 RMS(Cart)=  0.01757652 RMS(Int)=  0.00939094
 SLEqS3 Cycle:   781 Max:0.934388E-02 RMS:0.136136E-02 Conv:0.339949E-02
 SLEqS3 Cycle:    90 Max:0.842026E-01 RMS: 665.071     Conv:0.339949E-02
 Iteration  5 RMS(Cart)=  0.01332023 RMS(Int)=  0.00885920
 SLEqS3 Cycle:    29 Max:0.814765E-01 RMS:0.184410E-01 Conv:0.104481E-03
 Iteration  6 RMS(Cart)=  0.00949316 RMS(Int)=  0.00834448
 SLEqS3 Cycle:   781 Max:0.790192E-02 RMS:0.144165E-02 Conv:0.428775E-03
 SLEqS3 Cycle:    75 Max:0.773001E-01 RMS: 84.4785     Conv:0.428775E-03
 Iteration  7 RMS(Cart)=  0.00791895 RMS(Int)=  0.00806399
 SLEqS3 Cycle:    29 Max:0.751117E-01 RMS:0.164967E-01 Conv:0.663372E-03
 Iteration  8 RMS(Cart)=  0.00583625 RMS(Int)=  0.00789227
 SLEqS3 Cycle:   781 Max:0.106527E-01 RMS:0.174407E-02 Conv:0.157063E-02
 SLEqS3 Cycle:    75 Max:0.720140E-01 RMS: 310.965     Conv:0.157063E-02
 Iteration  9 RMS(Cart)=  0.00427391 RMS(Int)=  0.00779356
 SLEqS3 Cycle:   781 Max:0.118841E-01 RMS:0.182971E-02 Conv:0.928393E-03
 SLEqS3 Cycle:    75 Max:0.705547E-01 RMS: 184.036     Conv:0.928393E-03
 Iteration 10 RMS(Cart)=  0.00327524 RMS(Int)=  0.00773567
 SLEqS3 Cycle:   781 Max:0.128895E-01 RMS:0.192114E-02 Conv:0.473410E-03
 SLEqS3 Cycle:    75 Max:0.695221E-01 RMS: 93.9473     Conv:0.473410E-03
 Iteration 11 RMS(Cart)=  0.00244138 RMS(Int)=  0.00770013
 SLEqS3 Cycle:   781 Max:0.137393E-01 RMS:0.200091E-02 Conv:0.280073E-03
 SLEqS3 Cycle:    89 Max:0.688155E-01 RMS:0.147389E-01 Conv:0.280073E-03
 Iteration 12 RMS(Cart)=  0.00102640 RMS(Int)=  0.00769282
 SLEqS3 Cycle:    29 Max:0.687121E-01 RMS:0.146642E-01 Conv:0.180361E-04
 Iteration 13 RMS(Cart)=  0.00144529 RMS(Int)=  0.00767212
 SLEqS3 Cycle:   781 Max:0.412951E-01 RMS:0.758924E-02 Conv:0.470686E-04
 SLEqS3 Cycle:    75 Max:0.684767E-01 RMS: 9.37103     Conv:0.470686E-04
 Iteration 14 RMS(Cart)=  0.00132667 RMS(Int)=  0.00765864
 SLEqS3 Cycle:   781 Max:0.408410E-01 RMS:0.752899E-02 Conv:0.182003E-03
 SLEqS3 Cycle:    89 Max:0.676617E-01 RMS:0.143853E-01 Conv:0.182003E-03
 Iteration 15 RMS(Cart)=  0.00103500 RMS(Int)=  0.00764889
 SLEqS3 Cycle:   781 Max:0.404518E-01 RMS:0.747911E-02 Conv:0.484701E-04
 SLEqS3 Cycle:    89 Max:0.672124E-01 RMS:0.142628E-01 Conv:0.484701E-04
 Iteration 16 RMS(Cart)=  0.00086302 RMS(Int)=  0.00764163
 SLEqS3 Cycle:   781 Max:0.402376E-01 RMS:0.745634E-02 Conv:0.922347E-04
 SLEqS3 Cycle:    75 Max:0.673929E-01 RMS: 18.3434     Conv:0.922347E-04
 Iteration 17 RMS(Cart)=  0.00072615 RMS(Int)=  0.00763603
 SLEqS3 Cycle:    15 Max:0.672954E-01 RMS: 5.06498     Conv:0.253756E-04
 Iteration 18 RMS(Cart)=  0.00065111 RMS(Int)=  0.00763148
 SLEqS3 Cycle:    29 Max:0.673983E-01 RMS:0.142463E-01 Conv:0.216545E-04
 Iteration 19 RMS(Cart)=  0.00058385 RMS(Int)=  0.00762767
 SLEqS3 Cycle:    29 Max:0.670634E-01 RMS:0.141853E-01 Conv:0.284683E-04
 Iteration 20 RMS(Cart)=  0.00088579 RMS(Int)=  0.00762240
 SLEqS3 Cycle:    29 Max:0.668784E-01 RMS:0.141226E-01 Conv:0.790126E-05
 Iteration 21 RMS(Cart)=  0.00047440 RMS(Int)=  0.00761983
 SLEqS3 Cycle:   781 Max:0.666793E-01 RMS:0.140789E-01 Conv:0.642357E-06
 SLEqS3 Cycle:   781 Max:0.666793E-01 RMS:0.140789E-01 Conv:0.642357E-06
 Iteration 22 RMS(Cart)=  0.00042413 RMS(Int)=  0.00761767
 SLEqS3 Cycle:    15 Max:0.666847E-01 RMS: 1.71232     Conv:0.852866E-05
 Iteration 23 RMS(Cart)=  0.00041748 RMS(Int)=  0.00761568
 SLEqS3 Cycle:    30 Max:0.667494E-01 RMS: 2.16986     Conv:0.108246E-04
 Iteration 24 RMS(Cart)=  0.00355818 RMS(Int)=  0.00760330
 SLEqS3 Cycle:    29 Max:0.660699E-01 RMS:0.141077E-01 Conv:0.190264E-04
 Iteration 25 RMS(Cart)=  0.00381615 RMS(Int)=  0.00761618
 SLEqS3 Cycle:    15 Max:0.662558E-01 RMS: 108.936     Conv:0.546620E-03
 Iteration 26 RMS(Cart)=  0.00066509 RMS(Int)=  0.00761347
 SLEqS3 Cycle:    29 Max:0.663839E-01 RMS:0.139825E-01 Conv:0.391840E-04
 Iteration 27 RMS(Cart)=  0.00048680 RMS(Int)=  0.00761167
 SLEqS3 Cycle:   781 Max:0.147509E-01 RMS:0.220944E-02 Conv:0.304211E-04
 SLEqS3 Cycle:    75 Max:0.663674E-01 RMS: 6.07615     Conv:0.304211E-04
 Iteration 28 RMS(Cart)=  0.00000122 RMS(Int)=  0.00761167
 SLEqS3 Cycle:   781 Max:0.370745E-01 RMS:0.972699E-02 Conv:0.171179E-06
 SLEqS3 Cycle:   781 Max:0.664475E-01 RMS:0.139963E-01 Conv:0.171179E-06
 Iteration 29 RMS(Cart)=  0.00003482 RMS(Int)=  0.00761155
 SLEqS3 Cycle:   781 Max:0.663786E-01 RMS:0.139880E-01 Conv:0.154459E-05
 SLEqS3 Cycle:   781 Max:0.663786E-01 RMS:0.139880E-01 Conv:0.154459E-05
 Iteration 30 RMS(Cart)=  0.00041416 RMS(Int)=  0.00761010
 SLEqS3 Cycle:    29 Max:0.668527E-01 RMS:0.140875E-01 Conv:0.572983E-04
 Iteration 31 RMS(Cart)=  0.00038522 RMS(Int)=  0.00760881
 SLEqS3 Cycle:    29 Max:0.672221E-01 RMS:0.141865E-01 Conv:0.166362E-04
 Iteration 32 RMS(Cart)=  0.00017557 RMS(Int)=  0.00760940
 SLEqS3 Cycle:    29 Max:0.666518E-01 RMS:0.140615E-01 Conv:0.215263E-04
 Iteration 33 RMS(Cart)=  0.00008999 RMS(Int)=  0.00760910
 SLEqS3 Cycle:   781 Max:0.669210E-01 RMS:0.141040E-01 Conv:0.339261E-05
 SLEqS3 Cycle:   781 Max:0.669212E-01 RMS:0.141041E-01 Conv:0.339261E-05
 Iteration 34 RMS(Cart)=  0.00035393 RMS(Int)=  0.00760796
 SLEqS3 Cycle:    29 Max:0.671455E-01 RMS:0.141594E-01 Conv:0.150825E-04
 Iteration 35 RMS(Cart)=  0.00011879 RMS(Int)=  0.00760758
 SLEqS3 Cycle:    29 Max:0.665537E-01 RMS:0.140505E-01 Conv:0.136064E-04
 Iteration 36 RMS(Cart)=  0.00015801 RMS(Int)=  0.00760808
 SLEqS3 Cycle:    29 Max:0.666062E-01 RMS:0.140448E-01 Conv:0.500152E-05
 Iteration 37 RMS(Cart)=  0.00032393 RMS(Int)=  0.00760708
 SLEqS3 Cycle:    29 Max:0.668453E-01 RMS:0.140945E-01 Conv:0.102546E-04
 Iteration 38 RMS(Cart)=  0.00029956 RMS(Int)=  0.00760619
 SLEqS3 Cycle:    29 Max:0.666803E-01 RMS:0.140673E-01 Conv:0.853572E-05
 Iteration 39 RMS(Cart)=  0.00008880 RMS(Int)=  0.00760594
 SLEqS3 Cycle:    29 Max:0.670436E-01 RMS:0.141447E-01 Conv:0.799409E-05
 Iteration 40 RMS(Cart)=  0.00009798 RMS(Int)=  0.00760622
 SLEqS3 Cycle:   781 Max:0.670806E-01 RMS:0.141420E-01 Conv:0.316876E-05
 SLEqS3 Cycle:   781 Max:0.670807E-01 RMS:0.141421E-01 Conv:0.316876E-05
 Iteration 41 RMS(Cart)=  0.00028465 RMS(Int)=  0.00760542
 SLEqS3 Cycle:    29 Max:0.667047E-01 RMS:0.140772E-01 Conv:0.943954E-05
 Iteration 42 RMS(Cart)=  0.00012808 RMS(Int)=  0.00760578
 SLEqS3 Cycle:    15 Max:0.667332E-01 RMS: 2.11899     Conv:0.106988E-04
 Iteration 43 RMS(Cart)=  0.00028024 RMS(Int)=  0.00760501
 SLEqS3 Cycle:    29 Max:0.669591E-01 RMS:0.141195E-01 Conv:0.246250E-04
 Iteration 44 RMS(Cart)=  0.00025964 RMS(Int)=  0.00760433
 SLEqS3 Cycle:    15 Max:0.669910E-01 RMS: 1.22389     Conv:0.607343E-05
 Iteration 45 RMS(Cart)=  0.00023987 RMS(Int)=  0.00760373
 SLEqS3 Cycle:    29 Max:0.671748E-01 RMS:0.141707E-01 Conv:0.535935E-05
 Iteration 46 RMS(Cart)=  0.00019591 RMS(Int)=  0.00760422
 SLEqS3 Cycle:    29 Max:0.666137E-01 RMS:0.140547E-01 Conv:0.594114E-05
 Iteration 47 RMS(Cart)=  0.00004687 RMS(Int)=  0.00760410
 SLEqS3 Cycle:    29 Max:0.669760E-01 RMS:0.141295E-01 Conv:0.341018E-05
 Iteration 48 RMS(Cart)=  0.00009459 RMS(Int)=  0.00760434
 SLEqS3 Cycle:    15 Max:0.669946E-01 RMS:0.411506     Conv:0.213047E-05
 Iteration 49 RMS(Cart)=  0.00024732 RMS(Int)=  0.00760372
 SLEqS3 Cycle:    29 Max:0.671778E-01 RMS:0.141711E-01 Conv:0.542491E-05
 Iteration 50 RMS(Cart)=  0.00019866 RMS(Int)=  0.00760422
 SLEqS3 Cycle:    29 Max:0.669876E-01 RMS:0.141289E-01 Conv:0.604552E-05
 Iteration 51 RMS(Cart)=  0.00007826 RMS(Int)=  0.00760402
 SLEqS3 Cycle:   781 Max:0.670108E-01 RMS:0.141310E-01 Conv:0.160832E-05
 SLEqS3 Cycle:   781 Max:0.670100E-01 RMS:0.141308E-01 Conv:0.160832E-05
 Iteration 52 RMS(Cart)=  0.00023039 RMS(Int)=  0.00760346
 SLEqS3 Cycle:    15 Max:0.672011E-01 RMS: 1.00052     Conv:0.495225E-05
 Iteration 53 RMS(Cart)=  0.00016970 RMS(Int)=  0.00760387
 SLEqS3 Cycle:    15 Max:0.670205E-01 RMS: 1.10382     Conv:0.547085E-05
 Iteration 54 RMS(Cart)=  0.00024040 RMS(Int)=  0.00760330
 SLEqS3 Cycle:    15 Max:0.672123E-01 RMS: 1.00127     Conv:0.495598E-05
 Iteration 55 RMS(Cart)=  0.00017607 RMS(Int)=  0.00760372
 SLEqS3 Cycle:    15 Max:0.673895E-01 RMS: 1.16132     Conv:0.575898E-05
 Iteration 56 RMS(Cart)=  0.00006984 RMS(Int)=  0.00760389
 SLEqS3 Cycle:    15 Max:0.671976E-01 RMS: 1.18796     Conv:0.589285E-05
 Iteration 57 RMS(Cart)=  0.00006657 RMS(Int)=  0.00760372
 SLEqS3 Cycle:   781 Max:0.671579E-01 RMS:0.141544E-01 Conv:0.210041E-05
 SLEqS3 Cycle:   781 Max:0.672201E-01 RMS:0.141732E-01 Conv:0.210041E-05
 Iteration 58 RMS(Cart)=  0.00023404 RMS(Int)=  0.00760317
 SLEqS3 Cycle:    29 Max:0.668518E-01 RMS:0.141044E-01 Conv:0.736770E-05
 Iteration 59 RMS(Cart)=  0.00012165 RMS(Int)=  0.00760346
 SLEqS3 Cycle:    15 Max:0.670464E-01 RMS: 1.58277     Conv:0.800802E-05
 Iteration 60 RMS(Cart)=  0.00022630 RMS(Int)=  0.00760294
 SLEqS3 Cycle:    15 Max:0.668880E-01 RMS: 3.08556     Conv:0.154140E-04
 Iteration 61 RMS(Cart)=  0.00021116 RMS(Int)=  0.00760248
 SLEqS3 Cycle:    29 Max:0.672418E-01 RMS:0.141873E-01 Conv:0.136612E-04
 Iteration 62 RMS(Cart)=  0.00057446 RMS(Int)=  0.00760379
 SLEqS3 Cycle:    29 Max:0.670293E-01 RMS:0.141365E-01 Conv:0.192573E-04
 Iteration 63 RMS(Cart)=  0.00014495 RMS(Int)=  0.00760344
 SLEqS3 Cycle:    29 Max:0.674183E-01 RMS:0.142165E-01 Conv:0.250043E-05
 Iteration 64 RMS(Cart)=  0.00003183 RMS(Int)=  0.00760352
 SLEqS3 Cycle:    29 Max:0.668495E-01 RMS:0.141021E-01 Conv:0.257550E-05
 Iteration 65 RMS(Cart)=  0.00001411 RMS(Int)=  0.00760348
 SLEqS3 Cycle:   781 Max:0.674321E-01 RMS:0.142159E-01 Conv:0.910294E-06
 SLEqS3 Cycle:   781 Max:0.674320E-01 RMS:0.142159E-01 Conv:0.910294E-06
 Iteration 66 RMS(Cart)=  0.00021230 RMS(Int)=  0.00760299
 SLEqS3 Cycle:    29 Max:0.672661E-01 RMS:0.141830E-01 Conv:0.173680E-04
 Iteration 67 RMS(Cart)=  0.00021100 RMS(Int)=  0.00760253
 SLEqS3 Cycle:    29 Max:0.674769E-01 RMS:0.142266E-01 Conv:0.721607E-05
 Iteration 68 RMS(Cart)=  0.00008174 RMS(Int)=  0.00760236
 SLEqS3 Cycle:    29 Max:0.670935E-01 RMS:0.141521E-01 Conv:0.680750E-05
 Iteration 69 RMS(Cart)=  0.00011661 RMS(Int)=  0.00760260
 SLEqS3 Cycle:   781 Max:0.672874E-01 RMS:0.141874E-01 Conv:0.159561E-05
 SLEqS3 Cycle:   781 Max:0.672874E-01 RMS:0.141874E-01 Conv:0.159561E-05
 Iteration 70 RMS(Cart)=  0.00020636 RMS(Int)=  0.00760217
 SLEqS3 Cycle:    29 Max:0.670768E-01 RMS:0.141546E-01 Conv:0.683481E-05
 Iteration 71 RMS(Cart)=  0.00068318 RMS(Int)=  0.00760370
 SLEqS3 Cycle:    29 Max:0.672244E-01 RMS:0.141763E-01 Conv:0.737339E-05
 Iteration 72 RMS(Cart)=  0.00009255 RMS(Int)=  0.00760348
 SLEqS3 Cycle:    29 Max:0.670365E-01 RMS:0.141409E-01 Conv:0.300203E-05
 Iteration 73 RMS(Cart)=  0.00009310 RMS(Int)=  0.00760370
 SLEqS3 Cycle:   781 Max:0.672329E-01 RMS:0.141764E-01 Conv:0.157428E-05
 SLEqS3 Cycle:   781 Max:0.672330E-01 RMS:0.141764E-01 Conv:0.157428E-05
 Iteration 74 RMS(Cart)=  0.00023389 RMS(Int)=  0.00760315
 SLEqS3 Cycle:    15 Max:0.672604E-01 RMS: 1.44300     Conv:0.730688E-05
 Iteration 75 RMS(Cart)=  0.00020921 RMS(Int)=  0.00760268
 SLEqS3 Cycle:    29 Max:0.670579E-01 RMS:0.141491E-01 Conv:0.670879E-05
 Iteration 76 RMS(Cart)=  0.00050414 RMS(Int)=  0.00760385
 SLEqS3 Cycle:    29 Max:0.672206E-01 RMS:0.141757E-01 Conv:0.687797E-05
 Iteration 77 RMS(Cart)=  0.00008777 RMS(Int)=  0.00760364
 SLEqS3 Cycle:    29 Max:0.674204E-01 RMS:0.142164E-01 Conv:0.287134E-05
 Iteration 78 RMS(Cart)=  0.00002303 RMS(Int)=  0.00760358
 SLEqS3 Cycle:    29 Max:0.670385E-01 RMS:0.141405E-01 Conv:0.303760E-05
 Iteration 79 RMS(Cart)=  0.00002549 RMS(Int)=  0.00760364
 SLEqS3 Cycle:   781 Max:0.672410E-01 RMS:0.141784E-01 Conv:0.440825E-06
 SLEqS3 Cycle:   781 Max:0.672406E-01 RMS:0.141782E-01 Conv:0.440825E-06
 Iteration 80 RMS(Cart)=  0.00025339 RMS(Int)=  0.00760305
 SLEqS3 Cycle:    15 Max:0.672639E-01 RMS: 1.55048     Conv:0.784615E-05
 Iteration 81 RMS(Cart)=  0.00020655 RMS(Int)=  0.00760259
 SLEqS3 Cycle:    29 Max:0.670662E-01 RMS:0.141507E-01 Conv:0.668917E-05
 Iteration 82 RMS(Cart)=  0.00052901 RMS(Int)=  0.00760381
 SLEqS3 Cycle:    29 Max:0.672264E-01 RMS:0.141769E-01 Conv:0.662963E-05
 Iteration 83 RMS(Cart)=  0.00008605 RMS(Int)=  0.00760360
 SLEqS3 Cycle:    29 Max:0.674269E-01 RMS:0.142175E-01 Conv:0.279558E-05
 Iteration 84 RMS(Cart)=  0.00003903 RMS(Int)=  0.00760351
 SLEqS3 Cycle:    29 Max:0.672316E-01 RMS:0.141799E-01 Conv:0.317422E-05
 Iteration 85 RMS(Cart)=  0.00009811 RMS(Int)=  0.00760375
 SLEqS3 Cycle:    29 Max:0.668514E-01 RMS:0.141024E-01 Conv:0.290790E-05
 Iteration 86 RMS(Cart)=  0.00002856 RMS(Int)=  0.00760368
 SLEqS3 Cycle:   781 Max:0.670514E-01 RMS:0.141403E-01 Conv:0.167364E-05
 SLEqS3 Cycle:   781 Max:0.670513E-01 RMS:0.141403E-01 Conv:0.167364E-05
 Iteration 87 RMS(Cart)=  0.00022059 RMS(Int)=  0.00760315
 SLEqS3 Cycle:    15 Max:0.670776E-01 RMS:0.718944     Conv:0.353941E-05
 Iteration 88 RMS(Cart)=  0.00022358 RMS(Int)=  0.00760265
 SLEqS3 Cycle:    15 Max:0.671028E-01 RMS:0.643089     Conv:0.315864E-05
 Iteration 89 RMS(Cart)=  0.00020854 RMS(Int)=  0.00760221
 SLEqS3 Cycle:    29 Max:0.673021E-01 RMS:0.141932E-01 Conv:0.265061E-05
 Iteration 90 RMS(Cart)=  0.00008644 RMS(Int)=  0.00760239
 SLEqS3 Cycle:    15 Max:0.673046E-01 RMS:0.600368     Conv:0.294400E-05
 Iteration 91 RMS(Cart)=  0.00018710 RMS(Int)=  0.00760201
 SLEqS3 Cycle:    29 Max:0.671031E-01 RMS:0.141576E-01 Conv:0.628122E-05
 Iteration 92 RMS(Cart)=  0.00054817 RMS(Int)=  0.00760319
 SLEqS3 Cycle:    29 Max:0.670784E-01 RMS:0.141459E-01 Conv:0.554202E-05
 Iteration 93 RMS(Cart)=  0.00021640 RMS(Int)=  0.00760270
 SLEqS3 Cycle:    29 Max:0.674728E-01 RMS:0.142271E-01 Conv:0.304467E-05
 Iteration 94 RMS(Cart)=  0.00004120 RMS(Int)=  0.00760279
 SLEqS3 Cycle:    29 Max:0.672797E-01 RMS:0.141876E-01 Conv:0.327794E-05
 Iteration 95 RMS(Cart)=  0.00005339 RMS(Int)=  0.00760268
 SLEqS3 Cycle:   781 Max:0.674859E-01 RMS:0.142275E-01 Conv:0.180714E-05
 SLEqS3 Cycle:   781 Max:0.674859E-01 RMS:0.142275E-01 Conv:0.180714E-05
 Iteration 96 RMS(Cart)=  0.00020697 RMS(Int)=  0.00760224
 SLEqS3 Cycle:    29 Max:0.673168E-01 RMS:0.141936E-01 Conv:0.164139E-04
 Iteration 97 RMS(Cart)=  0.00019074 RMS(Int)=  0.00760185
 SLEqS3 Cycle:    15 Max:0.673371E-01 RMS: 1.31916     Conv:0.668522E-05
 Iteration 98 RMS(Cart)=  0.00017640 RMS(Int)=  0.00760152
 SLEqS3 Cycle:    15 Max:0.673574E-01 RMS: 1.25561     Conv:0.636629E-05
 Iteration 99 RMS(Cart)=  0.00016758 RMS(Int)=  0.00760122
 SLEqS3 Cycle:    29 Max:0.671389E-01 RMS:0.141677E-01 Conv:0.611279E-05
 Iteration100 RMS(Cart)=  0.00096440 RMS(Int)=  0.00760318
 New curvilinear step not converged.
 ITry= 1 IFail=1 DXMaxC= 3.83D-01 DCOld= 1.00D+10 DXMaxT= 2.87D+00 DXLimC= 3.00D+00 Rises=F
 Iteration  1 RMS(Cart)=  0.00257669 RMS(Int)=  0.04787798
 Iteration  2 RMS(Cart)=  0.00410875 RMS(Int)=  0.03782044
 Iteration  3 RMS(Cart)=  0.04646361 RMS(Int)=  0.01030477
 SLEqS3 Cycle:    60 Max:0.842323E-01 RMS: 712.023     Conv:0.365770E-02
 Iteration  4 RMS(Cart)=  0.01713043 RMS(Int)=  0.00864652
 SLEqS3 Cycle:    30 Max:0.772929E-01 RMS: 106.767     Conv:0.545730E-03
 Iteration  5 RMS(Cart)=  0.01283018 RMS(Int)=  0.00794667
 SLEqS3 Cycle:   781 Max:0.691050E-02 RMS:0.106482E-02 Conv:0.659048E-03
 SLEqS3 Cycle:    75 Max:0.725232E-01 RMS: 129.450     Conv:0.659048E-03
 Iteration  6 RMS(Cart)=  0.00877303 RMS(Int)=  0.00754163
 SLEqS3 Cycle:   781 Max:0.676954E-02 RMS:0.133461E-02 Conv:0.119340E-02
 SLEqS3 Cycle:    89 Max:0.680635E-01 RMS:0.153819E-01 Conv:0.119340E-02
 Iteration  7 RMS(Cart)=  0.00703921 RMS(Int)=  0.00729174
 SLEqS3 Cycle:   781 Max:0.726413E-02 RMS:0.185384E-02 Conv:0.519891E-03
 SLEqS3 Cycle:    90 Max:0.662515E-01 RMS: 102.683     Conv:0.519891E-03
 Iteration  8 RMS(Cart)=  0.00527506 RMS(Int)=  0.00714556
 SLEqS3 Cycle:    44 Max:0.644884E-01 RMS:0.140376E-01 Conv:0.291761E-04
 Iteration  9 RMS(Cart)=  0.00394627 RMS(Int)=  0.00705634
 SLEqS3 Cycle:   781 Max: 317.348     RMS: 62.8633     Conv:0.317348E-03
 SLEqS3 Cycle:    89 Max:0.616628E-01 RMS:0.136389E-01 Conv:0.317348E-03
 Iteration 10 RMS(Cart)=  0.00299694 RMS(Int)=  0.00700257
 SLEqS3 Cycle:   781 Max:0.381999E-01 RMS:0.694225E-02 Conv:0.168461E-03
 SLEqS3 Cycle:    89 Max:0.617708E-01 RMS:0.133058E-01 Conv:0.168461E-03
 Iteration 11 RMS(Cart)=  0.00181054 RMS(Int)=  0.00696897
 SLEqS3 Cycle:    15 Max:0.613689E-01 RMS: 45.9603     Conv:0.231612E-03
 Iteration 12 RMS(Cart)=  0.00186312 RMS(Int)=  0.00694405
 SLEqS3 Cycle:    30 Max:0.612170E-01 RMS: 50.7842     Conv:0.255786E-03
 Iteration 13 RMS(Cart)=  0.00136503 RMS(Int)=  0.00692702
 SLEqS3 Cycle:   781 Max:0.116992E-01 RMS:0.187069E-02 Conv:0.134059E-03
 SLEqS3 Cycle:    75 Max:0.602614E-01 RMS: 26.6482     Conv:0.134059E-03
 Iteration 14 RMS(Cart)=  0.00112479 RMS(Int)=  0.00691432
 SLEqS3 Cycle:    30 Max:0.605918E-01 RMS: 30.9264     Conv:0.155656E-03
 Iteration 15 RMS(Cart)=  0.00093983 RMS(Int)=  0.00690433
 SLEqS3 Cycle:   781 Max:0.360763E-01 RMS:0.666337E-02 Conv:0.703832E-04
 SLEqS3 Cycle:    75 Max:0.600267E-01 RMS: 14.0056     Conv:0.703832E-04
 Iteration 16 RMS(Cart)=  0.00082702 RMS(Int)=  0.00689616
 SLEqS3 Cycle:    30 Max:0.503704E-01 RMS: 4.26204     Conv:0.214919E-04
 Iteration 17 RMS(Cart)=  0.07720035 RMS(Int)=  0.00899229
 SLEqS3 Cycle:   781 Max:0.377643E-01 RMS:0.557348E-02 Conv:0.159123E-02
 SLEqS3 Cycle:    75 Max:0.411656E-01 RMS: 322.621     Conv:0.159123E-02
 Iteration 18 RMS(Cart)=  0.00012032 RMS(Int)=  0.00898066
 SLEqS3 Cycle:   781 Max:0.497502E-01 RMS:0.101570E-01 Conv:0.275076E-04
 SLEqS3 Cycle:   781 Max:0.497503E-01 RMS:0.101570E-01 Conv:0.275076E-04
 Iteration 19 RMS(Cart)=  0.01035047 RMS(Int)=  0.00840305
 SLEqS3 Cycle:    30 Max:0.452688E-01 RMS: 67.5911     Conv:0.334160E-03
 Iteration 20 RMS(Cart)=  0.00602678 RMS(Int)=  0.00873333
 SLEqS3 Cycle:    30 Max:0.462642E-01 RMS: 9.38086     Conv:0.463269E-04
 Iteration 21 RMS(Cart)=  0.00033900 RMS(Int)=  0.00871384
 SLEqS3 Cycle:   781 Max:0.285031E-01 RMS:0.598309E-02 Conv:0.527467E-04
 SLEqS3 Cycle:    89 Max:0.457486E-01 RMS:0.104217E-01 Conv:0.527467E-04
 Iteration 22 RMS(Cart)=  0.00020458 RMS(Int)=  0.00871080
 SLEqS3 Cycle:   781 Max:0.511996E-01 RMS:0.104282E-01 Conv:0.483465E-05
 SLEqS3 Cycle:   781 Max:0.473613E-01 RMS:0.997284E-02 Conv:0.483465E-05
 Iteration 23 RMS(Cart)=  0.00399910 RMS(Int)=  0.00848941
 SLEqS3 Cycle:    30 Max:0.470657E-01 RMS: 26.6256     Conv:0.131621E-03
 Iteration 24 RMS(Cart)=  0.00135615 RMS(Int)=  0.00856239
 SLEqS3 Cycle:   781 Max:0.290668E-01 RMS:0.604984E-02 Conv:0.159628E-03
 SLEqS3 Cycle:    89 Max:0.470168E-01 RMS:0.105699E-01 Conv:0.159628E-03
 Iteration 25 RMS(Cart)=  0.00006020 RMS(Int)=  0.00855976
 SLEqS3 Cycle:   781 Max:0.521755E-01 RMS:0.106340E-01 Conv:0.103868E-04
 SLEqS3 Cycle:   781 Max:0.521761E-01 RMS:0.106341E-01 Conv:0.103868E-04
 Iteration 26 RMS(Cart)=  0.00748824 RMS(Int)=  0.00818348
 SLEqS3 Cycle:    30 Max:0.521850E-01 RMS: 23.3319     Conv:0.115616E-03
 Iteration 27 RMS(Cart)=  0.00091477 RMS(Int)=  0.00814127
 SLEqS3 Cycle:    29 Max:0.554744E-01 RMS:0.113610E-01 Conv:0.647717E-04
 Iteration 28 RMS(Cart)=  0.00587364 RMS(Int)=  0.00789166
 SLEqS3 Cycle:   781 Max:0.257768E-01 RMS:0.351921E-02 Conv:0.395941E-03
 SLEqS3 Cycle:    75 Max:0.548841E-01 RMS: 79.7234     Conv:0.395941E-03
 Iteration 29 RMS(Cart)=  0.00001783 RMS(Int)=  0.00789107
 SLEqS3 Cycle:   781 Max:0.576769E-01 RMS:0.118752E-01 Conv:0.158837E-05
 SLEqS3 Cycle:   781 Max:0.576780E-01 RMS:0.118754E-01 Conv:0.158837E-05
 Iteration 30 RMS(Cart)=  0.00477057 RMS(Int)=  0.00771121
 SLEqS3 Cycle:    15 Max:0.591442E-01 RMS: 122.264     Conv:0.608260E-03
 Iteration 31 RMS(Cart)=  0.00387569 RMS(Int)=  0.00757888
 SLEqS3 Cycle:   781 Max:0.186813E-01 RMS:0.286030E-02 Conv:0.364224E-03
 SLEqS3 Cycle:    75 Max:0.587678E-01 RMS: 73.1070     Conv:0.364224E-03
 Iteration 32 RMS(Cart)=  0.00001262 RMS(Int)=  0.00757855
slurmstepd: error: *** JOB 27449636 ON lewis4-r630-hpc4-node297 CANCELLED AT 2023-05-20T19:12:53 DUE TO TIME LIMIT ***
