### Starting Gaussian ###
 Entering Gaussian System, Link 0=g16
 Initial command:
 /cluster/software/gaussian/gaussian-16-A.03/avx2/g16/l1.exe "/local/scratch/yxie/Gau-12894.inp" -scrdir="/local/scratch/yxie/"
 Entering Link 1 = /cluster/software/gaussian/gaussian-16-A.03/avx2/g16/l1.exe PID=     12895.
  
 Copyright (c) 1988,1990,1992,1993,1995,1998,2003,2009,2016,
            Gaussian, Inc.  All Rights Reserved.
  
 This is part of the Gaussian(R) 16 program.  It is based on
 the Gaussian(R) 09 system (copyright 2009, Gaussian, Inc.),
 the Gaussian(R) 03 system (copyright 2003, Gaussian, Inc.),
 the Gaussian(R) 98 system (copyright 1998, Gaussian, Inc.),
 the Gaussian(R) 94 system (copyright 1995, Gaussian, Inc.),
 the Gaussian 92(TM) system (copyright 1992, Gaussian, Inc.),
 the Gaussian 90(TM) system (copyright 1990, Gaussian, Inc.),
 the Gaussian 88(TM) system (copyright 1988, Gaussian, Inc.),
 the Gaussian 86(TM) system (copyright 1986, Carnegie Mellon
 University), and the Gaussian 82(TM) system (copyright 1983,
 Carnegie Mellon University). Gaussian is a federally registered
 trademark of Gaussian, Inc.
  
 This software contains proprietary and confidential information,
 including trade secrets, belonging to Gaussian, Inc.
  
 This software is provided under written license and may be
 used, copied, transmitted, or stored only in accord with that
 written license.
  
 The following legend is applicable only to US Government
 contracts under FAR:
  
                    RESTRICTED RIGHTS LEGEND
  
 Use, reproduction and disclosure by the US Government is
 subject to restrictions as set forth in subparagraphs (a)
 and (c) of the Commercial Computer Software - Restricted
 Rights clause in FAR 52.227-19.
  
 Gaussian, Inc.
 340 Quinnipiac St., Bldg. 40, Wallingford CT 06492
  
  
 ---------------------------------------------------------------
 Warning -- This program may not be used in any manner that
 competes with the business of Gaussian, Inc. or will provide
 assistance to any competitor of Gaussian, Inc.  The licensee
 of this program is prohibited from giving any competitor of
 Gaussian, Inc. access to this program.  By using this program,
 the user acknowledges that Gaussian, Inc. is engaged in the
 business of creating and licensing software in the field of
 computational chemistry and represents and warrants to the
 licensee that it is not a competitor of Gaussian, Inc. and that
 it will not use this program in any manner prohibited above.
 ---------------------------------------------------------------
  

 Cite this work as:
 Gaussian 16, Revision A.03,
 M. J. Frisch, G. W. Trucks, H. B. Schlegel, G. E. Scuseria, 
 M. A. Robb, J. R. Cheeseman, G. Scalmani, V. Barone, 
 G. A. Petersson, H. Nakatsuji, X. Li, M. Caricato, A. V. Marenich, 
 J. Bloino, B. G. Janesko, R. Gomperts, B. Mennucci, H. P. Hratchian, 
 J. V. Ortiz, A. F. Izmaylov, J. L. Sonnenberg, D. Williams-Young, 
 F. Ding, F. Lipparini, F. Egidi, J. Goings, B. Peng, A. Petrone, 
 T. Henderson, D. Ranasinghe, V. G. Zakrzewski, J. Gao, N. Rega, 
 G. Zheng, W. Liang, M. Hada, M. Ehara, K. Toyota, R. Fukuda, 
 J. Hasegawa, M. Ishida, T. Nakajima, Y. Honda, O. Kitao, H. Nakai, 
 T. Vreven, K. Throssell, J. A. Montgomery, Jr., J. E. Peralta, 
 F. Ogliaro, M. J. Bearpark, J. J. Heyd, E. N. Brothers, K. N. Kudin, 
 V. N. Staroverov, T. A. Keith, R. Kobayashi, J. Normand, 
 K. Raghavachari, A. P. Rendell, J. C. Burant, S. S. Iyengar, 
 J. Tomasi, M. Cossi, J. M. Millam, M. Klene, C. Adamo, R. Cammi, 
 J. W. Ochterski, R. L. Martin, K. Morokuma, O. Farkas, 
 J. B. Foresman, and D. J. Fox, Gaussian, Inc., Wallingford CT, 2016.
 
 ******************************************
 Gaussian 16:  ES64L-G16RevA.03 25-Dec-2016
                20-May-2023 
 ******************************************
 %chk=NNNNNCN1NCC2dCCdCCdCqCdSrC1dCCdCNdC2.chk
 %NProcShared=20
 Will use up to   20 processors via shared memory.
 -----------------------------
 # opt freq b3lyp/6-31g(2df,p)
 -----------------------------
 1/18=20,19=15,26=3,38=1/1,3;
 2/9=110,12=2,17=6,18=5,40=1/2;
 3/5=1,6=6,7=104,11=2,25=1,30=1,71=1,74=-5/1,2,3;
 4//1;
 5/5=2,38=5/2;
 6/7=2,8=2,9=2,10=2,28=1/1;
 7//1,2,3,16;
 1/18=20,19=15,26=3/3(2);
 2/9=110/2;
 99//99;
 2/9=110/2;
 3/5=1,6=6,7=104,11=2,25=1,30=1,71=1,74=-5/1,2,3;
 4/5=5,16=3,69=1/1;
 5/5=2,38=5/2;
 7//1,2,3,16;
 1/18=20,19=15,26=3/3(-5);
 2/9=110/2;
 6/7=2,8=2,9=2,10=2,19=2,28=1/1;
 99/9=1/99;
 -------------------
 Title Card Required
 -------------------
 Symbolic Z-matrix:
 Charge =  0 Multiplicity = 1
 N                     1.06061  -0.04201   0.07719 
 N                     2.48251  -0.03787   0.09122 
 N                     2.98712  -1.30684   0.60589 
 N                     4.52878  -1.26      0.58014 
 N                     5.61517  -2.72704   1.12254 
 C                     7.7152   -2.67954   0.98692 
 N                     9.75482  -3.50606   0.88142 
 N                     8.37372  -4.12208   1.76643 
 C                     8.39941  -5.41964   2.26891 
 C                     9.65769  -5.93389   2.47191 
 C                     10.21115  -6.98618   2.913 
 C                     11.45942  -7.33609   3.06436 
 C                     12.292   -8.19466   3.41259 
 C                     13.41752  -7.22911   2.98792 
 C                     13.26773  -5.707     2.2014 
 C                     14.43351  -7.55814   3.09002 
 S                     15.07963  -9.49852   3.92457 
 C                     11.87371  -4.21674   1.25003 
 C                     11.95849  -2.35534   0.70441 
 C                     10.9095  -1.39558   0.67002 
 C                     11.40627  -2.4364    1.58105 
 N                     10.50905  -3.78509   2.51266 
 C                     10.66746  -5.13525   2.29509 
 H                     0.7045    0.85323  -0.27607 
 H                     0.70417  -0.15531   1.02861 
 H                     2.82656   0.73453   0.66959 
 H                     2.60807  -2.03225  -0.0092 
 H                     4.73466  -0.49135   1.20043 
 H                     4.75195  -3.29683   0.55516 
 H                     7.01764  -1.73956   1.75411 
 H                     6.99694  -2.42284   0.01692 
 H                     8.53355  -3.4409    2.52966 
 H                     7.94663  -6.11379   1.59737 
 H                     7.94719  -5.44487   3.24646 
 H                     9.58161  -7.68362   3.20231 
 H                     11.92444  -6.55907   2.75935 
 H                     11.73341  -9.05996   3.76081 
 H                     14.16343  -6.24997   2.64996 
 H                     15.77407  -8.33706   3.46267 
 H                     12.71172  -1.04543   0.47175 
 H                     9.88515  -1.03802   0.49533 
 H                     12.98882  -2.95333   1.50651 
 H                     11.67097  -5.34811   2.29955 
 
 Add virtual bond connecting atoms H30        and C6         Dist= 2.64D+00.
 Add virtual bond connecting atoms H42        and C19        Dist= 2.71D+00.
 Add virtual bond connecting atoms H40        and C19        Dist= 2.89D+00.
 Add virtual bond connecting atoms H43        and C18        Dist= 2.94D+00.
 Add virtual bond connecting atoms H39        and C16        Dist= 3.01D+00.
 Add virtual bond connecting atoms H42        and C18        Dist= 3.22D+00.
 Add virtual bond connecting atoms N8         and N7         Dist= 3.31D+00.
 Add virtual bond connecting atoms N22        and N7         Dist= 3.44D+00.
 Add virtual bond connecting atoms N8         and C6         Dist= 3.34D+00.
 Add virtual bond connecting atoms H32        and C6         Dist= 3.60D+00.
 Add virtual bond connecting atoms H30        and N5         Dist= 3.45D+00.
 Add virtual bond connecting atoms H31        and N5         Dist= 3.39D+00.
 Add virtual bond connecting atoms N5         and N4         Dist= 3.60D+00.
 Add virtual bond connecting atoms H29        and N4         Dist= 3.87D+00.

 GradGradGradGradGradGradGradGradGradGradGradGradGradGradGradGradGradGrad
 Berny optimization.
 Initialization pass.
                           ----------------------------
                           !    Initial Parameters    !
                           ! (Angstroms and Degrees)  !
 --------------------------                            --------------------------
 ! Name  Definition              Value          Derivative Info.                !
 --------------------------------------------------------------------------------
 ! R1    R(1,2)                  1.422          estimate D2E/DX2                !
 ! R2    R(1,24)                 1.0262         estimate D2E/DX2                !
 ! R3    R(1,25)                 1.0223         estimate D2E/DX2                !
 ! R4    R(2,3)                  1.4594         estimate D2E/DX2                !
 ! R5    R(2,26)                 1.0244         estimate D2E/DX2                !
 ! R6    R(3,4)                  1.5426         estimate D2E/DX2                !
 ! R7    R(3,27)                 1.0238         estimate D2E/DX2                !
 ! R8    R(4,5)                  1.9044         estimate D2E/DX2                !
 ! R9    R(4,28)                 1.0089         estimate D2E/DX2                !
 ! R10   R(4,29)                 2.0492         estimate D2E/DX2                !
 ! R11   R(5,29)                 1.1797         estimate D2E/DX2                !
 ! R12   R(5,30)                 1.8278         estimate D2E/DX2                !
 ! R13   R(5,31)                 1.7956         estimate D2E/DX2                !
 ! R14   R(6,8)                  1.767          estimate D2E/DX2                !
 ! R15   R(6,30)                 1.3995         estimate D2E/DX2                !
 ! R16   R(6,31)                 1.234          estimate D2E/DX2                !
 ! R17   R(6,32)                 1.9051         estimate D2E/DX2                !
 ! R18   R(7,8)                  1.7522         estimate D2E/DX2                !
 ! R19   R(7,22)                 1.8187         estimate D2E/DX2                !
 ! R20   R(8,9)                  1.3917         estimate D2E/DX2                !
 ! R21   R(8,32)                 1.0354         estimate D2E/DX2                !
 ! R22   R(9,10)                 1.3744         estimate D2E/DX2                !
 ! R23   R(9,33)                 1.0667         estimate D2E/DX2                !
 ! R24   R(9,34)                 1.0774         estimate D2E/DX2                !
 ! R25   R(10,11)                1.2681         estimate D2E/DX2                !
 ! R26   R(10,23)                1.2995         estimate D2E/DX2                !
 ! R27   R(11,12)                1.3052         estimate D2E/DX2                !
 ! R28   R(11,35)                0.9831         estimate D2E/DX2                !
 ! R29   R(12,13)                1.2456         estimate D2E/DX2                !
 ! R30   R(12,36)                0.9555         estimate D2E/DX2                !
 ! R31   R(13,14)                1.5425         estimate D2E/DX2                !
 ! R32   R(13,37)                1.0872         estimate D2E/DX2                !
 ! R33   R(14,15)                1.7198         estimate D2E/DX2                !
 ! R34   R(14,16)                1.0728         estimate D2E/DX2                !
 ! R35   R(14,38)                1.2764         estimate D2E/DX2                !
 ! R36   R(15,38)                1.1394         estimate D2E/DX2                !
 ! R37   R(16,39)                1.5946         estimate D2E/DX2                !
 ! R38   R(17,39)                1.4299         estimate D2E/DX2                !
 ! R39   R(18,42)                1.7045         estimate D2E/DX2                !
 ! R40   R(18,43)                1.5565         estimate D2E/DX2                !
 ! R41   R(19,20)                1.4222         estimate D2E/DX2                !
 ! R42   R(19,21)                1.0392         estimate D2E/DX2                !
 ! R43   R(19,40)                1.5288         estimate D2E/DX2                !
 ! R44   R(19,42)                1.4362         estimate D2E/DX2                !
 ! R45   R(20,21)                1.4697         estimate D2E/DX2                !
 ! R46   R(20,41)                1.0989         estimate D2E/DX2                !
 ! R47   R(22,23)                1.3767         estimate D2E/DX2                !
 ! R48   R(23,43)                1.0258         estimate D2E/DX2                !
 ! A1    A(2,1,24)             110.3565         estimate D2E/DX2                !
 ! A2    A(2,1,25)             109.864          estimate D2E/DX2                !
 ! A3    A(24,1,25)            107.2217         estimate D2E/DX2                !
 ! A4    A(1,2,3)              110.2855         estimate D2E/DX2                !
 ! A5    A(1,2,26)             110.0957         estimate D2E/DX2                !
 ! A6    A(3,2,26)             109.8994         estimate D2E/DX2                !
 ! A7    A(2,3,4)              108.2565         estimate D2E/DX2                !
 ! A8    A(2,3,27)             106.0333         estimate D2E/DX2                !
 ! A9    A(4,3,27)             112.426          estimate D2E/DX2                !
 ! A10   A(3,4,5)              122.8187         estimate D2E/DX2                !
 ! A11   A(3,4,28)             102.5213         estimate D2E/DX2                !
 ! A12   A(3,4,29)              94.5233         estimate D2E/DX2                !
 ! A13   A(5,4,28)             107.1798         estimate D2E/DX2                !
 ! A14   A(28,4,29)            137.9464         estimate D2E/DX2                !
 ! A15   A(4,5,30)              96.8891         estimate D2E/DX2                !
 ! A16   A(4,5,31)              97.6495         estimate D2E/DX2                !
 ! A17   A(29,5,31)            110.4119         estimate D2E/DX2                !
 ! A18   A(30,5,31)             62.0163         estimate D2E/DX2                !
 ! A19   A(8,6,30)             119.4877         estimate D2E/DX2                !
 ! A20   A(8,6,31)             137.184          estimate D2E/DX2                !
 ! A21   A(30,6,31)             90.0614         estimate D2E/DX2                !
 ! A22   A(30,6,32)             92.2126         estimate D2E/DX2                !
 ! A23   A(8,7,22)              79.6251         estimate D2E/DX2                !
 ! A24   A(6,8,7)               77.5206         estimate D2E/DX2                !
 ! A25   A(6,8,9)              158.0225         estimate D2E/DX2                !
 ! A26   A(7,8,9)              119.7098         estimate D2E/DX2                !
 ! A27   A(7,8,32)              91.1087         estimate D2E/DX2                !
 ! A28   A(9,8,32)             110.1447         estimate D2E/DX2                !
 ! A29   A(8,9,10)             114.7771         estimate D2E/DX2                !
 ! A30   A(8,9,33)             111.8141         estimate D2E/DX2                !
 ! A31   A(8,9,34)             109.9797         estimate D2E/DX2                !
 ! A32   A(10,9,33)            103.7751         estimate D2E/DX2                !
 ! A33   A(10,9,34)            103.9753         estimate D2E/DX2                !
 ! A34   A(33,9,34)            112.1984         estimate D2E/DX2                !
 ! A35   A(9,10,11)            139.5893         estimate D2E/DX2                !
 ! A36   A(9,10,23)            117.4741         estimate D2E/DX2                !
 ! A37   A(11,10,23)           102.6012         estimate D2E/DX2                !
 ! A38   A(10,11,12)           132.8588         estimate D2E/DX2                !
 ! A39   A(10,11,35)           114.3033         estimate D2E/DX2                !
 ! A40   A(12,11,35)           112.8378         estimate D2E/DX2                !
 ! A41   A(11,12,13)           148.921          estimate D2E/DX2                !
 ! A42   A(11,12,36)           102.1466         estimate D2E/DX2                !
 ! A43   A(13,12,36)           108.9323         estimate D2E/DX2                !
 ! A44   A(12,13,14)            88.8134         estimate D2E/DX2                !
 ! A45   A(12,13,37)           107.14           estimate D2E/DX2                !
 ! A46   A(14,13,37)           163.9972         estimate D2E/DX2                !
 ! A47   A(13,14,15)           128.049          estimate D2E/DX2                !
 ! A48   A(13,14,16)           118.2182         estimate D2E/DX2                !
 ! A49   A(15,14,16)           113.4184         estimate D2E/DX2                !
 ! A50   A(16,14,38)            72.9652         estimate D2E/DX2                !
 ! A51   A(42,18,43)           121.5015         estimate D2E/DX2                !
 ! A52   A(20,19,40)            77.3797         estimate D2E/DX2                !
 ! A53   A(20,19,42)           145.4515         estimate D2E/DX2                !
 ! A54   A(21,19,40)           117.1935         estimate D2E/DX2                !
 ! A55   A(21,19,42)            82.9703         estimate D2E/DX2                !
 ! A56   A(40,19,42)            95.0653         estimate D2E/DX2                !
 ! A57   A(19,20,41)           155.6339         estimate D2E/DX2                !
 ! A58   A(21,20,41)           130.0922         estimate D2E/DX2                !
 ! A59   A(7,22,23)             93.2352         estimate D2E/DX2                !
 ! A60   A(10,23,22)           119.459          estimate D2E/DX2                !
 ! A61   A(10,23,43)           129.1983         estimate D2E/DX2                !
 ! A62   A(22,23,43)           108.3828         estimate D2E/DX2                !
 ! A63   A(5,30,6)              80.2222         estimate D2E/DX2                !
 ! A64   A(5,31,6)              85.9091         estimate D2E/DX2                !
 ! A65   A(16,39,17)            93.6681         estimate D2E/DX2                !
 ! A66   A(18,42,19)            75.8328         estimate D2E/DX2                !
 ! A67   A(18,43,23)            88.4908         estimate D2E/DX2                !
 ! A68   L(29,5,30,31,-1)      172.4281         estimate D2E/DX2                !
 ! A69   L(31,6,32,30,-1)      182.274          estimate D2E/DX2                !
 ! A70   L(13,14,38,16,-1)     191.1833         estimate D2E/DX2                !
 ! A71   L(14,16,39,37,-1)     165.8625         estimate D2E/DX2                !
 ! A72   L(29,5,30,31,-2)      175.3526         estimate D2E/DX2                !
 ! A73   L(31,6,32,30,-2)      166.0475         estimate D2E/DX2                !
 ! A74   L(13,14,38,16,-2)     183.5108         estimate D2E/DX2                !
 ! A75   L(14,16,39,37,-2)     183.7596         estimate D2E/DX2                !
 ! D1    D(24,1,2,3)           179.4565         estimate D2E/DX2                !
 ! D2    D(24,1,2,26)           58.0147         estimate D2E/DX2                !
 ! D3    D(25,1,2,3)            61.434          estimate D2E/DX2                !
 ! D4    D(25,1,2,26)          -60.0078         estimate D2E/DX2                !
 ! D5    D(1,2,3,4)            179.1299         estimate D2E/DX2                !
 ! D6    D(1,2,3,27)            58.2816         estimate D2E/DX2                !
 ! D7    D(26,2,3,4)           -59.3117         estimate D2E/DX2                !
 ! D8    D(26,2,3,27)          179.8399         estimate D2E/DX2                !
 ! D9    D(2,3,4,5)           -178.3278         estimate D2E/DX2                !
 ! D10   D(2,3,4,28)            61.4563         estimate D2E/DX2                !
 ! D11   D(2,3,4,29)          -157.2322         estimate D2E/DX2                !
 ! D12   D(27,3,4,5)           -61.5347         estimate D2E/DX2                !
 ! D13   D(27,3,4,28)          178.2495         estimate D2E/DX2                !
 ! D14   D(27,3,4,29)          -40.4391         estimate D2E/DX2                !
 ! D15   D(3,4,5,30)          -148.6424         estimate D2E/DX2                !
 ! D16   D(3,4,5,31)           148.7866         estimate D2E/DX2                !
 ! D17   D(28,4,5,30)          -30.6462         estimate D2E/DX2                !
 ! D18   D(28,4,5,31)          -93.2172         estimate D2E/DX2                !
 ! D19   D(4,5,30,6)          -132.8982         estimate D2E/DX2                !
 ! D20   D(31,5,30,6)          -37.8707         estimate D2E/DX2                !
 ! D21   D(4,5,31,6)           137.2295         estimate D2E/DX2                !
 ! D22   D(29,5,31,6)         -141.184          estimate D2E/DX2                !
 ! D23   D(30,5,31,6)           43.4633         estimate D2E/DX2                !
 ! D24   D(30,6,8,7)          -129.4454         estimate D2E/DX2                !
 ! D25   D(30,6,8,9)            86.6594         estimate D2E/DX2                !
 ! D26   D(31,6,8,7)           102.81           estimate D2E/DX2                !
 ! D27   D(31,6,8,9)           -41.0851         estimate D2E/DX2                !
 ! D28   D(8,6,30,5)           -95.4135         estimate D2E/DX2                !
 ! D29   D(31,6,30,5)           52.0777         estimate D2E/DX2                !
 ! D30   D(32,6,30,5)         -113.9698         estimate D2E/DX2                !
 ! D31   D(8,6,31,5)            84.0033         estimate D2E/DX2                !
 ! D32   D(30,6,31,5)          -52.4998         estimate D2E/DX2                !
 ! D33   D(22,7,8,6)           131.515          estimate D2E/DX2                !
 ! D34   D(22,7,8,9)           -63.1937         estimate D2E/DX2                !
 ! D35   D(22,7,8,32)           50.8625         estimate D2E/DX2                !
 ! D36   D(8,7,22,23)           80.3805         estimate D2E/DX2                !
 ! D37   D(6,8,9,10)           162.0161         estimate D2E/DX2                !
 ! D38   D(6,8,9,33)            44.1615         estimate D2E/DX2                !
 ! D39   D(6,8,9,34)           -81.1863         estimate D2E/DX2                !
 ! D40   D(7,8,9,10)            23.5008         estimate D2E/DX2                !
 ! D41   D(7,8,9,33)           -94.3538         estimate D2E/DX2                !
 ! D42   D(7,8,9,34)           140.2984         estimate D2E/DX2                !
 ! D43   D(32,8,9,10)          -79.9759         estimate D2E/DX2                !
 ! D44   D(32,8,9,33)          162.1694         estimate D2E/DX2                !
 ! D45   D(32,8,9,34)           36.8216         estimate D2E/DX2                !
 ! D46   D(8,9,10,11)          177.9233         estimate D2E/DX2                !
 ! D47   D(8,9,10,23)            6.0023         estimate D2E/DX2                !
 ! D48   D(33,9,10,11)         -59.763          estimate D2E/DX2                !
 ! D49   D(33,9,10,23)         128.3159         estimate D2E/DX2                !
 ! D50   D(34,9,10,11)          57.7457         estimate D2E/DX2                !
 ! D51   D(34,9,10,23)        -114.1754         estimate D2E/DX2                !
 ! D52   D(9,10,11,12)        -178.9962         estimate D2E/DX2                !
 ! D53   D(9,10,11,35)           0.924          estimate D2E/DX2                !
 ! D54   D(23,10,11,12)         -6.3367         estimate D2E/DX2                !
 ! D55   D(23,10,11,35)        173.5835         estimate D2E/DX2                !
 ! D56   D(9,10,23,22)          28.971          estimate D2E/DX2                !
 ! D57   D(9,10,23,43)        -172.9031         estimate D2E/DX2                !
 ! D58   D(11,10,23,22)       -145.6724         estimate D2E/DX2                !
 ! D59   D(11,10,23,43)         12.4535         estimate D2E/DX2                !
 ! D60   D(10,11,12,13)       -178.9031         estimate D2E/DX2                !
 ! D61   D(10,11,12,36)          0.9538         estimate D2E/DX2                !
 ! D62   D(35,11,12,13)          1.1758         estimate D2E/DX2                !
 ! D63   D(35,11,12,36)       -178.9673         estimate D2E/DX2                !
 ! D64   D(11,12,13,14)        178.1183         estimate D2E/DX2                !
 ! D65   D(11,12,13,37)         -0.6038         estimate D2E/DX2                !
 ! D66   D(36,12,13,14)         -1.7338         estimate D2E/DX2                !
 ! D67   D(36,12,13,37)        179.5441         estimate D2E/DX2                !
 ! D68   D(12,13,14,15)         -5.7757         estimate D2E/DX2                !
 ! D69   D(12,13,14,16)       -178.8727         estimate D2E/DX2                !
 ! D70   D(37,13,14,15)        169.7907         estimate D2E/DX2                !
 ! D71   D(37,13,14,16)         -3.3063         estimate D2E/DX2                !
 ! D72   D(13,14,39,17)          1.7155         estimate D2E/DX2                !
 ! D73   D(15,14,39,17)       -173.8256         estimate D2E/DX2                !
 ! D74   D(38,14,39,17)        177.9107         estimate D2E/DX2                !
 ! D75   D(43,18,42,19)       -149.691          estimate D2E/DX2                !
 ! D76   D(42,18,43,23)        125.9657         estimate D2E/DX2                !
 ! D77   D(40,19,20,41)        151.9486         estimate D2E/DX2                !
 ! D78   D(42,19,20,41)       -127.586          estimate D2E/DX2                !
 ! D79   D(20,19,42,18)        113.0875         estimate D2E/DX2                !
 ! D80   D(21,19,42,18)         71.3039         estimate D2E/DX2                !
 ! D81   D(40,19,42,18)       -171.8668         estimate D2E/DX2                !
 ! D82   D(19,20,21,41)       -147.6117         estimate D2E/DX2                !
 ! D83   D(7,22,23,10)         -81.155          estimate D2E/DX2                !
 ! D84   D(7,22,23,43)         116.5582         estimate D2E/DX2                !
 ! D85   D(10,23,43,18)        147.9096         estimate D2E/DX2                !
 ! D86   D(22,23,43,18)        -52.0796         estimate D2E/DX2                !
 --------------------------------------------------------------------------------
 Trust Radius=3.00D-01 FncErr=1.00D-07 GrdErr=1.00D-06 EigMax=2.50D+02 EigMin=1.00D-04
 Number of steps in this run=    219 maximum allowed number of steps=    258.
 GradGradGradGradGradGradGradGradGradGradGradGradGradGradGradGradGradGrad

                          Input orientation:                          
 ---------------------------------------------------------------------
 Center     Atomic      Atomic             Coordinates (Angstroms)
 Number     Number       Type             X           Y           Z
 ---------------------------------------------------------------------
      1          7           0        1.060610   -0.042010    0.077190
      2          7           0        2.482510   -0.037870    0.091220
      3          7           0        2.987120   -1.306840    0.605890
      4          7           0        4.528780   -1.260000    0.580140
      5          7           0        5.615170   -2.727040    1.122540
      6          6           0        7.715200   -2.679540    0.986920
      7          7           0        9.754820   -3.506060    0.881420
      8          7           0        8.373720   -4.122080    1.766430
      9          6           0        8.399410   -5.419640    2.268910
     10          6           0        9.657690   -5.933890    2.471910
     11          6           0       10.211150   -6.986180    2.913000
     12          6           0       11.459420   -7.336090    3.064360
     13          6           0       12.292000   -8.194660    3.412590
     14          6           0       13.417520   -7.229110    2.987920
     15          6           0       13.267730   -5.707000    2.201400
     16          6           0       14.433510   -7.558140    3.090020
     17         16           0       15.079630   -9.498520    3.924570
     18          6           0       11.873710   -4.216740    1.250030
     19          6           0       11.958490   -2.355340    0.704410
     20          6           0       10.909500   -1.395580    0.670020
     21          6           0       11.406270   -2.436400    1.581050
     22          7           0       10.509050   -3.785090    2.512660
     23          6           0       10.667460   -5.135250    2.295090
     24          1           0        0.704500    0.853230   -0.276070
     25          1           0        0.704170   -0.155310    1.028610
     26          1           0        2.826560    0.734530    0.669590
     27          1           0        2.608070   -2.032250   -0.009200
     28          1           0        4.734660   -0.491350    1.200430
     29          1           0        4.751950   -3.296830    0.555160
     30          1           0        7.017640   -1.739560    1.754110
     31          1           0        6.996940   -2.422840    0.016920
     32          1           0        8.533550   -3.440900    2.529660
     33          1           0        7.946630   -6.113790    1.597370
     34          1           0        7.947190   -5.444870    3.246460
     35          1           0        9.581610   -7.683620    3.202310
     36          1           0       11.924440   -6.559070    2.759350
     37          1           0       11.733410   -9.059960    3.760810
     38          1           0       14.163430   -6.249970    2.649960
     39          1           0       15.774070   -8.337060    3.462670
     40          1           0       12.711720   -1.045430    0.471750
     41          1           0        9.885150   -1.038020    0.495330
     42          1           0       12.988820   -2.953330    1.506510
     43          1           0       11.670970   -5.348110    2.299550
 ---------------------------------------------------------------------
                    Distance matrix (angstroms):
                    1          2          3          4          5
     1  N    0.000000
     2  N    1.421975   0.000000
     3  N    2.364479   1.459384   0.000000
     4  N    3.710076   2.433077   1.542586   0.000000
     5  N    5.389449   4.255445   3.031591   1.904376   0.000000
     6  C    7.215798   5.929734   4.938039   3.511956   2.104941
     7  N    9.393387   8.095632   7.121394   5.696231   4.219208
     8  N    8.542955   7.361620   6.187721   4.937849   3.157583
     9  C    9.358447   8.289481   6.998117   5.927590   4.039338
    10  C   10.693864   9.587176   8.329954   7.192340   5.333541
    11  C   11.831978  10.769091   9.474401   8.397661   6.516828
    12  C   13.048450  11.945229  10.685308   9.545889   7.692156
    13  C   14.273567  13.182974  11.912196  10.787950   8.928564
    14  C   14.588351  13.404449  12.228679  10.974396   9.199182
    15  C   13.624176  12.365794  11.295929   9.938488   8.282860
    16  C   15.633420  14.435154  13.276652  12.002906  10.245664
    17  S   17.342458  16.213757  14.978186  13.797785  11.969976
    18  C   11.650196  10.344101   9.373042   7.946009   6.434655
    19  C   11.158346   9.774501   9.032970   7.511045   6.367943
    20  C    9.959128   8.555264   7.923137   6.382793   5.477909
    21  C   10.725082   9.359809   8.550376   7.048802   5.816489
    22  N   10.450607   9.183157   8.145976   6.773060   5.196341
    23  C   11.097375   9.891094   8.746299   7.459357   5.718390
    24  H    1.026188   2.022444   3.264063   4.452410   6.236114
    25  H    1.022295   2.013699   2.591635   4.006134   5.544415
    26  H    2.018051   1.024443   2.048665   2.623681   4.468107
    27  H    2.522529   2.000850   1.023833   2.152398   3.287281
    28  H    3.868103   2.551112   2.018018   1.008945   2.404095
    29  H    4.944522   3.998302   2.660312   2.049172   1.179716
    30  H    6.417160   5.121363   4.213164   2.793315   1.827818
    31  H    6.396249   5.106239   4.203689   2.785898   1.795612
    32  H    8.568074   7.358104   6.246438   4.959348   3.317608
    33  H    9.305629   8.309146   6.977574   6.022934   4.138991
    34  H    9.309143   8.309869   6.978409   6.025606   4.163647
    35  H   11.864570  10.887313   9.533731   8.583109   6.680253
    36  H   12.949473  11.781129  10.587681   9.355474   7.561117
    37  H   14.449953  13.432913  12.106278  11.084346   9.192345
    38  H   14.725549  13.475208  12.390426  11.045833   9.371062
    39  H   17.226585  16.028375  14.869138  13.595966  11.838572
    40  H   11.700893  10.285753   9.729038   8.186470   7.322046
    41  H    8.890410   7.480821   6.904151   5.361639   4.634535
    42  H   12.361267  10.994794  10.176249   8.677431   7.387107
    43  H   12.069520  10.839888   9.726747   8.407133   6.702841
                    6          7          8          9         10
     6  C    0.000000
     7  N    2.203251   0.000000
     8  N    1.766977   1.752187   0.000000
     9  C    3.101579   2.724712   1.391693   0.000000
    10  C    4.070535   2.904040   2.330008   1.374384   0.000000
    11  C    5.337293   4.055464   3.590799   2.480182   1.268145
    12  C    6.326010   4.726523   4.640693   3.697186   2.358685
    13  C    7.566209   5.901447   5.886312   4.915384   3.596602
    14  C    7.564327   5.631502   6.048602   5.382619   4.010010
    15  C    6.439803   4.350520   5.162606   4.877261   3.627264
    16  C    8.565014   6.571713   7.090801   6.454283   5.082195
    17  S   10.457682   8.574610   8.861879   8.000238   6.649379
    18  C    4.441330   2.265090   3.539147   3.815212   3.058159
    19  C    4.265024   2.492318   4.135194   4.950217   4.606925
    20  C    3.457243   2.414974   3.881507   5.005003   5.040843
    21  C    3.746479   2.088287   3.474513   4.291163   4.010436
    22  N    3.369825   1.818699   2.286931   2.679878   2.311669
    23  C    4.056804   2.342143   2.562662   2.285960   1.299510
    24  H    7.951448  10.111948   9.367094  10.248779  11.566158
    25  H    7.451712   9.652122   8.666120   9.405755  10.753633
    26  H    5.971212   8.125778   7.453905   8.455075   9.714964
    27  H    5.243474   7.351283   6.384589   7.085465   8.430649
    28  H    3.703698   5.864491   5.171587   6.233786   7.448096
    29  H    3.057501   5.017861   3.907100   4.554912   5.890187
    30  H    1.399547   3.372575   2.741442   3.964505   5.007745
    31  H    1.233974   3.086524   2.800665   4.002398   5.043217
    32  H    1.905102   2.052423   1.035409   2.000349   2.735329
    33  H    3.495752   3.253059   2.043990   1.066686   1.930003
    34  H    3.578602   3.552453   2.030318   1.077378   1.940329
    35  H    5.782063   4.782106   4.025583   2.719272   1.897585
    36  H    5.992492   4.189838   4.419550   3.736933   2.368887
    37  H    8.034316   6.561365   6.296644   5.156864   3.967643
    38  H    7.556014   5.485674   6.231315   5.835972   4.520321
    39  H   10.152943   8.138353   8.683805   8.020101   6.645821
    40  H    5.282133   3.868564   5.473593   6.399962   6.101211
    41  H    2.764947   2.501454   3.662177   4.954957   5.284709
    42  H    5.306223   3.339911   4.767880   5.265608   4.572982
    43  H    4.948978   3.012619   3.557980   3.272485   2.103840
                   11         12         13         14         15
    11  C    0.000000
    12  C    1.305191   0.000000
    13  C    2.457631   1.245631   0.000000
    14  C    3.216432   1.962509   1.542539   0.000000
    15  C    3.389005   2.582367   2.933851   1.719846   0.000000
    16  C    4.264598   2.982478   2.257271   1.072810   2.361230
    17  S    5.571106   4.303718   3.119785   2.964818   4.541797
    18  C    3.633094   3.632323   4.547030   3.804995   2.251504
    19  C    5.419940   5.534104   6.445396   5.576452   3.897270
    20  C    6.064112   6.428447   7.460596   6.759652   5.147302
    21  C    4.889059   5.119570   6.107095   5.384652   3.814013
    22  N    3.239752   3.717146   4.840774   4.532807   3.376527
    23  C    2.003989   2.462250   3.639770   3.525208   2.664035
    24  H   12.728036  13.924501  15.157199  15.414238  14.387815
    25  H   11.857250  13.091344  14.303577  14.680150  13.785490
    26  H   10.916704  12.058031  13.298460  13.452236  12.363567
    27  H    9.533494  10.766796  11.977581  12.362617  11.489947
    28  H    8.666467   9.774820  11.015808  11.134837  10.050783
    29  H    6.998112   8.222035   9.434299   9.822080   9.002085
    30  H    6.250484   7.264111   8.499279   8.521497   7.416487
    31  H    6.288283   7.303468   8.537104   8.552831   7.408135
    32  H    3.940850   4.900931   6.124030   6.197879   5.258842
    33  H    2.760434   3.998221   5.148523   5.753973   5.370702
    34  H    2.759048   3.993198   5.144543   5.759763   5.428536
    35  H    0.983079   1.914674   2.766151   3.868688   4.300736
    36  H    1.772398   0.955529   1.799160   1.652418   1.685752
    37  H    2.708620   1.879319   1.087209   2.604918   4.003528
    38  H    4.028860   2.943307   2.804581   1.276446   1.139430
    39  H    5.750921   4.447111   3.485340   2.646936   3.845745
    40  H    6.892392   6.918257   7.741847   6.713208   5.003106
    41  H    6.428998   6.981685   8.094494   7.551175   6.012645
    42  H    5.094855   4.896381   5.620519   4.545399   2.853658
    43  H    2.278304   2.140503   3.118875   2.657527   1.639536
                   16         17         18         19         20
    16  C    0.000000
    17  S    2.208850   0.000000
    18  C    4.593810   6.732629   0.000000
    19  C    6.235863   8.434214   1.941571   0.000000
    20  C    7.500146   9.676762   3.037278   1.422217   0.000000
    21  C    6.137866   8.298144   1.870210   1.039238   1.469715
    22  N    5.474544   7.451642   1.908626   2.723018   3.043919
    23  C    4.548125   6.415651   1.841426   3.453248   4.084675
    24  H   16.448934  18.205726  12.360616  11.743447  10.492581
    25  H   15.733597  17.387812  11.887088  11.471920  10.286672
    26  H   14.468868  16.292573  10.329710   9.640573   8.358905
    27  H   13.415724  15.058537   9.602590   9.383175   8.353468
    28  H   12.148159  13.984579   8.052765   7.476912   6.263195
    29  H   10.877356  12.508991   7.214468   7.269312   6.445414
    30  H    9.520276  11.397721   5.474663   5.088522   4.054645
    31  H    9.545566  11.430873   5.340555   5.009409   4.097552
    32  H    7.216315   9.027275   3.660061   4.029912   3.645097
    33  H    6.811297   8.231157   4.375089   5.569412   5.648016
    34  H    6.823689   8.231866   4.572920   5.665487   5.640042
    35  H    4.854821   5.834702   4.591773   6.346624   6.907621
    36  H    2.720830   4.466915   2.786957   4.679240   5.661893
    37  H    3.161639   3.378808   5.457149   7.371850   8.305091
    38  H    1.406380   3.607926   3.366994   4.880068   6.170359
    39  H    1.594580   1.429891   6.089796   7.612334   8.924521
    40  H    7.227399   9.433117   3.371229   1.528840   1.846595
    41  H    8.362533  10.503446   3.824683   2.465316   1.098935
    42  H    5.079263   7.284093   1.704540   1.436153   2.729445
    43  H    3.625011   5.611199   1.556468   3.403500   4.342545
                   21         22         23         24         25
    21  C    0.000000
    22  N    1.868653   0.000000
    23  C    2.887817   1.376722   0.000000
    24  H   11.348940  11.199117  11.905181   0.000000
    25  H   10.956437  10.559990  11.210304   1.649043   0.000000
    26  H    9.192224   9.101897   9.928559   2.326263   2.329217
    27  H    8.949891   8.476893   8.938240   3.467102   2.867889
    28  H    6.959775   6.776006   7.613291   4.497792   4.048122
    29  H    6.787692   6.100361   6.434314   5.856261   5.145661
    30  H    4.446978   4.116981   5.014435   7.120388   6.549512
    31  H    4.678555   4.518779   5.100975   7.100231   6.764922
    32  H    3.187695   2.005332   2.734852   9.359792   8.622496
    33  H    5.049017   3.581424   2.974436  10.222406   9.395754
    34  H    4.877470   3.139500   2.898420  10.224032   9.239028
    35  H    5.787157   4.066239   2.914843  12.797657  11.841004
    36  H    4.318947   3.123964   1.955198  13.785609  13.034495
    37  H    6.980682   5.557085   4.322954  15.368949  14.436130
    38  H    4.825745   4.410100   3.686508  15.497093  14.863557
    39  H    7.578652   7.024485   6.139405  18.042493  17.319572
    40  H    2.206704   4.064825   4.922418  12.179387  12.053367
    41  H    2.334108   3.464861   4.542955   9.405117   9.238721
    42  H    1.666505   2.802396   3.281973  12.983528  12.608328
    43  H    3.010708   1.959210   1.025847  12.859001  12.200457
                   26         27         28         29         30
    26  H    0.000000
    27  H    2.857195   0.000000
    28  H    2.329253   2.891360   0.000000
    29  H    4.469014   2.552232   2.878783   0.000000
    30  H    4.986227   4.758071   2.660186   2.999320   0.000000
    31  H    5.271341   4.406294   3.201447   2.468510   1.866850
    32  H    7.311895   6.598592   4.989816   4.268478   2.407077
    33  H    8.600894   6.909433   6.487383   4.384911   4.474537
    34  H    8.428885   7.124009   6.248516   4.697524   4.101280
    35  H   11.086506   9.533207   8.901078   7.041090   6.633481
    36  H   11.846312  10.721554   9.536267   8.182009   6.950890
    37  H   13.594839  12.119138  11.356017   9.603679   8.936083
    38  H   13.462159  12.585175  11.142915  10.083907   8.497568
    39  H   16.054067  15.004935  13.731040  12.463734  11.096002
    40  H   10.046083  10.163113   8.029413   8.272466   5.877824
    41  H    7.279835   7.361993   5.227194   5.608524   3.209252
    42  H   10.843075  10.531179   8.618944   8.298740   6.098322
    43  H   10.857203   9.922772   8.538652   7.424519   5.913765
                   31         32         33         34         35
    31  H    0.000000
    32  H    3.116325   0.000000
    33  H    4.125875   2.891017   0.000000
    34  H    4.523889   2.207604   1.779593   0.000000
    35  H    6.671059   4.421715   2.777293   2.772234   0.000000
    36  H    6.993538   4.612361   4.167906   4.158995   2.636224
    37  H    8.972303   6.582452   5.263088   5.260123   2.614666
    38  H    8.540398   6.292924   6.306750   6.296478   4.832548
    39  H   11.130553   8.790223   8.348119   8.346949   6.232281
    40  H    5.896002   5.237402   7.047083   7.053711   7.830652
    41  H    3.238574   3.426245   5.543987   5.544793   7.182192
    42  H    6.197009   4.597172   5.951508   5.886699   6.071282
    43  H    5.967760   3.678832   3.866527   3.843506   3.261136
                   36         37         38         39         40
    36  H    0.000000
    37  H    2.700716   0.000000
    38  H    2.262871   3.877503   0.000000
    39  H    4.298320   4.115629   2.758732   0.000000
    40  H    6.021059   8.718239   5.825744   8.455262   0.000000
    41  H    6.306067   8.856125   7.078879   9.836690   2.826678
    42  H    3.962811   6.629393   3.681715   6.369359   2.188057
    43  H    1.319882   3.989613   2.673667   5.207888   4.789266
                   41         42         43
    41  H    0.000000
    42  H    3.784662   0.000000
    43  H    5.002123   2.846157   0.000000
 Stoichiometry    C14H20N8S
 Framework group  C1[X(C14H20N8S)]
 Deg. of freedom   123
 Full point group                 C1      NOp   1
 Largest Abelian subgroup         C1      NOp   1
 Largest concise Abelian subgroup C1      NOp   1
                         Standard orientation:                         
 ---------------------------------------------------------------------
 Center     Atomic      Atomic             Coordinates (Angstroms)
 Number     Number       Type             X           Y           Z
 ---------------------------------------------------------------------
      1          7           0       -9.594001   -1.126297   -0.041531
      2          7           0       -8.442442   -0.292325   -0.021139
      3          7           0       -7.229711   -1.104165   -0.021507
      4          7           0       -6.013207   -0.155645   -0.021341
      5          7           0       -4.215593   -0.782554   -0.068412
      6          6           0       -2.571582    0.528246   -0.167444
      7          7           0       -0.493380    1.140071   -0.568769
      8          7           0       -1.081755   -0.404614    0.012541
      9          6           0       -0.243694   -1.515410   -0.011874
     10          6           0        1.099380   -1.223724   -0.012855
     11          6           0        2.217428   -1.822037    0.000637
     12          6           0        3.451516   -1.397327    0.013833
     13          6           0        4.669541   -1.658112    0.015610
     14          6           0        4.961175   -0.143584   -0.008527
     15          6           0        3.838153    1.149809   -0.162878
     16          6           0        5.985124    0.175478   -0.034017
     17         16           0        7.748360   -1.154247    0.008953
     18          6           0        1.689490    1.739262   -0.487012
     19          6           0        0.624008    3.350267   -0.289246
     20          6           0       -0.755701    3.463097    0.036904
     21          6           0        0.412970    2.695450    0.489660
     22          7           0        0.625824    0.872225    0.839530
     23          6           0        1.442528    0.021605    0.129035
     24          1           0      -10.447509   -0.556649   -0.032167
     25          1           0       -9.612666   -1.713263    0.795254
     26          1           0       -8.458631    0.309929    0.807421
     27          1           0       -7.275495   -1.680504   -0.866476
     28          1           0       -6.130007    0.349744    0.844055
     29          1           0       -4.727625   -1.541480   -0.812444
     30          1           0       -3.480823    0.586011    0.894948
     31          1           0       -3.504916    0.597014   -0.971714
     32          1           0       -1.156882   -0.035736    0.977091
     33          1           0       -0.378533   -2.094285   -0.897618
     34          1           0       -0.382175   -2.100753    0.881960
     35          1           0        2.151427   -2.802895    0.002676
     36          1           0        3.337552   -0.448705    0.026621
     37          1           0        4.765354   -2.741071    0.009126
     38          1           0        4.957141    1.131457    0.051201
     39          1           0        7.576175    0.265174    0.022525
     40          1           0        0.468594    4.844790   -0.007116
     41          1           0       -1.817842    3.182819    0.005911
     42          1           0        1.959252    3.261009    0.231995
     43          1           0        2.371693    0.450341    0.056932
 ---------------------------------------------------------------------
 Rotational constants (GHZ):           0.6377914           0.0645522           0.0590289
 Standard basis: 6-31G(2df,p) (6D, 7F)
 There are   817 symmetry adapted cartesian basis functions of A   symmetry.
 There are   748 symmetry adapted basis functions of A   symmetry.
   748 basis functions,  1176 primitive gaussians,   817 cartesian basis functions
    88 alpha electrons       88 beta electrons
       nuclear repulsion energy      1873.3309059387 Hartrees.
 NAtoms=   43 NActive=   43 NUniq=   43 SFac= 1.00D+00 NAtFMM=   60 NAOKFM=F Big=F
 Integral buffers will be    131072 words long.
 Raffenetti 2 integral format.
 Two-electron integral symmetry is turned on.
 One-electron integrals computed using PRISM.
 PrsmSu:  requested number of processors reduced to:  12 ShMem   1 Linda.
 NBasis=   748 RedAO= T EigKep=  6.96D-05  NBF=   748
 NBsUse=   748 1.00D-06 EigRej= -1.00D+00 NBFU=   748
 ExpMin= 1.17D-01 ExpMax= 2.19D+04 ExpMxC= 3.30D+03 IAcc=3 IRadAn=         5 AccDes= 0.00D+00
 Harris functional with IExCor=  402 and IRadAn=       5 diagonalized for initial guess.
 HarFok:  IExCor=  402 AccDes= 0.00D+00 IRadAn=         5 IDoV= 1 UseB2=F ITyADJ=14
 ICtDFT=  3500011 ScaDFX=  1.000000  1.000000  1.000000  1.000000
 FoFCou: FMM=F IPFlag=           0 FMFlag=      100000 FMFlg1=           0
         NFxFlg=           0 DoJE=T BraDBF=F KetDBF=T FulRan=T
         wScrn=  0.000000 ICntrl=       500 IOpCl=  0 I1Cent=   200000004 NGrid=           0
         NMat0=    1 NMatS0=      1 NMatT0=    0 NMatD0=    1 NMtDS0=    0 NMtDT0=    0
 Petite list used in FoFCou.
 Requested convergence on RMS density matrix=1.00D-08 within 128 cycles.
 Requested convergence on MAX density matrix=1.00D-06.
 Requested convergence on             energy=1.00D-06.
 No special actions if energy rises.
 Integral accuracy reduced to 1.0D-05 until final iterations.
 Rare condition: small coef for last iteration:  0.000D+00
 EnCoef did   100 forward-backward iterations
 Problem detected with inexpensive integrals.
 Switching to full accuracy and repeating last cycle.
 EnCoef did     4 forward-backward iterations
 EnCoef did   100 forward-backward iterations
 EnCoef did   100 forward-backward iterations
 EnCoef did     4 forward-backward iterations
 EnCoef did     4 forward-backward iterations
 EnCoef did     8 forward-backward iterations
 EnCoef did     3 forward-backward iterations
 EnCoef did   100 forward-backward iterations
 EnCoef did    10 forward-backward iterations
 EnCoef did     7 forward-backward iterations
 EnCoef did    12 forward-backward iterations
 EnCoef did     4 forward-backward iterations
 EnCoef did   100 forward-backward iterations
 EnCoef did     2 forward-backward iterations
 EnCoef did     4 forward-backward iterations
 EnCoef did     3 forward-backward iterations
 EnCoef did     4 forward-backward iterations
 Restarting incremental Fock formation.
 EnCoef did     2 forward-backward iterations
 Restarting incremental Fock formation.
 SCF Done:  E(RB3LYP) =  -1379.14090050     A.U. after   46 cycles
            NFock= 46  Conv=0.53D-08     -V/T= 2.0023

 **********************************************************************

            Population analysis using the SCF density.

 **********************************************************************

 Orbital symmetries:
       Occupied  (A) (A) (A) (A) (A) (A) (A) (A) (A) (A) (A) (A)
                 (A) (A) (A) (A) (A) (A) (A) (A) (A) (A) (A) (A)
                 (A) (A) (A) (A) (A) (A) (A) (A) (A) (A) (A) (A)
                 (A) (A) (A) (A) (A) (A) (A) (A) (A) (A) (A) (A)
                 (A) (A) (A) (A) (A) (A) (A) (A) (A) (A) (A) (A)
                 (A) (A) (A) (A) (A) (A) (A) (A) (A) (A) (A) (A)
                 (A) (A) (A) (A) (A) (A) (A) (A) (A) (A) (A) (A)
                 (A) (A) (A) (A)
       Virtual   (A) (A) (A) (A) (A) (A) (A) (A) (A) (A) (A) (A)
                 (A) (A) (A) (A) (A) (A) (A) (A) (A) (A) (A) (A)
                 (A) (A) (A) (A) (A) (A) (A) (A) (A) (A) (A) (A)
                 (A) (A) (A) (A) (A) (A) (A) (A) (A) (A) (A) (A)
                 (A) (A) (A) (A) (A) (A) (A) (A) (A) (A) (A) (A)
                 (A) (A) (A) (A) (A) (A) (A) (A) (A) (A) (A) (A)
                 (A) (A) (A) (A) (A) (A) (A) (A) (A) (A) (A) (A)
                 (A) (A) (A) (A) (A) (A) (A) (A) (A) (A) (A) (A)
                 (A) (A) (A) (A) (A) (A) (A) (A) (A) (A) (A) (A)
                 (A) (A) (A) (A) (A) (A) (A) (A) (A) (A) (A) (A)
                 (A) (A) (A) (A) (A) (A) (A) (A) (A) (A) (A) (A)
                 (A) (A) (A) (A) (A) (A) (A) (A) (A) (A) (A) (A)
                 (A) (A) (A) (A) (A) (A) (A) (A) (A) (A) (A) (A)
                 (A) (A) (A) (A) (A) (A) (A) (A) (A) (A) (A) (A)
                 (A) (A) (A) (A) (A) (A) (A) (A) (A) (A) (A) (A)
                 (A) (A) (A) (A) (A) (A) (A) (A) (A) (A) (A) (A)
                 (A) (A) (A) (A) (A) (A) (A) (A) (A) (A) (A) (A)
                 (A) (A) (A) (A) (A) (A) (A) (A) (A) (A) (A) (A)
                 (A) (A) (A) (A) (A) (A) (A) (A) (A) (A) (A) (A)
                 (A) (A) (A) (A) (A) (A) (A) (A) (A) (A) (A) (A)
                 (A) (A) (A) (A) (A) (A) (A) (A) (A) (A) (A) (A)
                 (A) (A) (A) (A) (A) (A) (A) (A) (A) (A) (A) (A)
                 (A) (A) (A) (A) (A) (A) (A) (A) (A) (A) (A) (A)
                 (A) (A) (A) (A) (A) (A) (A) (A) (A) (A) (A) (A)
                 (A) (A) (A) (A) (A) (A) (A) (A) (A) (A) (A) (A)
                 (A) (A) (A) (A) (A) (A) (A) (A) (A) (A) (A) (A)
                 (A) (A) (A) (A) (A) (A) (A) (A) (A) (A) (A) (A)
                 (A) (A) (A) (A) (A) (A) (A) (A) (A) (A) (A) (A)
                 (A) (A) (A) (A) (A) (A) (A) (A) (A) (A) (A) (A)
                 (A) (A) (A) (A) (A) (A) (A) (A) (A) (A) (A) (A)
                 (A) (A) (A) (A) (A) (A) (A) (A) (A) (A) (A) (A)
                 (A) (A) (A) (A) (A) (A) (A) (A) (A) (A) (A) (A)
                 (A) (A) (A) (A) (A) (A) (A) (A) (A) (A) (A) (A)
                 (A) (A) (A) (A) (A) (A) (A) (A) (A) (A) (A) (A)
                 (A) (A) (A) (A) (A) (A) (A) (A) (A) (A) (A) (A)
                 (A) (A) (A) (A) (A) (A) (A) (A) (A) (A) (A) (A)
                 (A) (A) (A) (A) (A) (A) (A) (A) (A) (A) (A) (A)
                 (A) (A) (A) (A) (A) (A) (A) (A) (A) (A) (A) (A)
                 (A) (A) (A) (A) (A) (A) (A) (A) (A) (A) (A) (A)
                 (A) (A) (A) (A) (A) (A) (A) (A) (A) (A) (A) (A)
                 (A) (A) (A) (A) (A) (A) (A) (A) (A) (A) (A) (A)
                 (A) (A) (A) (A) (A) (A) (A) (A) (A) (A) (A) (A)
                 (A) (A) (A) (A) (A) (A) (A) (A) (A) (A) (A) (A)
                 (A) (A) (A) (A) (A) (A) (A) (A) (A) (A) (A) (A)
                 (A) (A) (A) (A) (A) (A) (A) (A) (A) (A) (A) (A)
                 (A) (A) (A) (A) (A) (A) (A) (A) (A) (A) (A) (A)
                 (A) (A) (A) (A) (A) (A) (A) (A) (A) (A) (A) (A)
                 (A) (A) (A) (A) (A) (A) (A) (A) (A) (A) (A) (A)
                 (A) (A) (A) (A) (A) (A) (A) (A) (A) (A) (A) (A)
                 (A) (A) (A) (A) (A) (A) (A) (A) (A) (A) (A) (A)
                 (A) (A) (A) (A) (A) (A) (A) (A) (A) (A) (A) (A)
                 (A) (A) (A) (A) (A) (A) (A) (A) (A) (A) (A) (A)
                 (A) (A) (A) (A) (A) (A) (A) (A) (A) (A) (A) (A)
                 (A) (A) (A) (A) (A) (A) (A) (A) (A) (A) (A) (A)
                 (A) (A) (A) (A) (A) (A) (A) (A) (A) (A) (A) (A)
 The electronic state is 1-A.
 Alpha  occ. eigenvalues --  -88.81694 -14.46520 -14.45028 -14.43712 -14.37810
 Alpha  occ. eigenvalues --  -14.37649 -14.37522 -14.37439 -14.35177 -10.34040
 Alpha  occ. eigenvalues --  -10.31146 -10.28418 -10.28368 -10.27617 -10.25821
 Alpha  occ. eigenvalues --  -10.24948 -10.21786 -10.21577 -10.19739 -10.19098
 Alpha  occ. eigenvalues --  -10.17928 -10.15595 -10.12848  -7.88300  -5.84791
 Alpha  occ. eigenvalues --   -5.84267  -5.83892  -1.05563  -1.02932  -1.00266
 Alpha  occ. eigenvalues --   -0.96810  -0.92362  -0.90057  -0.89220  -0.83353
 Alpha  occ. eigenvalues --   -0.80094  -0.78645  -0.75737  -0.74216  -0.73787
 Alpha  occ. eigenvalues --   -0.70202  -0.69291  -0.68878  -0.66285  -0.65629
 Alpha  occ. eigenvalues --   -0.62252  -0.60563  -0.59319  -0.58013  -0.56556
 Alpha  occ. eigenvalues --   -0.55251  -0.52871  -0.52666  -0.52211  -0.51221
 Alpha  occ. eigenvalues --   -0.50688  -0.49594  -0.46648  -0.45980  -0.45119
 Alpha  occ. eigenvalues --   -0.43757  -0.42891  -0.41430  -0.40642  -0.40083
 Alpha  occ. eigenvalues --   -0.39558  -0.38648  -0.38460  -0.38002  -0.35694
 Alpha  occ. eigenvalues --   -0.35205  -0.34665  -0.33950  -0.32736  -0.31312
 Alpha  occ. eigenvalues --   -0.29038  -0.28667  -0.27491  -0.26751  -0.25241
 Alpha  occ. eigenvalues --   -0.24561  -0.23006  -0.21771  -0.21609  -0.20615
 Alpha  occ. eigenvalues --   -0.19565  -0.17197  -0.16587
 Alpha virt. eigenvalues --   -0.13455  -0.12199  -0.11398  -0.10370  -0.09988
 Alpha virt. eigenvalues --   -0.09462  -0.06996  -0.05590  -0.03717  -0.03241
 Alpha virt. eigenvalues --   -0.02337  -0.01817   0.01460   0.02914   0.04301
 Alpha virt. eigenvalues --    0.05094   0.05992   0.06092   0.07176   0.08592
 Alpha virt. eigenvalues --    0.09218   0.09869   0.10126   0.10369   0.10716
 Alpha virt. eigenvalues --    0.11670   0.12678   0.13121   0.13793   0.14302
 Alpha virt. eigenvalues --    0.14679   0.15949   0.16304   0.16826   0.17665
 Alpha virt. eigenvalues --    0.19863   0.20344   0.22066   0.23348   0.23763
 Alpha virt. eigenvalues --    0.25173   0.26338   0.27302   0.28700   0.29951
 Alpha virt. eigenvalues --    0.31613   0.34696   0.35358   0.36060   0.36519
 Alpha virt. eigenvalues --    0.37494   0.39731   0.40323   0.40603   0.41011
 Alpha virt. eigenvalues --    0.41719   0.41915   0.42525   0.43417   0.44093
 Alpha virt. eigenvalues --    0.44832   0.45096   0.45862   0.46325   0.47565
 Alpha virt. eigenvalues --    0.47930   0.48766   0.49138   0.50001   0.50067
 Alpha virt. eigenvalues --    0.51168   0.51846   0.52510   0.52950   0.53604
 Alpha virt. eigenvalues --    0.53828   0.54084   0.54950   0.55460   0.55851
 Alpha virt. eigenvalues --    0.56604   0.57295   0.57592   0.58299   0.58836
 Alpha virt. eigenvalues --    0.59123   0.59371   0.60039   0.60425   0.61130
 Alpha virt. eigenvalues --    0.61940   0.62183   0.62670   0.63019   0.63516
 Alpha virt. eigenvalues --    0.63687   0.64573   0.65473   0.65954   0.66262
 Alpha virt. eigenvalues --    0.66587   0.67034   0.67363   0.68023   0.68402
 Alpha virt. eigenvalues --    0.69609   0.69873   0.70101   0.70226   0.70775
 Alpha virt. eigenvalues --    0.71047   0.71956   0.72497   0.73603   0.74105
 Alpha virt. eigenvalues --    0.74238   0.74626   0.74967   0.75677   0.76708
 Alpha virt. eigenvalues --    0.77439   0.77916   0.77967   0.79014   0.79646
 Alpha virt. eigenvalues --    0.80449   0.80810   0.81390   0.81668   0.81818
 Alpha virt. eigenvalues --    0.82552   0.83258   0.84143   0.84564   0.84655
 Alpha virt. eigenvalues --    0.85565   0.85741   0.86510   0.86837   0.87572
 Alpha virt. eigenvalues --    0.88609   0.88920   0.89396   0.89810   0.90431
 Alpha virt. eigenvalues --    0.90902   0.91672   0.93125   0.93718   0.94421
 Alpha virt. eigenvalues --    0.94713   0.95164   0.96349   0.97311   0.97417
 Alpha virt. eigenvalues --    0.98211   0.98606   0.98943   1.00047   1.00520
 Alpha virt. eigenvalues --    1.02667   1.03504   1.04466   1.04751   1.05227
 Alpha virt. eigenvalues --    1.07002   1.07848   1.08693   1.09249   1.09984
 Alpha virt. eigenvalues --    1.10612   1.11357   1.11838   1.12366   1.13832
 Alpha virt. eigenvalues --    1.14649   1.15091   1.15706   1.17056   1.18305
 Alpha virt. eigenvalues --    1.19706   1.20531   1.21156   1.21745   1.22943
 Alpha virt. eigenvalues --    1.23644   1.24556   1.25025   1.25918   1.26876
 Alpha virt. eigenvalues --    1.28698   1.29751   1.30296   1.31482   1.31979
 Alpha virt. eigenvalues --    1.33432   1.35007   1.35333   1.36303   1.36823
 Alpha virt. eigenvalues --    1.37592   1.38703   1.39586   1.40197   1.40666
 Alpha virt. eigenvalues --    1.41449   1.41997   1.42353   1.43122   1.44446
 Alpha virt. eigenvalues --    1.44536   1.46051   1.47313   1.48564   1.49029
 Alpha virt. eigenvalues --    1.49803   1.50372   1.51421   1.52212   1.52979
 Alpha virt. eigenvalues --    1.54284   1.54902   1.55319   1.56711   1.57228
 Alpha virt. eigenvalues --    1.59493   1.60614   1.61201   1.61495   1.62262
 Alpha virt. eigenvalues --    1.63049   1.63784   1.64910   1.65672   1.66443
 Alpha virt. eigenvalues --    1.67334   1.68195   1.69632   1.70302   1.71274
 Alpha virt. eigenvalues --    1.71803   1.72059   1.73023   1.73464   1.74159
 Alpha virt. eigenvalues --    1.74425   1.75806   1.76157   1.77183   1.79672
 Alpha virt. eigenvalues --    1.80237   1.80320   1.81155   1.81499   1.82599
 Alpha virt. eigenvalues --    1.83189   1.84198   1.85535   1.86689   1.88564
 Alpha virt. eigenvalues --    1.89611   1.90364   1.92086   1.93061   1.94790
 Alpha virt. eigenvalues --    1.95474   1.96670   1.96961   1.98043   2.01169
 Alpha virt. eigenvalues --    2.01766   2.02961   2.05198   2.05574   2.06528
 Alpha virt. eigenvalues --    2.09419   2.10573   2.11590   2.12168   2.12812
 Alpha virt. eigenvalues --    2.15169   2.15879   2.16867   2.19113   2.19226
 Alpha virt. eigenvalues --    2.20276   2.20560   2.21609   2.24738   2.24980
 Alpha virt. eigenvalues --    2.25681   2.26494   2.27377   2.27952   2.28652
 Alpha virt. eigenvalues --    2.30624   2.31435   2.32252   2.34556   2.35080
 Alpha virt. eigenvalues --    2.35714   2.36683   2.38014   2.38819   2.40511
 Alpha virt. eigenvalues --    2.42930   2.43892   2.44489   2.44895   2.46149
 Alpha virt. eigenvalues --    2.46587   2.46794   2.47872   2.49367   2.51196
 Alpha virt. eigenvalues --    2.52839   2.54144   2.54543   2.55004   2.57215
 Alpha virt. eigenvalues --    2.57894   2.58418   2.59155   2.60314   2.60832
 Alpha virt. eigenvalues --    2.61771   2.62546   2.64177   2.65293   2.66991
 Alpha virt. eigenvalues --    2.68525   2.68944   2.70613   2.73079   2.73239
 Alpha virt. eigenvalues --    2.73584   2.74071   2.75951   2.76456   2.77230
 Alpha virt. eigenvalues --    2.79129   2.79679   2.81041   2.81540   2.81612
 Alpha virt. eigenvalues --    2.82959   2.83776   2.84018   2.85234   2.86863
 Alpha virt. eigenvalues --    2.87052   2.88393   2.89417   2.90608   2.91446
 Alpha virt. eigenvalues --    2.92331   2.93551   2.93875   2.94446   2.95018
 Alpha virt. eigenvalues --    2.97676   2.98324   2.98482   2.99800   3.01368
 Alpha virt. eigenvalues --    3.01565   3.02107   3.02567   3.03923   3.04209
 Alpha virt. eigenvalues --    3.05013   3.06012   3.07111   3.08414   3.08649
 Alpha virt. eigenvalues --    3.10346   3.10700   3.11893   3.12855   3.13253
 Alpha virt. eigenvalues --    3.14579   3.15295   3.16631   3.17785   3.18183
 Alpha virt. eigenvalues --    3.18993   3.19973   3.21407   3.22360   3.24131
 Alpha virt. eigenvalues --    3.25113   3.25636   3.25833   3.27033   3.27300
 Alpha virt. eigenvalues --    3.29629   3.31673   3.32207   3.33231   3.34059
 Alpha virt. eigenvalues --    3.34974   3.36031   3.36618   3.37665   3.39339
 Alpha virt. eigenvalues --    3.40099   3.41134   3.41329   3.43013   3.44019
 Alpha virt. eigenvalues --    3.45382   3.47043   3.47292   3.48543   3.49621
 Alpha virt. eigenvalues --    3.50171   3.51017   3.51343   3.51655   3.52794
 Alpha virt. eigenvalues --    3.53940   3.54925   3.55282   3.56539   3.57614
 Alpha virt. eigenvalues --    3.59995   3.60685   3.61625   3.62205   3.62799
 Alpha virt. eigenvalues --    3.63501   3.64447   3.65003   3.66378   3.66740
 Alpha virt. eigenvalues --    3.67394   3.68521   3.69758   3.70388   3.71762
 Alpha virt. eigenvalues --    3.73524   3.74860   3.75827   3.76991   3.77729
 Alpha virt. eigenvalues --    3.78390   3.78647   3.80136   3.80791   3.81580
 Alpha virt. eigenvalues --    3.82714   3.83499   3.84724   3.86131   3.87263
 Alpha virt. eigenvalues --    3.87289   3.89057   3.89586   3.90987   3.91067
 Alpha virt. eigenvalues --    3.93599   3.94648   3.96171   3.97426   3.98413
 Alpha virt. eigenvalues --    3.98666   4.00386   4.01220   4.01312   4.03063
 Alpha virt. eigenvalues --    4.04178   4.04960   4.05548   4.06965   4.07302
 Alpha virt. eigenvalues --    4.07700   4.08269   4.10581   4.10758   4.10919
 Alpha virt. eigenvalues --    4.13575   4.14565   4.15694   4.16182   4.17162
 Alpha virt. eigenvalues --    4.17881   4.18788   4.19487   4.20322   4.21134
 Alpha virt. eigenvalues --    4.21590   4.22797   4.23015   4.23888   4.24575
 Alpha virt. eigenvalues --    4.26964   4.27854   4.29039   4.29990   4.31010
 Alpha virt. eigenvalues --    4.31661   4.32571   4.33157   4.33443   4.35078
 Alpha virt. eigenvalues --    4.35535   4.36210   4.37360   4.37570   4.40009
 Alpha virt. eigenvalues --    4.40641   4.41828   4.42726   4.43153   4.43728
 Alpha virt. eigenvalues --    4.44254   4.44708   4.45031   4.46158   4.47491
 Alpha virt. eigenvalues --    4.47834   4.48249   4.48879   4.49965   4.50518
 Alpha virt. eigenvalues --    4.51338   4.51719   4.52477   4.52697   4.54183
 Alpha virt. eigenvalues --    4.54722   4.55327   4.55841   4.56711   4.57883
 Alpha virt. eigenvalues --    4.58167   4.58930   4.59292   4.59699   4.60149
 Alpha virt. eigenvalues --    4.61018   4.62448   4.62916   4.63404   4.64321
 Alpha virt. eigenvalues --    4.65369   4.66419   4.67046   4.68118   4.69760
 Alpha virt. eigenvalues --    4.71959   4.72894   4.73943   4.74506   4.75649
 Alpha virt. eigenvalues --    4.77427   4.78471   4.78659   4.79968   4.80870
 Alpha virt. eigenvalues --    4.81841   4.82737   4.84222   4.84453   4.85282
 Alpha virt. eigenvalues --    4.86511   4.88281   4.89405   4.89990   4.91393
 Alpha virt. eigenvalues --    4.93037   4.93900   4.94144   4.96104   4.97016
 Alpha virt. eigenvalues --    4.98387   5.00111   5.01819   5.02155   5.03575
 Alpha virt. eigenvalues --    5.04593   5.06564   5.09722   5.09802   5.11782
 Alpha virt. eigenvalues --    5.14280   5.15750   5.17311   5.17431   5.18282
 Alpha virt. eigenvalues --    5.18998   5.21577   5.21945   5.25237   5.25541
 Alpha virt. eigenvalues --    5.26543   5.28775   5.29881   5.33456   5.34530
 Alpha virt. eigenvalues --    5.35096   5.35836   5.39481   5.40552   5.41060
 Alpha virt. eigenvalues --    5.42835   5.46660   5.48133   5.48963   5.50617
 Alpha virt. eigenvalues --    5.54126   5.57274   5.61499   5.64850   5.65042
 Alpha virt. eigenvalues --    5.67397   5.73437   5.79628   5.83699   5.90816
 Alpha virt. eigenvalues --    5.93316   6.00174   6.02367   6.09569   6.16697
 Alpha virt. eigenvalues --    6.26001   6.43644   6.51931   6.53137   6.60360
 Alpha virt. eigenvalues --    7.08972   7.89885   7.91579   9.89422  10.10389
 Alpha virt. eigenvalues --   10.24916  10.40004  10.61164  10.81842  10.84422
 Alpha virt. eigenvalues --   11.02785  11.12683  11.13360  11.24051  11.29652
 Alpha virt. eigenvalues --   11.30671  11.35036  11.36551  11.45463  11.51925
 Alpha virt. eigenvalues --   11.64592  11.79426  11.95836  12.02618  12.06232
 Alpha virt. eigenvalues --   12.63988  13.29053  13.96715  19.36920  20.36579
          Condensed to atoms (all electrons):
               1          2          3          4          5          6
     1  N    6.574827   0.305185  -0.041433   0.002455  -0.000011  -0.000000
     2  N    0.305185   6.553058   0.209787  -0.031186   0.000436  -0.000000
     3  N   -0.041433   0.209787   6.642460   0.219679  -0.004414   0.000022
     4  N    0.002455  -0.031186   0.219679   6.742179   0.145731  -0.002719
     5  N   -0.000011   0.000436  -0.004414   0.145731   7.177625  -0.066665
     6  C   -0.000000  -0.000000   0.000022  -0.002719  -0.066665   5.517601
     7  N    0.000000  -0.000000   0.000000  -0.000001   0.000980   0.035599
     8  N   -0.000000  -0.000000  -0.000000   0.000056  -0.002549   0.153968
     9  C    0.000000   0.000000   0.000000  -0.000002   0.000981  -0.004466
    10  C    0.000000  -0.000000   0.000000  -0.000000   0.000106   0.003606
    11  C   -0.000000  -0.000000  -0.000000  -0.000000  -0.000000   0.000015
    12  C    0.000000  -0.000000  -0.000000   0.000000  -0.000000  -0.000002
    13  C    0.000000   0.000000   0.000000  -0.000000  -0.000000  -0.000000
    14  C    0.000000   0.000000  -0.000000   0.000000  -0.000000  -0.000000
    15  C    0.000000   0.000000  -0.000000   0.000000  -0.000000  -0.000000
    16  C    0.000000   0.000000   0.000000  -0.000000   0.000000   0.000000
    17  S    0.000000   0.000000   0.000000   0.000000   0.000000   0.000000
    18  C    0.000000  -0.000000   0.000000  -0.000000   0.000000   0.000596
    19  C   -0.000000   0.000000  -0.000000   0.000000  -0.000000  -0.000336
    20  C   -0.000000  -0.000000   0.000000  -0.000000   0.000020  -0.004717
    21  C   -0.000000   0.000000   0.000000  -0.000000  -0.000001  -0.000446
    22  N   -0.000000   0.000000  -0.000000   0.000000  -0.000002   0.005590
    23  C   -0.000000   0.000000  -0.000000   0.000000  -0.000002   0.000304
    24  H    0.340276  -0.032676   0.003584  -0.000130   0.000000  -0.000000
    25  H    0.319676  -0.070351   0.016333  -0.000214  -0.000001  -0.000000
    26  H   -0.056812   0.340081  -0.052036   0.001590  -0.000050   0.000000
    27  H    0.007598  -0.039114   0.311737  -0.028785  -0.000081   0.000003
    28  H   -0.000456  -0.004276  -0.039869   0.286788  -0.012310   0.000133
    29  H   -0.000002  -0.000066  -0.003607  -0.022993   0.224681   0.000711
    30  H   -0.000000  -0.000004   0.000007  -0.000755  -0.013149   0.285037
    31  H   -0.000000  -0.000003  -0.000013   0.002209   0.044522   0.266626
    32  H    0.000000   0.000000   0.000000  -0.000006   0.000008  -0.017470
    33  H    0.000000   0.000000   0.000000  -0.000000   0.000083  -0.001651
    34  H   -0.000000  -0.000000   0.000000  -0.000000  -0.000065   0.000314
    35  H    0.000000  -0.000000   0.000000  -0.000000   0.000000   0.000002
    36  H    0.000000  -0.000000   0.000000  -0.000000   0.000000   0.000003
    37  H    0.000000   0.000000  -0.000000  -0.000000  -0.000000   0.000000
    38  H    0.000000   0.000000  -0.000000  -0.000000   0.000000   0.000000
    39  H    0.000000   0.000000   0.000000   0.000000  -0.000000  -0.000000
    40  H   -0.000000  -0.000000   0.000000  -0.000000   0.000000   0.000017
    41  H    0.000000  -0.000000   0.000000  -0.000001  -0.000014   0.012407
    42  H   -0.000000   0.000000  -0.000000   0.000000  -0.000000  -0.000030
    43  H   -0.000000   0.000000  -0.000000   0.000000  -0.000000  -0.000110
               7          8          9         10         11         12
     1  N    0.000000  -0.000000   0.000000   0.000000  -0.000000   0.000000
     2  N   -0.000000  -0.000000   0.000000  -0.000000  -0.000000  -0.000000
     3  N    0.000000  -0.000000   0.000000   0.000000  -0.000000  -0.000000
     4  N   -0.000001   0.000056  -0.000002  -0.000000  -0.000000   0.000000
     5  N    0.000980  -0.002549   0.000981   0.000106  -0.000000  -0.000000
     6  C    0.035599   0.153968  -0.004466   0.003606   0.000015  -0.000002
     7  N    7.123160   0.112310  -0.027014  -0.001642  -0.000719   0.000078
     8  N    0.112310   6.419836   0.338983  -0.039683   0.002704   0.000104
     9  C   -0.027014   0.338983   5.274328   0.244767  -0.133600   0.013473
    10  C   -0.001642  -0.039683   0.244767   5.322428   0.104599   0.118236
    11  C   -0.000719   0.002704  -0.133600   0.104599   5.984115   0.010569
    12  C    0.000078   0.000104   0.013473   0.118236   0.010569   5.005007
    13  C   -0.000001   0.000001   0.000081   0.043690  -0.260240   0.408749
    14  C    0.000004  -0.000002   0.000061   0.009069   0.002764   0.205587
    15  C    0.000058   0.000020  -0.000376   0.011138   0.014991  -0.079745
    16  C    0.000000  -0.000000   0.000002   0.001159  -0.024811  -0.262107
    17  S   -0.000000  -0.000000  -0.000000   0.000010   0.000282   0.003357
    18  C   -0.034978   0.001522   0.000789  -0.010856   0.006834  -0.001843
    19  C    0.007538  -0.000169   0.000029  -0.000098  -0.000002  -0.000030
    20  C   -0.018351   0.000787  -0.000071   0.000098   0.000001   0.000002
    21  C   -0.032437   0.008252  -0.000896   0.003013   0.000127  -0.000150
    22  N    0.092160  -0.060578  -0.028918  -0.027844   0.008625   0.000219
    23  C   -0.042244  -0.014340  -0.040666   0.373986   0.216482  -0.086679
    24  H   -0.000000   0.000000   0.000000  -0.000000  -0.000000   0.000000
    25  H   -0.000000  -0.000000   0.000000   0.000000  -0.000000  -0.000000
    26  H    0.000000   0.000000  -0.000000   0.000000   0.000000   0.000000
    27  H   -0.000000   0.000000  -0.000000  -0.000000   0.000000   0.000000
    28  H    0.000000   0.000002  -0.000000   0.000000   0.000000   0.000000
    29  H   -0.000028   0.000039  -0.000013  -0.000002  -0.000000  -0.000000
    30  H   -0.001098  -0.006284  -0.000040  -0.000055   0.000000   0.000000
    31  H   -0.001149  -0.001343  -0.000274  -0.000059  -0.000000   0.000000
    32  H   -0.020031   0.310573  -0.031798  -0.002556   0.000240  -0.000021
    33  H    0.001380  -0.011219   0.321862  -0.013619   0.004071  -0.000752
    34  H    0.002090  -0.010657   0.328298  -0.023146   0.002992  -0.000240
    35  H   -0.000015   0.000273  -0.018607  -0.127667   0.310777  -0.032593
    36  H   -0.000433   0.000104  -0.004364  -0.141362   0.093285   0.330359
    37  H   -0.000000   0.000000  -0.000018  -0.002229  -0.025952  -0.032158
    38  H   -0.000001   0.000000  -0.000001  -0.000889   0.001490   0.028045
    39  H    0.000000  -0.000000   0.000000  -0.000000  -0.000002  -0.000207
    40  H    0.001320   0.000008   0.000000  -0.000000   0.000000  -0.000000
    41  H    0.001625   0.000039   0.000022  -0.000008   0.000000   0.000000
    42  H    0.002252  -0.000122  -0.000007   0.000083  -0.000045   0.000122
    43  H    0.016186  -0.001569   0.020587  -0.021066  -0.157651   0.047036
              13         14         15         16         17         18
     1  N    0.000000   0.000000   0.000000   0.000000   0.000000   0.000000
     2  N    0.000000   0.000000   0.000000   0.000000   0.000000  -0.000000
     3  N    0.000000  -0.000000  -0.000000   0.000000   0.000000   0.000000
     4  N   -0.000000   0.000000   0.000000  -0.000000   0.000000  -0.000000
     5  N   -0.000000  -0.000000  -0.000000   0.000000   0.000000   0.000000
     6  C   -0.000000  -0.000000  -0.000000   0.000000   0.000000   0.000596
     7  N   -0.000001   0.000004   0.000058   0.000000  -0.000000  -0.034978
     8  N    0.000001  -0.000002   0.000020  -0.000000  -0.000000   0.001522
     9  C    0.000081   0.000061  -0.000376   0.000002  -0.000000   0.000789
    10  C    0.043690   0.009069   0.011138   0.001159   0.000010  -0.010856
    11  C   -0.260240   0.002764   0.014991  -0.024811   0.000282   0.006834
    12  C    0.408749   0.205587  -0.079745  -0.262107   0.003357  -0.001843
    13  C    5.677318   0.199728  -0.042714   0.263140  -0.026139  -0.000796
    14  C    0.199728   5.758276   0.316889  -0.711900  -0.013472   0.000473
    15  C   -0.042714   0.316889   6.134720  -0.108597   0.004780   0.029565
    16  C    0.263140  -0.711900  -0.108597   7.410303   0.067632  -0.000601
    17  S   -0.026139  -0.013472   0.004780   0.067632  16.158396  -0.000007
    18  C   -0.000796   0.000473   0.029565  -0.000601  -0.000007   6.181414
    19  C    0.000000  -0.000009  -0.002374  -0.000002   0.000000  -0.005868
    20  C   -0.000000   0.000001  -0.000067  -0.000000   0.000000  -0.013891
    21  C   -0.000002  -0.000019   0.006167  -0.000000  -0.000000  -0.061955
    22  N   -0.000158  -0.000018   0.008302   0.000012  -0.000000   0.026333
    23  C   -0.014086  -0.011620  -0.104519  -0.002882   0.000001   0.078104
    24  H    0.000000   0.000000   0.000000   0.000000   0.000000  -0.000000
    25  H    0.000000   0.000000   0.000000   0.000000   0.000000   0.000000
    26  H    0.000000   0.000000  -0.000000   0.000000   0.000000   0.000000
    27  H   -0.000000   0.000000  -0.000000   0.000000   0.000000  -0.000000
    28  H    0.000000   0.000000  -0.000000   0.000000   0.000000  -0.000000
    29  H   -0.000000  -0.000000   0.000000  -0.000000  -0.000000  -0.000000
    30  H    0.000000  -0.000000   0.000000  -0.000000  -0.000000  -0.000005
    31  H    0.000000   0.000000   0.000000  -0.000000  -0.000000  -0.000003
    32  H   -0.000000  -0.000000  -0.000012  -0.000000   0.000000   0.000833
    33  H   -0.000000  -0.000004   0.000021  -0.000000  -0.000000   0.000157
    34  H    0.000012  -0.000001   0.000000   0.000000  -0.000000  -0.000113
    35  H   -0.019640  -0.001724  -0.001136   0.000036  -0.000010  -0.000234
    36  H   -0.172734  -0.132177  -0.065320  -0.048430   0.001026  -0.001814
    37  H    0.334531  -0.029462   0.000117   0.013068  -0.003717  -0.000004
    38  H   -0.003044  -0.019166   0.196470  -0.051650  -0.005521  -0.001755
    39  H    0.001064  -0.020013  -0.000377   0.030751   0.246938   0.000001
    40  H   -0.000000  -0.000001   0.000102   0.000000  -0.000000  -0.001954
    41  H   -0.000000  -0.000000   0.000002  -0.000000  -0.000000  -0.001308
    42  H    0.000002   0.000273  -0.006419   0.000032   0.000000   0.115646
    43  H    0.026189   0.015544   0.058121   0.014574  -0.000046  -0.161338
              19         20         21         22         23         24
     1  N   -0.000000  -0.000000  -0.000000  -0.000000  -0.000000   0.340276
     2  N    0.000000  -0.000000   0.000000   0.000000   0.000000  -0.032676
     3  N   -0.000000   0.000000   0.000000  -0.000000  -0.000000   0.003584
     4  N    0.000000  -0.000000  -0.000000   0.000000   0.000000  -0.000130
     5  N   -0.000000   0.000020  -0.000001  -0.000002  -0.000002   0.000000
     6  C   -0.000336  -0.004717  -0.000446   0.005590   0.000304  -0.000000
     7  N    0.007538  -0.018351  -0.032437   0.092160  -0.042244  -0.000000
     8  N   -0.000169   0.000787   0.008252  -0.060578  -0.014340   0.000000
     9  C    0.000029  -0.000071  -0.000896  -0.028918  -0.040666   0.000000
    10  C   -0.000098   0.000098   0.003013  -0.027844   0.373986  -0.000000
    11  C   -0.000002   0.000001   0.000127   0.008625   0.216482  -0.000000
    12  C   -0.000030   0.000002  -0.000150   0.000219  -0.086679   0.000000
    13  C    0.000000  -0.000000  -0.000002  -0.000158  -0.014086   0.000000
    14  C   -0.000009   0.000001  -0.000019  -0.000018  -0.011620   0.000000
    15  C   -0.002374  -0.000067   0.006167   0.008302  -0.104519   0.000000
    16  C   -0.000002  -0.000000  -0.000000   0.000012  -0.002882   0.000000
    17  S    0.000000   0.000000  -0.000000  -0.000000   0.000001   0.000000
    18  C   -0.005868  -0.013891  -0.061955   0.026333   0.078104  -0.000000
    19  C    5.230322   0.228952   0.513531  -0.026246   0.002430   0.000000
    20  C    0.228952   5.466098   0.235836  -0.011317   0.003443  -0.000000
    21  C    0.513531   0.235836   4.924231   0.158998  -0.024338   0.000000
    22  N   -0.026246  -0.011317   0.158998   6.924339   0.246867   0.000000
    23  C    0.002430   0.003443  -0.024338   0.246867   5.060900   0.000000
    24  H    0.000000  -0.000000   0.000000   0.000000   0.000000   0.472699
    25  H    0.000000  -0.000000   0.000000   0.000000   0.000000  -0.032466
    26  H   -0.000000   0.000000  -0.000000  -0.000000  -0.000000  -0.003360
    27  H   -0.000000   0.000000   0.000000  -0.000000  -0.000000  -0.000521
    28  H   -0.000000   0.000000  -0.000000  -0.000000  -0.000000  -0.000013
    29  H    0.000000  -0.000000   0.000000  -0.000000  -0.000000  -0.000000
    30  H    0.000017   0.000144   0.000024  -0.000339   0.000009  -0.000000
    31  H   -0.000014   0.000193   0.000044  -0.000043   0.000001   0.000000
    32  H    0.000256   0.000032  -0.001219   0.012935  -0.000761   0.000000
    33  H    0.000001  -0.000000   0.000017   0.000223  -0.006353   0.000000
    34  H    0.000001   0.000003   0.000057   0.000945  -0.004523  -0.000000
    35  H    0.000000  -0.000000   0.000005  -0.000361   0.010190  -0.000000
    36  H    0.000092  -0.000003   0.000048  -0.002518   0.076166   0.000000
    37  H   -0.000000   0.000000   0.000000   0.000002   0.000066   0.000000
    38  H   -0.000031  -0.000000  -0.000029  -0.000132   0.006242   0.000000
    39  H   -0.000000  -0.000000   0.000000   0.000000   0.000000   0.000000
    40  H    0.126857   0.007801   0.008753  -0.000143  -0.000092  -0.000000
    41  H   -0.007499   0.322868  -0.011128   0.000978  -0.000086  -0.000000
    42  H    0.036616   0.029649  -0.005368  -0.006865   0.003534   0.000000
    43  H   -0.001435  -0.000624  -0.000542  -0.046946   0.161135   0.000000
              25         26         27         28         29         30
     1  N    0.319676  -0.056812   0.007598  -0.000456  -0.000002  -0.000000
     2  N   -0.070351   0.340081  -0.039114  -0.004276  -0.000066  -0.000004
     3  N    0.016333  -0.052036   0.311737  -0.039869  -0.003607   0.000007
     4  N   -0.000214   0.001590  -0.028785   0.286788  -0.022993  -0.000755
     5  N   -0.000001  -0.000050  -0.000081  -0.012310   0.224681  -0.013149
     6  C   -0.000000   0.000000   0.000003   0.000133   0.000711   0.285037
     7  N   -0.000000   0.000000  -0.000000   0.000000  -0.000028  -0.001098
     8  N   -0.000000   0.000000   0.000000   0.000002   0.000039  -0.006284
     9  C    0.000000  -0.000000  -0.000000  -0.000000  -0.000013  -0.000040
[...]
     35          1           0        9.699699   -7.133481    3.033650
     36          1           0       12.354123   -6.386957    2.640346
     37          1           0       11.242599   -8.678537    3.683335
     38          1           0       15.111239   -8.054393    3.331413
     39          1           0       14.711288  -10.622700    4.448958
     40          1           0       13.477295   -0.289284    0.357234
     41          1           0       10.750660    0.253684    0.143769
     42          1           0       13.354052   -2.328116    1.207937
     43          1           0       11.893914   -4.577019    1.900931
 ---------------------------------------------------------------------
                    Distance matrix (angstroms):
                    1          2          3          4          5
     1  N    0.000000
     2  N    1.419607   0.000000
     3  N    2.328943   1.451661   0.000000
     4  N    3.650525   2.388451   1.516983   0.000000
     5  N    5.268088   4.165396   2.943285   1.870024   0.000000
     6  C    7.086621   5.821444   4.834732   3.444953   2.090785
     7  N    9.246698   7.972124   6.995429   5.609194   4.171981
     8  N    8.361861   7.209747   6.038802   4.833785   3.098728
     9  C    9.139579   8.112773   6.819219   5.808277   3.955755
    10  C   10.542835   9.478780   8.216895   7.138872   5.315394
    11  C   11.621578  10.627077   9.312616   8.329702   6.475422
    12  C   12.995433  11.984712  10.682573   9.669511   7.825401
    13  C   14.090464  13.137010  11.798724  10.859193   8.998846
    14  C   15.450312  14.432730  13.136803  12.105987  10.269957
    15  C   15.845283  14.726600  13.516738  12.350960  10.584758
    16  C   16.488127  15.508643  14.187570  13.204163  11.354387
    17  S   16.826034  15.986212  14.595081  13.792774  11.924550
    18  C   11.920412  10.639226   9.661223   8.277259   6.797463
    19  C   11.981634  10.609808   9.866130   8.377151   7.252155
    20  C   11.111250   9.710832   9.111553   7.599871   6.735165
    21  C   11.215893   9.861512   9.071231   7.602482   6.432315
    22  N   10.367378   9.122988   8.090992   6.758343   5.233521
    23  C   11.006396   9.830942   8.685924   7.445763   5.747633
    24  H    1.020970   2.005955   3.224269   4.389266   6.117611
    25  H    1.023547   2.015718   2.552798   3.946305   5.412746
    26  H    2.023904   1.023037   2.037486   2.581531   4.383987
    27  H    2.490575   1.996421   1.021498   2.119932   3.186445
    28  H    3.823273   2.516788   2.003306   1.014577   2.378298
    29  H    4.873072   3.958099   2.630632   2.050997   1.140997
    30  H    6.315311   5.038187   4.135965   2.753411   1.832046
    31  H    6.310227   5.039896   4.140222   2.754013   1.794168
    32  H    8.413913   7.232822   6.124430   4.885717   3.294206
    33  H    9.057892   8.108407   6.774121   5.882412   4.030687
    34  H    9.052980   8.101336   6.769869   5.884872   4.063858
    35  H   11.415576  10.518867   9.147765   8.306955   6.438988
    36  H   13.232464  12.147870  10.905075   9.789161   7.990182
    37  H   13.661505  12.790409  11.409912  10.584930   8.716721
    38  H   16.512116  15.441449  14.187261  13.084534  11.281381
    39  H   17.684037  16.768184  15.411545  14.507427  12.643764
    40  H   12.926726  11.526953  10.910521   9.401382   8.452100
    41  H   10.248540   8.836043   8.344254   6.831125   6.183700
    42  H   12.906431  11.571802  10.708635   9.264625   7.945779
    43  H   12.033759  10.839244   9.717762   8.451350   6.780543
                    6          7          8          9         10
     6  C    0.000000
     7  N    2.179478   0.000000
     8  N    1.734309   1.723321   0.000000
     9  C    3.077734   2.720541   1.408839   0.000000
    10  C    4.103598   2.939711   2.393977   1.432468   0.000000
    11  C    5.421850   4.229928   3.698839   2.521451   1.343965
    12  C    6.645618   5.189089   4.948554   3.872003   2.556802
    13  C    7.933840   6.522293   6.220842   5.053837   3.831347
    14  C    8.994601   7.327433   7.336305   6.322263   4.969551
    15  C    9.042964   7.124843   7.521309   6.765157   5.336015
    16  C   10.151576   8.520929   8.474909   7.399732   6.089798
    17  S   11.046339   9.705711   9.322036   8.061863   6.962576
    18  C    4.836868   2.680010   3.910313   4.130338   3.262550
    19  C    5.163714   3.320709   4.881407   5.579832   5.045463
    20  C    4.704906   3.377656   4.880032   5.869804   5.661748
    21  C    4.382716   2.693974   4.050584   4.801822   4.394444
    22  N    3.416136   1.818592   2.359090   2.775168   2.394227
    23  C    4.111495   2.378541   2.649509   2.392632   1.374558
    24  H    7.826615   9.974759   9.190522  10.036468  11.423985
    25  H    7.309828   9.485823   8.466190   9.162071  10.575456
    26  H    5.862624   8.001872   7.299226   8.279455   9.608379
    27  H    5.132457   7.216187   6.230340   6.896248   8.304181
    28  H    3.632779   5.772146   5.059758   6.111446   7.391470
    29  H    2.993317   4.916806   3.803905   4.421001   5.814884
    30  H    1.359122   3.306926   2.664633   3.894153   4.998149
    31  H    1.209158   3.040823   2.738994   3.939040   5.037480
    32  H    1.906242   2.027109   1.027471   1.997826   2.775167
    33  H    3.464114   3.259051   2.064991   1.077912   1.993412
    34  H    3.547709   3.547122   2.043399   1.085098   2.005722
    35  H    5.708024   4.856544   4.001145   2.639550   1.961445
    36  H    6.586198   4.890986   4.968716   4.117688   2.693238
    37  H    7.890978   6.734643   6.165956   4.868111   3.867335
    38  H    9.855166   8.033835   8.261696   7.376388   5.970842
    39  H   11.567388  10.025302   9.864294   8.706392   7.470748
    40  H    6.385880   4.738457   6.272574   7.023915   6.478765
    41  H    4.266445   3.438214   4.823267   5.995412   6.045149
    42  H    5.908116   3.896297   5.208520   5.567953   4.705627
    43  H    5.068370   3.141309   3.688044   3.391797   2.165552
                   11         12         13         14         15
    11  C    0.000000
    12  C    1.380140   0.000000
    13  C    2.539124   1.339779   0.000000
    14  C    3.831933   2.455477   1.603462   0.000000
    15  C    4.511226   3.232216   2.997600   1.693948   0.000000
    16  C    4.881918   3.538062   2.415799   1.207763   2.407369
    17  S    5.627747   4.532122   3.192404   2.984413   4.493230
    18  C    3.952932   4.178707   5.384123   5.634106   4.948266
    19  C    5.919513   6.202107   7.394308   7.514158   6.598920
    20  C    6.722048   7.215197   8.472547   8.744494   7.939420
    21  C    5.371314   5.817698   7.068221   7.377282   6.677753
    22  N    3.485390   4.234279   5.549215   6.245350   6.031030
    23  C    2.256891   2.942811   4.277353   5.033198   4.958751
    24  H   12.535513  13.903715  15.022534  16.357239  16.700093
    25  H   11.605583  12.980867  14.038859  15.432747  15.900985
    26  H   10.789789  12.129142  13.308819  14.565093  14.804939
    27  H    9.343699  10.716134  11.790438  13.160147  13.593754
    28  H    8.608448   9.923999  11.135523  12.342452  12.538002
    29  H    6.872808   8.237510   9.341427  10.678019  11.089716
    30  H    6.278707   7.523031   8.788528   9.887253   9.983941
    31  H    6.318928   7.561555   8.825496   9.911798   9.964852
    32  H    4.040899   5.219530   6.493769   7.552553   7.689430
    33  H    2.768713   4.098721   5.164709   6.504051   7.050434
    34  H    2.769797   4.099914   5.165287   6.522403   7.127209
    35  H    1.032387   1.983898   2.726188   4.243662   5.209269
    36  H    1.919041   0.991372   1.976343   2.451840   2.665319
    37  H    2.526861   1.843741   1.087794   2.596262   4.078138
    38  H    4.966324   3.597279   2.934791   1.343260   1.131473
    39  H    6.193572   4.923486   3.654504   2.774861   3.883617
    40  H    7.293725   7.455932   8.575881   8.509616   7.409046
    41  H    7.221008   7.874377   9.173067   9.579779   8.880151
    42  H    5.297299   5.299661   6.377791   6.311265   5.301327
    43  H    2.535192   2.689808   3.934065   4.376376   4.048681
                   16         17         18         19         20
    16  C    0.000000
    17  S    2.121093   0.000000
    18  C    6.821148   8.430381   0.000000
    19  C    8.674243  10.391781   2.093436   0.000000
    20  C    9.925094  11.551603   3.245129   1.444679   0.000000
    21  C    8.563743  10.147632   2.085599   1.176809   1.466701
    22  N    7.441653   8.714186   2.119849   3.077820   3.440945
    23  C    6.229532   7.466032   1.960685   3.728432   4.465180
    24  H   17.411674  17.795519  12.643001  12.573551  11.627425
    25  H   16.446276  16.705309  12.133421  12.262104  11.410885
    26  H   15.660511  16.206618  10.623476  10.450948   9.462271
    27  H   14.182380  14.512721   9.874810  10.216260   9.556720
    28  H   13.456725  14.104376   8.376706   8.308558   7.417407
    29  H   11.718146  12.149944   7.510781   8.104565   7.664934
    30  H   11.033394  11.861686   5.826278   5.923722   5.232507
    31  H   11.054813  11.896782   5.705732   5.927079   5.383622
    32  H    8.699224   9.595948   4.013429   4.734816   4.587235
    33  H    7.520634   8.030488   4.692010   6.235268   6.572882
    34  H    7.541363   8.029273   4.880841   6.264665   6.478960
    35  H    5.140032   5.485884   4.933432   6.868125   7.585973
    36  H    3.650278   5.040205   3.433020   5.420437   6.527213
    37  H    3.139115   3.208377   6.005517   8.038328   9.013400
    38  H    1.487471   3.601530   5.988633   7.671179   8.983380
    39  H    1.586505   1.409298   8.403578  10.258404  11.504894
    40  H    9.618285  11.450124   3.478883   1.514137   1.816420
    41  H   10.775494  12.308880   4.051578   2.480768   1.092653
    42  H    7.436954   9.240428   1.695096   1.458357   2.766744
    43  H    5.583842   7.047598   1.562204   3.522349   4.542419
                   21         22         23         24         25
    21  C    0.000000
    22  N    2.151702   0.000000
    23  C    3.130749   1.399707   0.000000
    24  H   11.835844  11.120514  11.821597   0.000000
    25  H   11.423703  10.460079  11.097136   1.648506   0.000000
    26  H    9.665885   9.038159   9.866531   2.323193   2.336816
    27  H    9.476182   8.413559   8.867630   3.430518   2.835047
    28  H    7.475314   6.751734   7.592213   4.447830   4.000465
    29  H    7.355106   6.083480   6.408473   5.783606   5.068363
    30  H    5.013589   4.134950   5.031046   7.021251   6.438325
    31  H    5.291677   4.530006   5.120219   7.019712   6.668692
    32  H    3.735578   2.079220   2.798616   9.209908   8.448020
    33  H    5.584163   3.678152   3.089695   9.981487   9.124550
    34  H    5.364992   3.254925   3.018213   9.972310   8.954426
    35  H    6.263955   4.265902   3.154908  12.364689  11.347657
    36  H    5.136605   3.830023   2.581697  14.105234  13.260726
    37  H    7.612776   5.881336   4.629534  14.620405  13.567933
    38  H    7.679969   6.882152   5.777376  17.393942  16.518740
    39  H   10.134084   8.951068   7.734210  18.631303  17.600052
    40  H    2.295848   4.398060   5.134175  13.442135  13.219736
    41  H    2.275922   3.855304   4.996477  10.712643  10.580806
    42  H    1.832484   3.041970   3.334991  13.561660  13.110192
    43  H    3.166522   2.047324   1.056476  12.835788  12.138652
                   26         27         28         29         30
    26  H    0.000000
    27  H    2.848925   0.000000
    28  H    2.288479   2.872789   0.000000
    29  H    4.431124   2.506040   2.882232   0.000000
    30  H    4.903781   4.672609   2.617126   2.962051   0.000000
    31  H    5.208899   4.328990   3.173866   2.420312   1.845809
    32  H    7.182209   6.472473   4.904406   4.199378   2.367235
    33  H    8.405413   6.690211   6.350222   4.219895   4.394893
    34  H    8.219001   6.909483   6.100620   4.555670   4.021404
    35  H   10.736062   9.118591   8.637979   6.712470   6.489176
    36  H   12.244512  10.988218   9.995769   8.491041   7.495162
    37  H   13.007273  11.354728  10.903595   8.967262   8.695232
    38  H   15.532568  14.247084  13.278338  11.750112  10.754319
    39  H   16.947347  15.369797  14.780943  12.946113  12.420251
    40  H   11.273335  11.335057   9.224284   9.358716   6.976851
    41  H    8.551994   8.831519   6.600536   7.127761   4.640219
    42  H   11.428540  11.037486   9.209983   8.781363   6.683931
    43  H   10.859784   9.897361   8.580945   7.437205   5.997108
                   31         32         33         34         35
    31  H    0.000000
    32  H    3.090775   0.000000
    33  H    4.046287   2.895849   0.000000
    34  H    4.454368   2.201879   1.791399   0.000000
    35  H    6.531288   4.392825   2.655117   2.646905   0.000000
    36  H    7.533918   5.175954   4.467868   4.469485   2.785310
    37  H    8.734413   6.485349   4.857271   4.852257   2.278119
    38  H   10.792002   8.419249   7.625250   7.623684   5.497409
    39  H   12.454092  10.096910   8.758518   8.759832   6.268474
    40  H    7.103745   6.005339   7.724171   7.638112   8.262957
    41  H    4.804646   4.505542   6.668750   6.575330   8.001633
    42  H    6.810486   5.044590   6.261791   6.167098   6.307064
    43  H    6.050593   3.797018   3.990087   3.973533   3.554311
                   36         37         38         39         40
    36  H    0.000000
    37  H    2.752208   0.000000
    38  H    3.295391   3.934436   0.000000
    39  H    5.173859   4.049414   2.829323   0.000000
    40  H    6.607248   9.297116   8.474221  11.182326   0.000000
    41  H    7.273383   9.620556   9.909584  12.349775   2.788354
    42  H    4.418806   7.135382   6.355085   9.008131   2.212627
    43  H    2.008582   4.519250   4.948695   7.140048   4.824393
                   41         42         43
    41  H    0.000000
    42  H    3.817826   0.000000
    43  H    5.265961   2.769442   0.000000
 Stoichiometry    C14H20N8S
 Framework group  C1[X(C14H20N8S)]
 Deg. of freedom   123
 Full point group                 C1      NOp   1
 Largest Abelian subgroup         C1      NOp   1
 Largest concise Abelian subgroup C1      NOp   1
                         Standard orientation:                         
 ---------------------------------------------------------------------
 Center     Atomic      Atomic             Coordinates (Angstroms)
 Number     Number       Type             X           Y           Z
 ---------------------------------------------------------------------
      1          7           0       -9.361841   -2.434853   -0.001562
      2          7           0       -8.446166   -1.350128   -0.015481
      3          7           0       -7.097955   -1.888278   -0.008874
      4          7           0       -6.145974   -0.708141   -0.056274
      5          7           0       -4.297532   -0.987419   -0.103775
      6          6           0       -2.974844    0.627324   -0.224122
      7          7           0       -1.063613    1.597400   -0.619437
      8          7           0       -1.366719    0.014364   -0.009551
      9          6           0       -0.343092   -0.953628   -0.007517
     10          6           0        0.987084   -0.422212   -0.021350
     11          6           0        2.176540   -1.046841    0.014355
     12          6           0        3.523208   -0.744724    0.014739
     13          6           0        4.690626   -1.401609    0.040100
     14          6           0        5.956596   -0.420888   -0.041110
     15          6           0        6.046317    1.247610   -0.319541
     16          6           0        7.056484   -0.919823   -0.041654
     17         16           0        7.454422   -2.998030    0.105774
     18          6           0        1.345932    2.770293   -0.590011
     19          6           0        0.350069    4.578102   -0.239929
     20          6           0       -0.997024    4.876344    0.188429
     21          6           0       -0.059836    3.807383    0.549280
     22          7           0        0.126781    1.673521    0.753314
     23          6           0        1.113173    0.942727    0.080894
     24          1           0      -10.316824   -2.073924    0.009275
     25          1           0       -9.234425   -2.992554    0.847192
     26          1           0       -8.580370   -0.749596    0.801805
     27          1           0       -7.017790   -2.473405   -0.842335
     28          1           0       -6.355058   -0.215640    0.805754
     29          1           0       -4.600906   -1.810969   -0.832886
     30          1           0       -3.847331    0.533085    0.813710
     31          1           0       -3.863838    0.485817   -1.031419
     32          1           0       -1.488718    0.378469    0.943465
     33          1           0       -0.387655   -1.579804   -0.883766
     34          1           0       -0.399646   -1.534871    0.907030
     35          1           0        2.047786   -2.070438    0.053011
     36          1           0        3.596707    0.243588   -0.010872
     37          1           0        4.299418   -2.415907    0.078189
     38          1           0        6.877186    0.555754    0.013960
     39          1           0        8.313378   -1.881272    0.071631
     40          1           0        0.408433    6.027005    0.195830
     41          1           0       -2.085397    4.779748    0.186748
     42          1           0        1.691790    4.224636    0.209126
     43          1           0        2.016232    1.483144   -0.011714
 ---------------------------------------------------------------------
 Rotational constants (GHZ):           0.3154213           0.0612858           0.0516570
 Standard basis: 6-31G(2df,p) (6D, 7F)
 There are   817 symmetry adapted cartesian basis functions of A   symmetry.
 There are   748 symmetry adapted basis functions of A   symmetry.
   748 basis functions,  1176 primitive gaussians,   817 cartesian basis functions
    88 alpha electrons       88 beta electrons
       nuclear repulsion energy      1735.0948023669 Hartrees.
 NAtoms=   43 NActive=   43 NUniq=   43 SFac= 1.00D+00 NAtFMM=   60 NAOKFM=F Big=F
 Integral buffers will be    131072 words long.
 Raffenetti 2 integral format.
 Two-electron integral symmetry is turned on.
 One-electron integrals computed using PRISM.
 PrsmSu:  requested number of processors reduced to:  12 ShMem   1 Linda.
 NBasis=   748 RedAO= T EigKep=  2.02D-04  NBF=   748
 NBsUse=   748 1.00D-06 EigRej= -1.00D+00 NBFU=   748
 Initial guess from the checkpoint file:  "NNNNNCN1NCC2dCCdCCdCqCdSrC1dCCdCNdC2.chk"
 B after Tr=    -0.000000   -0.000000   -0.000000
         Rot=    0.999996    0.001331    0.000819   -0.002551 Ang=   0.34 deg.
 ExpMin= 1.17D-01 ExpMax= 2.19D+04 ExpMxC= 3.30D+03 IAcc=2 IRadAn=         4 AccDes= 0.00D+00
 Harris functional with IExCor=  402 and IRadAn=       4 diagonalized for initial guess.
 HarFok:  IExCor=  402 AccDes= 0.00D+00 IRadAn=         4 IDoV= 1 UseB2=F ITyADJ=14
 ICtDFT=  3500011 ScaDFX=  1.000000  1.000000  1.000000  1.000000
 FoFCou: FMM=F IPFlag=           0 FMFlag=      100000 FMFlg1=           0
         NFxFlg=           0 DoJE=T BraDBF=F KetDBF=T FulRan=T
         wScrn=  0.000000 ICntrl=       500 IOpCl=  0 I1Cent=   200000004 NGrid=           0
         NMat0=    1 NMatS0=      1 NMatT0=    0 NMatD0=    1 NMtDS0=    0 NMtDT0=    0
 Petite list used in FoFCou.
 Requested convergence on RMS density matrix=1.00D-08 within 128 cycles.
 Requested convergence on MAX density matrix=1.00D-06.
 Requested convergence on             energy=1.00D-06.
 No special actions if energy rises.
 Integral accuracy reduced to 1.0D-05 until final iterations.
 Initial convergence to 1.0D-05 achieved.  Increase integral accuracy.
slurmstepd: error: *** JOB 27449682 ON lewis4-r630-hpc4-node297 CANCELLED AT 2023-05-20T20:33:56 ***
