### Starting Gaussian ###
 Entering Gaussian System, Link 0=g16
 Initial command:
 /cluster/software/gaussian/gaussian-16-A.03/avx2/g16/l1.exe "/local/scratch/cz9n3/Gau-30521.inp" -scrdir="/local/scratch/cz9n3/"
 Entering Link 1 = /cluster/software/gaussian/gaussian-16-A.03/avx2/g16/l1.exe PID=     30522.
  
 Copyright (c) 1988,1990,1992,1993,1995,1998,2003,2009,2016,
            Gaussian, Inc.  All Rights Reserved.
  
 This is part of the Gaussian(R) 16 program.  It is based on
 the Gaussian(R) 09 system (copyright 2009, Gaussian, Inc.),
 the Gaussian(R) 03 system (copyright 2003, Gaussian, Inc.),
 the Gaussian(R) 98 system (copyright 1998, Gaussian, Inc.),
 the Gaussian(R) 94 system (copyright 1995, Gaussian, Inc.),
 the Gaussian 92(TM) system (copyright 1992, Gaussian, Inc.),
 the Gaussian 90(TM) system (copyright 1990, Gaussian, Inc.),
 the Gaussian 88(TM) system (copyright 1988, Gaussian, Inc.),
 the Gaussian 86(TM) system (copyright 1986, Carnegie Mellon
 University), and the Gaussian 82(TM) system (copyright 1983,
 Carnegie Mellon University). Gaussian is a federally registered
 trademark of Gaussian, Inc.
  
 This software contains proprietary and confidential information,
 including trade secrets, belonging to Gaussian, Inc.
  
 This software is provided under written license and may be
 used, copied, transmitted, or stored only in accord with that
 written license.
  
 The following legend is applicable only to US Government
 contracts under FAR:
  
                    RESTRICTED RIGHTS LEGEND
  
 Use, reproduction and disclosure by the US Government is
 subject to restrictions as set forth in subparagraphs (a)
 and (c) of the Commercial Computer Software - Restricted
 Rights clause in FAR 52.227-19.
  
 Gaussian, Inc.
 340 Quinnipiac St., Bldg. 40, Wallingford CT 06492
  
  
 ---------------------------------------------------------------
 Warning -- This program may not be used in any manner that
 competes with the business of Gaussian, Inc. or will provide
 assistance to any competitor of Gaussian, Inc.  The licensee
 of this program is prohibited from giving any competitor of
 Gaussian, Inc. access to this program.  By using this program,
 the user acknowledges that Gaussian, Inc. is engaged in the
 business of creating and licensing software in the field of
 computational chemistry and represents and warrants to the
 licensee that it is not a competitor of Gaussian, Inc. and that
 it will not use this program in any manner prohibited above.
 ---------------------------------------------------------------
  

 Cite this work as:
 Gaussian 16, Revision A.03,
 M. J. Frisch, G. W. Trucks, H. B. Schlegel, G. E. Scuseria, 
 M. A. Robb, J. R. Cheeseman, G. Scalmani, V. Barone, 
 G. A. Petersson, H. Nakatsuji, X. Li, M. Caricato, A. V. Marenich, 
 J. Bloino, B. G. Janesko, R. Gomperts, B. Mennucci, H. P. Hratchian, 
 J. V. Ortiz, A. F. Izmaylov, J. L. Sonnenberg, D. Williams-Young, 
 F. Ding, F. Lipparini, F. Egidi, J. Goings, B. Peng, A. Petrone, 
 T. Henderson, D. Ranasinghe, V. G. Zakrzewski, J. Gao, N. Rega, 
 G. Zheng, W. Liang, M. Hada, M. Ehara, K. Toyota, R. Fukuda, 
 J. Hasegawa, M. Ishida, T. Nakajima, Y. Honda, O. Kitao, H. Nakai, 
 T. Vreven, K. Throssell, J. A. Montgomery, Jr., J. E. Peralta, 
 F. Ogliaro, M. J. Bearpark, J. J. Heyd, E. N. Brothers, K. N. Kudin, 
 V. N. Staroverov, T. A. Keith, R. Kobayashi, J. Normand, 
 K. Raghavachari, A. P. Rendell, J. C. Burant, S. S. Iyengar, 
 J. Tomasi, M. Cossi, J. M. Millam, M. Klene, C. Adamo, R. Cammi, 
 J. W. Ochterski, R. L. Martin, K. Morokuma, O. Farkas, 
 J. B. Foresman, and D. J. Fox, Gaussian, Inc., Wallingford CT, 2016.
 
 ******************************************
 Gaussian 16:  ES64L-G16RevA.03 25-Dec-2016
                17-May-2023 
 ******************************************
 %chk=NNNNCqCdNSrdCCdCNdS.chk
 %NProcShared=20
 Will use up to   20 processors via shared memory.
 -----------------------------
 # opt freq b3lyp/6-31g(2df,p)
 -----------------------------
 1/18=20,19=15,26=3,38=1/1,3;
 2/9=110,12=2,17=6,18=5,40=1/2;
 3/5=1,6=6,7=104,11=2,25=1,30=1,71=1,74=-5/1,2,3;
 4//1;
 5/5=2,38=5/2;
 6/7=2,8=2,9=2,10=2,28=1/1;
 7//1,2,3,16;
 1/18=20,19=15,26=3/3(2);
 2/9=110/2;
 99//99;
 2/9=110/2;
 3/5=1,6=6,7=104,11=2,25=1,30=1,71=1,74=-5/1,2,3;
 4/5=5,16=3,69=1/1;
 5/5=2,38=5/2;
 7//1,2,3,16;
 1/18=20,19=15,26=3/3(-5);
 2/9=110/2;
 6/7=2,8=2,9=2,10=2,19=2,28=1/1;
 99/9=1/99;
 -------------------
 Title Card Required
 -------------------
 Symbolic Z-matrix:
 Charge =  0 Multiplicity = 1
 N                     0.99903  -0.09157  -0.05812 
 N                     2.42554  -0.06321  -0.09377 
 N                     2.87443   0.07871   1.22538 
 N                     4.25238   0.11315   1.33306 
 C                     4.92625   0.21932   2.55434 
 C                     4.11342   0.34399   3.83457 
 N                     2.81361   0.30633   3.89526 
 S                     2.15177   0.48942   5.4172 
 C                     6.28068   0.21875   2.6425 
 C                     7.09859   0.33828   3.8345 
 C                     8.44992   0.34866   3.91964 
 N                     9.15142   0.47037   5.07702 
 S                     10.6426   0.45069   4.86056 
 H                     0.60312  -0.1471   -0.99469 
 H                     0.6466    0.76654   0.37175 
 H                     2.77741   0.73308  -0.63654 
 H                     2.48062  -0.63593   1.85143 
 H                     4.82783  -0.07098   0.5183 
 H                     4.69216   0.46563   4.76142 
 H                     0.86036   0.46825   5.05476 
 H                     6.86833   0.12685   1.73071 
 H                     6.62424   0.43961   4.80091 
 H                     8.97365   0.25037   2.96441 
 

 GradGradGradGradGradGradGradGradGradGradGradGradGradGradGradGradGradGrad
 Berny optimization.
 Initialization pass.
                           ----------------------------
                           !    Initial Parameters    !
                           ! (Angstroms and Degrees)  !
 --------------------------                            --------------------------
 ! Name  Definition              Value          Derivative Info.                !
 --------------------------------------------------------------------------------
 ! R1    R(1,2)                  1.4272         estimate D2E/DX2                !
 ! R2    R(1,14)                 1.0183         estimate D2E/DX2                !
 ! R3    R(1,15)                 1.0224         estimate D2E/DX2                !
 ! R4    R(2,3)                  1.4006         estimate D2E/DX2                !
 ! R5    R(2,16)                 1.0259         estimate D2E/DX2                !
 ! R6    R(3,4)                  1.3826         estimate D2E/DX2                !
 ! R7    R(3,17)                 1.0285         estimate D2E/DX2                !
 ! R8    R(4,5)                  1.3989         estimate D2E/DX2                !
 ! R9    R(4,18)                 1.0143         estimate D2E/DX2                !
 ! R10   R(5,6)                  1.5216         estimate D2E/DX2                !
 ! R11   R(5,9)                  1.3573         estimate D2E/DX2                !
 ! R12   R(6,7)                  1.3018         estimate D2E/DX2                !
 ! R13   R(6,19)                 1.0994         estimate D2E/DX2                !
 ! R14   R(7,8)                  1.6697         estimate D2E/DX2                !
 ! R15   R(8,20)                 1.3415         estimate D2E/DX2                !
 ! R16   R(9,10)                 1.4506         estimate D2E/DX2                !
 ! R17   R(9,21)                 1.0886         estimate D2E/DX2                !
 ! R18   R(10,11)                1.354          estimate D2E/DX2                !
 ! R19   R(10,22)                1.0813         estimate D2E/DX2                !
 ! R20   R(11,12)                1.3588         estimate D2E/DX2                !
 ! R21   R(11,23)                1.0938         estimate D2E/DX2                !
 ! R22   R(12,13)                1.5069         estimate D2E/DX2                !
 ! A1    A(2,1,14)             111.5121         estimate D2E/DX2                !
 ! A2    A(2,1,15)             109.7764         estimate D2E/DX2                !
 ! A3    A(14,1,15)            107.3639         estimate D2E/DX2                !
 ! A4    A(1,2,3)              107.3864         estimate D2E/DX2                !
 ! A5    A(1,2,16)             111.8049         estimate D2E/DX2                !
 ! A6    A(3,2,16)             108.0419         estimate D2E/DX2                !
 ! A7    A(2,3,4)              113.2841         estimate D2E/DX2                !
 ! A8    A(2,3,17)             112.3449         estimate D2E/DX2                !
 ! A9    A(4,3,17)             110.5808         estimate D2E/DX2                !
 ! A10   A(3,4,5)              123.3663         estimate D2E/DX2                !
 ! A11   A(3,4,18)             119.8899         estimate D2E/DX2                !
 ! A12   A(5,4,18)             116.2156         estimate D2E/DX2                !
 ! A13   A(4,5,6)              118.9102         estimate D2E/DX2                !
 ! A14   A(4,5,9)              122.505          estimate D2E/DX2                !
 ! A15   A(6,5,9)              118.5846         estimate D2E/DX2                !
 ! A16   A(5,6,7)              124.7677         estimate D2E/DX2                !
 ! A17   A(5,6,19)             115.9229         estimate D2E/DX2                !
 ! A18   A(7,6,19)             119.3075         estimate D2E/DX2                !
 ! A19   A(6,7,8)              115.7924         estimate D2E/DX2                !
 ! A20   A(7,8,20)              97.6771         estimate D2E/DX2                !
 ! A21   A(5,9,10)             128.0251         estimate D2E/DX2                !
 ! A22   A(5,9,21)             118.9664         estimate D2E/DX2                !
 ! A23   A(10,9,21)            113.0069         estimate D2E/DX2                !
 ! A24   A(9,10,11)            127.9539         estimate D2E/DX2                !
 ! A25   A(9,10,22)            119.6567         estimate D2E/DX2                !
 ! A26   A(11,10,22)           112.3886         estimate D2E/DX2                !
 ! A27   A(10,11,12)           124.7122         estimate D2E/DX2                !
 ! A28   A(10,11,23)           114.9768         estimate D2E/DX2                !
 ! A29   A(12,11,23)           120.311          estimate D2E/DX2                !
 ! A30   A(11,12,13)           112.7888         estimate D2E/DX2                !
 ! D1    D(14,1,2,3)           177.1737         estimate D2E/DX2                !
 ! D2    D(14,1,2,16)           58.8262         estimate D2E/DX2                !
 ! D3    D(15,1,2,3)            58.3176         estimate D2E/DX2                !
 ! D4    D(15,1,2,16)          -60.0299         estimate D2E/DX2                !
 ! D5    D(1,2,3,4)            179.6786         estimate D2E/DX2                !
 ! D6    D(1,2,3,17)            53.475          estimate D2E/DX2                !
 ! D7    D(16,2,3,4)           -59.5676         estimate D2E/DX2                !
 ! D8    D(16,2,3,17)          174.2288         estimate D2E/DX2                !
 ! D9    D(2,3,4,5)           -178.5548         estimate D2E/DX2                !
 ! D10   D(2,3,4,18)            -7.213          estimate D2E/DX2                !
 ! D11   D(17,3,4,5)           -51.4197         estimate D2E/DX2                !
 ! D12   D(17,3,4,18)          119.9221         estimate D2E/DX2                !
 ! D13   D(3,4,5,6)             -1.813          estimate D2E/DX2                !
 ! D14   D(3,4,5,9)            178.3496         estimate D2E/DX2                !
 ! D15   D(18,4,5,6)          -173.448          estimate D2E/DX2                !
 ! D16   D(18,4,5,9)             6.7146         estimate D2E/DX2                !
 ! D17   D(4,5,6,7)              2.9183         estimate D2E/DX2                !
 ! D18   D(4,5,6,19)          -177.5957         estimate D2E/DX2                !
 ! D19   D(9,5,6,7)           -177.2379         estimate D2E/DX2                !
 ! D20   D(9,5,6,19)             2.2482         estimate D2E/DX2                !
 ! D21   D(4,5,9,10)           179.1552         estimate D2E/DX2                !
 ! D22   D(4,5,9,21)            -0.3449         estimate D2E/DX2                !
 ! D23   D(6,5,9,10)            -0.6827         estimate D2E/DX2                !
 ! D24   D(6,5,9,21)           179.8172         estimate D2E/DX2                !
 ! D25   D(5,6,7,8)           -179.0784         estimate D2E/DX2                !
 ! D26   D(19,6,7,8)             1.4516         estimate D2E/DX2                !
 ! D27   D(6,7,8,20)           176.8575         estimate D2E/DX2                !
 ! D28   D(5,9,10,11)         -179.3998         estimate D2E/DX2                !
 ! D29   D(5,9,10,22)            0.2335         estimate D2E/DX2                !
 ! D30   D(21,9,10,11)           0.125          estimate D2E/DX2                !
 ! D31   D(21,9,10,22)         179.7584         estimate D2E/DX2                !
 ! D32   D(9,10,11,12)         179.7048         estimate D2E/DX2                !
 ! D33   D(9,10,11,23)          -0.2405         estimate D2E/DX2                !
 ! D34   D(22,10,11,12)          0.0494         estimate D2E/DX2                !
 ! D35   D(22,10,11,23)       -179.896          estimate D2E/DX2                !
 ! D36   D(10,11,12,13)       -179.9466         estimate D2E/DX2                !
 ! D37   D(23,11,12,13)         -0.004          estimate D2E/DX2                !
 --------------------------------------------------------------------------------
 Trust Radius=3.00D-01 FncErr=1.00D-07 GrdErr=1.00D-06 EigMax=2.50D+02 EigMin=1.00D-04
 Number of steps in this run=     99 maximum allowed number of steps=    138.
 GradGradGradGradGradGradGradGradGradGradGradGradGradGradGradGradGradGrad

                          Input orientation:                          
 ---------------------------------------------------------------------
 Center     Atomic      Atomic             Coordinates (Angstroms)
 Number     Number       Type             X           Y           Z
 ---------------------------------------------------------------------
      1          7           0        0.999030   -0.091570   -0.058120
      2          7           0        2.425540   -0.063210   -0.093770
      3          7           0        2.874430    0.078710    1.225380
      4          7           0        4.252380    0.113150    1.333060
      5          6           0        4.926250    0.219320    2.554340
      6          6           0        4.113420    0.343990    3.834570
      7          7           0        2.813610    0.306330    3.895260
      8         16           0        2.151770    0.489420    5.417200
      9          6           0        6.280680    0.218750    2.642500
     10          6           0        7.098590    0.338280    3.834500
     11          6           0        8.449920    0.348660    3.919640
     12          7           0        9.151420    0.470370    5.077020
     13         16           0       10.642600    0.450690    4.860560
     14          1           0        0.603120   -0.147100   -0.994690
     15          1           0        0.646600    0.766540    0.371750
     16          1           0        2.777410    0.733080   -0.636540
     17          1           0        2.480620   -0.635930    1.851430
     18          1           0        4.827830   -0.070980    0.518300
     19          1           0        4.692160    0.465630    4.761420
     20          1           0        0.860360    0.468250    5.054760
     21          1           0        6.868330    0.126850    1.730710
     22          1           0        6.624240    0.439610    4.800910
     23          1           0        8.973650    0.250370    2.964410
 ---------------------------------------------------------------------
                    Distance matrix (angstroms):
                    1          2          3          4          5
     1  N    0.000000
     2  N    1.427237   0.000000
     3  N    2.278924   1.400643   0.000000
     4  N    3.544232   2.324713   1.382580   0.000000
     5  C    4.727014   3.653199   2.448647   1.398892   0.000000
     6  C    5.004216   4.294951   2.900576   2.515979   1.521586
     7  N    4.368093   4.024863   2.680255   2.944868   2.503774
     8  S    5.625432   5.545371   4.273438   4.608073   3.995830
     9  C    5.940158   4.735903   3.691934   2.416565   1.357296
    10  C    7.248579   6.117998   4.971761   3.795892   2.524286
    11  C    8.457667   7.250535   6.198225   4.936112   3.781140
    12  N    9.651264   8.500543   7.374899   6.176199   4.927373
    13  S   10.839091   9.608827   8.584717   7.306990   6.168374
    14  H    1.018328   2.034677   3.184109   4.336271   5.605295
    15  H    1.022423   2.017380   2.482946   3.788494   4.835137
    16  H    2.043833   1.025909   1.975945   2.537553   3.881131
    17  H    2.477462   2.028508   1.028463   1.992225   2.684519
    18  H    3.872001   2.479050   2.082820   1.014337   2.058985
    19  H    6.097348   5.384246   3.994675   3.474378   2.233085
    20  H    5.145306   5.407365   4.344234   5.048064   4.779700
    21  H    6.139731   4.806582   4.026029   2.646036   2.111538
    22  H    7.452202   6.468369   5.193817   4.214057   2.824672
    23  H    8.535056   7.233847   6.344618   4.997051   4.068239
                    6          7          8          9         10
     6  C    0.000000
     7  N    1.301771   0.000000
     8  S    2.524666   1.669687   0.000000
     9  C    2.476637   3.687499   4.981980   0.000000
    10  C    2.985175   4.285530   5.196038   1.450561   0.000000
    11  C    4.337337   5.636522   6.475275   2.520628   1.354049
    12  N    5.190481   6.449132   7.007937   3.772446   2.403209
    13  S    6.610161   7.889596   8.509145   4.898973   3.691266
    14  H    5.990420   5.385488   6.626900   6.752606   8.108502
    15  H    4.918182   4.162073   5.272466   6.099118   7.335000
    16  H    4.682642   4.551993   6.090859   4.825924   6.230462
    17  H    2.749386   2.275077   3.753568   3.974509   5.119306
    18  H    3.417635   3.950102   5.610220   2.589776   4.039929
    19  H    1.099449   2.074743   2.623775   2.659731   2.581919
    20  H    3.476594   2.277245   1.341473   5.938107   6.357786
    21  H    3.473169   4.599809   5.997300   1.088641   2.126888
    22  H    2.692057   3.919039   4.515006   2.196713   1.081307
    23  H    4.938398   6.230225   7.253370   2.712326   2.068969
                   11         12         13         14         15
    11  C    0.000000
    12  N    1.358839   0.000000
    13  S    2.388218   1.506937   0.000000
    14  H    9.271930  10.503350  11.637545   0.000000
    15  H    8.582188   9.724158  10.962171   1.644320   0.000000
    16  H    7.285872   8.563982   9.599951   2.372873   2.357566
    17  H    6.393704   7.491856   8.766614   3.444468   2.742263
    18  H    4.986456   6.306221   7.275913   4.488107   4.266802
    19  H    3.852666   4.470417   5.951285   7.087206   5.977149
    20  H    7.674908   8.291090   9.784183   6.086105   4.697367
    21  H    2.709620   4.065501   4.913853   6.837815   6.400461
    22  H    2.029290   2.542405   4.018818   8.377774   7.446914
    23  H    1.093809   2.131460   2.533951   9.268130   8.736594
                   16         17         18         19         20
    16  H    0.000000
    17  H    2.855218   0.000000
    18  H    2.486843   2.757861   0.000000
    19  H    5.733740   3.817379   4.279068   0.000000
    20  H    6.011332   3.755766   6.050707   3.843013   0.000000
    21  H    4.765188   4.455155   2.381746   3.746424   6.874705
    22  H    6.667090   5.198635   4.672102   1.932659   5.769538
    23  H    7.182843   6.647081   4.824370   4.648305   8.381080
                   21         22         23
    21  H    0.000000
    22  H    3.095727   0.000000
    23  H    2.443286   2.988021   0.000000
 Stoichiometry    C5H10N6S2
 Framework group  C1[X(C5H10N6S2)]
 Deg. of freedom    63
 Full point group                 C1      NOp   1
 Largest Abelian subgroup         C1      NOp   1
 Largest concise Abelian subgroup C1      NOp   1
                         Standard orientation:                         
 ---------------------------------------------------------------------
 Center     Atomic      Atomic             Coordinates (Angstroms)
 Number     Number       Type             X           Y           Z
 ---------------------------------------------------------------------
      1          7           0        5.041224   -1.604810   -0.066026
      2          7           0        3.718252   -2.139570   -0.038064
      3          7           0        2.829643   -1.057109   -0.016763
      4          7           0        1.501498   -1.440653    0.004450
      5          6           0        0.438046   -0.531845   -0.001581
      6          6           0        0.744084    0.958608    0.009142
      7          7           0        1.940039    1.471167   -0.030650
      8         16           0        2.017842    3.138386    0.016092
      9          6           0       -0.860038   -0.928193   -0.013418
     10          6           0       -2.048404   -0.096434   -0.003856
     11          6           0       -3.342900   -0.493586   -0.004508
     12          7           0       -4.410263    0.347217    0.010632
     13         16           0       -5.728523   -0.382876    0.006894
     14          1           0        5.742804   -2.342286   -0.035913
     15          1           0        5.190498   -1.008121    0.750692
     16          1           0        3.552726   -2.703137    0.803056
     17          1           0        3.002337   -0.394310   -0.783972
     18          1           0        1.255905   -2.418493   -0.106878
     19          1           0       -0.127377    1.627962    0.045299
     20          1           0        3.354148    3.255083    0.030853
     21          1           0       -1.086077   -1.993054   -0.024173
     22          1           0       -1.947887    0.980087    0.011088
     23          1           0       -3.493648   -1.576879   -0.017554
 ---------------------------------------------------------------------
 Rotational constants (GHZ):           0.8917997           0.2010765           0.1642889
 Standard basis: 6-31G(2df,p) (6D, 7F)
 There are   461 symmetry adapted cartesian basis functions of A   symmetry.
 There are   422 symmetry adapted basis functions of A   symmetry.
   422 basis functions,   690 primitive gaussians,   461 cartesian basis functions
    57 alpha electrons       57 beta electrons
       nuclear repulsion energy       894.2019521042 Hartrees.
 NAtoms=   23 NActive=   23 NUniq=   23 SFac= 1.00D+00 NAtFMM=   60 NAOKFM=F Big=F
 Integral buffers will be    131072 words long.
 Raffenetti 2 integral format.
 Two-electron integral symmetry is turned on.
 One-electron integrals computed using PRISM.
 PrsmSu:  requested number of processors reduced to:  13 ShMem   1 Linda.
 NBasis=   422 RedAO= T EigKep=  1.68D-04  NBF=   422
 NBsUse=   422 1.00D-06 EigRej= -1.00D+00 NBFU=   422
 ExpMin= 1.17D-01 ExpMax= 2.19D+04 ExpMxC= 3.30D+03 IAcc=3 IRadAn=         5 AccDes= 0.00D+00
 Harris functional with IExCor=  402 and IRadAn=       5 diagonalized for initial guess.
 HarFok:  IExCor=  402 AccDes= 0.00D+00 IRadAn=         5 IDoV= 1 UseB2=F ITyADJ=14
 ICtDFT=  3500011 ScaDFX=  1.000000  1.000000  1.000000  1.000000
 FoFCou: FMM=F IPFlag=           0 FMFlag=      100000 FMFlg1=           0
         NFxFlg=           0 DoJE=T BraDBF=F KetDBF=T FulRan=T
         wScrn=  0.000000 ICntrl=       500 IOpCl=  0 I1Cent=   200000004 NGrid=           0
         NMat0=    1 NMatS0=      1 NMatT0=    0 NMatD0=    1 NMtDS0=    0 NMtDT0=    0
 Petite list used in FoFCou.
 Requested convergence on RMS density matrix=1.00D-08 within 128 cycles.
 Requested convergence on MAX density matrix=1.00D-06.
 Requested convergence on             energy=1.00D-06.
 No special actions if energy rises.
 Integral accuracy reduced to 1.0D-05 until final iterations.
 Initial convergence to 1.0D-05 achieved.  Increase integral accuracy.
 SCF Done:  E(RB3LYP) =  -1321.22773226     A.U. after   16 cycles
            NFock= 16  Conv=0.58D-08     -V/T= 2.0045

 **********************************************************************

            Population analysis using the SCF density.

 **********************************************************************

 Orbital symmetries:
       Occupied  (A) (A) (A) (A) (A) (A) (A) (A) (A) (A) (A) (A)
                 (A) (A) (A) (A) (A) (A) (A) (A) (A) (A) (A) (A)
                 (A) (A) (A) (A) (A) (A) (A) (A) (A) (A) (A) (A)
                 (A) (A) (A) (A) (A) (A) (A) (A) (A) (A) (A) (A)
                 (A) (A) (A) (A) (A) (A) (A) (A) (A)
       Virtual   (A) (A) (A) (A) (A) (A) (A) (A) (A) (A) (A) (A)
                 (A) (A) (A) (A) (A) (A) (A) (A) (A) (A) (A) (A)
                 (A) (A) (A) (A) (A) (A) (A) (A) (A) (A) (A) (A)
                 (A) (A) (A) (A) (A) (A) (A) (A) (A) (A) (A) (A)
                 (A) (A) (A) (A) (A) (A) (A) (A) (A) (A) (A) (A)
                 (A) (A) (A) (A) (A) (A) (A) (A) (A) (A) (A) (A)
                 (A) (A) (A) (A) (A) (A) (A) (A) (A) (A) (A) (A)
                 (A) (A) (A) (A) (A) (A) (A) (A) (A) (A) (A) (A)
                 (A) (A) (A) (A) (A) (A) (A) (A) (A) (A) (A) (A)
                 (A) (A) (A) (A) (A) (A) (A) (A) (A) (A) (A) (A)
                 (A) (A) (A) (A) (A) (A) (A) (A) (A) (A) (A) (A)
                 (A) (A) (A) (A) (A) (A) (A) (A) (A) (A) (A) (A)
                 (A) (A) (A) (A) (A) (A) (A) (A) (A) (A) (A) (A)
                 (A) (A) (A) (A) (A) (A) (A) (A) (A) (A) (A) (A)
                 (A) (A) (A) (A) (A) (A) (A) (A) (A) (A) (A) (A)
                 (A) (A) (A) (A) (A) (A) (A) (A) (A) (A) (A) (A)
                 (A) (A) (A) (A) (A) (A) (A) (A) (A) (A) (A) (A)
                 (A) (A) (A) (A) (A) (A) (A) (A) (A) (A) (A) (A)
                 (A) (A) (A) (A) (A) (A) (A) (A) (A) (A) (A) (A)
                 (A) (A) (A) (A) (A) (A) (A) (A) (A) (A) (A) (A)
                 (A) (A) (A) (A) (A) (A) (A) (A) (A) (A) (A) (A)
                 (A) (A) (A) (A) (A) (A) (A) (A) (A) (A) (A) (A)
                 (A) (A) (A) (A) (A) (A) (A) (A) (A) (A) (A) (A)
                 (A) (A) (A) (A) (A) (A) (A) (A) (A) (A) (A) (A)
                 (A) (A) (A) (A) (A) (A) (A) (A) (A) (A) (A) (A)
                 (A) (A) (A) (A) (A) (A) (A) (A) (A) (A) (A) (A)
                 (A) (A) (A) (A) (A) (A) (A) (A) (A) (A) (A) (A)
                 (A) (A) (A) (A) (A) (A) (A) (A) (A) (A) (A) (A)
                 (A) (A) (A) (A) (A) (A) (A) (A) (A) (A) (A) (A)
                 (A) (A) (A) (A) (A) (A) (A) (A) (A) (A) (A) (A)
                 (A) (A) (A) (A) (A)
 The electronic state is 1-A.
 Alpha  occ. eigenvalues --  -88.92167 -88.84913 -14.41402 -14.40385 -14.40150
 Alpha  occ. eigenvalues --  -14.38138 -14.36731 -14.34928 -10.27350 -10.26359
 Alpha  occ. eigenvalues --  -10.20614 -10.20542 -10.20145  -7.98509  -7.91542
 Alpha  occ. eigenvalues --   -5.95003  -5.94600  -5.94047  -5.87903  -5.87884
 Alpha  occ. eigenvalues --   -5.86898  -1.06952  -0.97989  -0.95514  -0.94386
 Alpha  occ. eigenvalues --   -0.86630  -0.80724  -0.76690  -0.74804  -0.71617
 Alpha  occ. eigenvalues --   -0.65599  -0.62131  -0.59676  -0.57858  -0.54668
 Alpha  occ. eigenvalues --   -0.53390  -0.50873  -0.50533  -0.49329  -0.48268
 Alpha  occ. eigenvalues --   -0.45675  -0.43803  -0.43421  -0.41893  -0.40625
 Alpha  occ. eigenvalues --   -0.39781  -0.38427  -0.37037  -0.35704  -0.30953
 Alpha  occ. eigenvalues --   -0.30239  -0.28726  -0.27490  -0.25703  -0.22148
 Alpha  occ. eigenvalues --   -0.17936  -0.17184
 Alpha virt. eigenvalues --   -0.09786  -0.05081  -0.00809   0.02840   0.04607
 Alpha virt. eigenvalues --    0.05354   0.05891   0.08683   0.09233   0.09993
 Alpha virt. eigenvalues --    0.10609   0.11643   0.12431   0.12976   0.15210
 Alpha virt. eigenvalues --    0.17839   0.19409   0.19961   0.21032   0.21781
 Alpha virt. eigenvalues --    0.23838   0.24928   0.26392   0.28132   0.31606
 Alpha virt. eigenvalues --    0.32102   0.33321   0.33535   0.34377   0.35849
 Alpha virt. eigenvalues --    0.36675   0.37381   0.37588   0.39104   0.40611
 Alpha virt. eigenvalues --    0.40981   0.41661   0.42758   0.44399   0.45803
 Alpha virt. eigenvalues --    0.47087   0.47750   0.48209   0.48658   0.50047
 Alpha virt. eigenvalues --    0.50879   0.52263   0.52636   0.53353   0.54369
 Alpha virt. eigenvalues --    0.55300   0.56260   0.56424   0.57376   0.58570
 Alpha virt. eigenvalues --    0.60118   0.62407   0.63419   0.64920   0.65634
 Alpha virt. eigenvalues --    0.66113   0.67542   0.69444   0.71026   0.71380
 Alpha virt. eigenvalues --    0.71879   0.72754   0.73016   0.73783   0.75749
 Alpha virt. eigenvalues --    0.76241   0.76786   0.78301   0.78590   0.79879
 Alpha virt. eigenvalues --    0.80339   0.81035   0.82077   0.83620   0.84343
 Alpha virt. eigenvalues --    0.85177   0.87158   0.87510   0.88223   0.88557
 Alpha virt. eigenvalues --    0.89262   0.90371   0.91364   0.92195   0.92343
 Alpha virt. eigenvalues --    0.94594   0.97789   0.98255   0.99374   1.00357
 Alpha virt. eigenvalues --    1.02054   1.05351   1.06797   1.10836   1.12300
 Alpha virt. eigenvalues --    1.13137   1.14298   1.15072   1.16412   1.22409
 Alpha virt. eigenvalues --    1.23579   1.24957   1.26571   1.27544   1.29758
 Alpha virt. eigenvalues --    1.31214   1.31547   1.32638   1.33786   1.36731
 Alpha virt. eigenvalues --    1.37245   1.37521   1.38320   1.39284   1.41292
 Alpha virt. eigenvalues --    1.43762   1.44123   1.47243   1.47480   1.48741
 Alpha virt. eigenvalues --    1.49342   1.51043   1.52372   1.55018   1.57907
 Alpha virt. eigenvalues --    1.59253   1.60149   1.60904   1.63805   1.64753
 Alpha virt. eigenvalues --    1.65879   1.67616   1.68957   1.70224   1.70482
 Alpha virt. eigenvalues --    1.71083   1.72362   1.73617   1.74344   1.75492
 Alpha virt. eigenvalues --    1.76565   1.78491   1.79382   1.81348   1.81996
 Alpha virt. eigenvalues --    1.82339   1.83462   1.85999   1.90559   1.91225
 Alpha virt. eigenvalues --    1.93002   1.93925   1.99426   2.00450   2.02284
 Alpha virt. eigenvalues --    2.05186   2.05832   2.06108   2.09017   2.12011
 Alpha virt. eigenvalues --    2.12532   2.13986   2.16091   2.17492   2.18887
 Alpha virt. eigenvalues --    2.21105   2.22577   2.24519   2.25485   2.25975
 Alpha virt. eigenvalues --    2.29721   2.32037   2.35769   2.37444   2.37597
 Alpha virt. eigenvalues --    2.40614   2.43772   2.44772   2.44926   2.47747
 Alpha virt. eigenvalues --    2.48916   2.50853   2.53417   2.55315   2.56897
 Alpha virt. eigenvalues --    2.58284   2.59051   2.62565   2.68322   2.71515
 Alpha virt. eigenvalues --    2.75047   2.76957   2.79002   2.80466   2.82055
 Alpha virt. eigenvalues --    2.85124   2.85914   2.88122   2.88294   2.90039
 Alpha virt. eigenvalues --    2.92260   2.93231   2.95371   2.96554   2.98333
 Alpha virt. eigenvalues --    2.99941   3.00885   3.01732   3.04575   3.06088
 Alpha virt. eigenvalues --    3.07817   3.09128   3.09906   3.11843   3.13474
 Alpha virt. eigenvalues --    3.17818   3.21387   3.23029   3.27941   3.31088
 Alpha virt. eigenvalues --    3.34372   3.35597   3.36631   3.38410   3.39044
 Alpha virt. eigenvalues --    3.39224   3.41990   3.43525   3.45135   3.49654
 Alpha virt. eigenvalues --    3.50541   3.52016   3.54141   3.55842   3.56525
 Alpha virt. eigenvalues --    3.58433   3.60527   3.64058   3.67840   3.67974
 Alpha virt. eigenvalues --    3.70560   3.72453   3.72709   3.75834   3.77722
 Alpha virt. eigenvalues --    3.79760   3.80941   3.82703   3.84225   3.87010
 Alpha virt. eigenvalues --    3.88828   3.91183   3.92194   3.92940   3.95147
 Alpha virt. eigenvalues --    3.97795   4.01242   4.02656   4.04348   4.05661
 Alpha virt. eigenvalues --    4.06863   4.10707   4.11747   4.15176   4.15464
 Alpha virt. eigenvalues --    4.18566   4.20040   4.20884   4.20926   4.22177
 Alpha virt. eigenvalues --    4.22637   4.23609   4.27286   4.29438   4.30261
 Alpha virt. eigenvalues --    4.31997   4.32259   4.33892   4.36282   4.36626
 Alpha virt. eigenvalues --    4.37937   4.39942   4.40708   4.41369   4.42558
 Alpha virt. eigenvalues --    4.44051   4.45190   4.47070   4.47693   4.47837
 Alpha virt. eigenvalues --    4.50299   4.51140   4.53114   4.53300   4.54873
 Alpha virt. eigenvalues --    4.55622   4.56392   4.57335   4.58479   4.58966
 Alpha virt. eigenvalues --    4.61101   4.64757   4.65603   4.68341   4.69459
 Alpha virt. eigenvalues --    4.70467   4.74980   4.76894   4.78449   4.79866
 Alpha virt. eigenvalues --    4.80857   4.83303   4.84136   4.88654   4.90347
 Alpha virt. eigenvalues --    4.95269   4.96522   4.97742   4.99391   5.02500
 Alpha virt. eigenvalues --    5.08249   5.11006   5.12190   5.16591   5.20671
 Alpha virt. eigenvalues --    5.21853   5.26330   5.30285   5.32481   5.36759
 Alpha virt. eigenvalues --    5.37248   5.44622   5.50973   5.53689   5.54103
 Alpha virt. eigenvalues --    5.58942   5.61844   5.63618   5.69023   5.83443
 Alpha virt. eigenvalues --    5.91334   6.05893   6.42882   6.59388   8.39592
 Alpha virt. eigenvalues --    9.91317  10.10678  10.46278  10.97383  11.10755
 Alpha virt. eigenvalues --   11.21559  11.27327  11.35981  11.45036  11.47547
 Alpha virt. eigenvalues --   11.66171  11.98450  12.89532  13.99604  20.80844
          Condensed to atoms (all electrons):
               1          2          3          4          5          6
     1  N    6.557724   0.330433  -0.057453   0.002388  -0.000112   0.000000
     2  N    0.330433   6.528796   0.186379  -0.043500   0.001770   0.000281
     3  N   -0.057453   0.186379   6.632174   0.264100  -0.045938  -0.003156
     4  N    0.002388  -0.043500   0.264100   6.524439   0.409940  -0.023802
     5  C   -0.000112   0.001770  -0.045938   0.409940   4.535037   0.367274
     6  C    0.000000   0.000281  -0.003156  -0.023802   0.367274   4.840868
     7  N   -0.000077   0.000758  -0.011239  -0.003370  -0.016855   0.600758
     8  S    0.000001  -0.000070   0.000746   0.000214   0.003800  -0.108360
     9  C    0.000001  -0.000129   0.002363  -0.044577   0.533815  -0.036328
    10  C   -0.000000   0.000001  -0.000013   0.002499  -0.000993  -0.014667
    11  C    0.000000   0.000000  -0.000000  -0.000009   0.002122   0.000190
    12  N   -0.000000   0.000000  -0.000000   0.000000  -0.000083   0.000004
    13  S    0.000000  -0.000000   0.000000  -0.000000   0.000033  -0.000002
    14  H    0.341938  -0.030883   0.004196  -0.000223   0.000002   0.000000
    15  H    0.321663  -0.072180   0.025896   0.000054   0.000010   0.000018
    16  H   -0.052713   0.346976  -0.073140   0.009362   0.000330  -0.000011
    17  H    0.009035  -0.022008   0.295942  -0.048577  -0.001138  -0.000880
    18  H    0.000082   0.006282  -0.042587   0.339185  -0.038598   0.004583
    19  H   -0.000000   0.000006  -0.000069   0.002437  -0.043963   0.378584
    20  H    0.000001  -0.000003   0.000063  -0.000010   0.000081   0.000665
    21  H   -0.000000  -0.000016   0.000009  -0.012479  -0.045119   0.005430
    22  H   -0.000000  -0.000000  -0.000000  -0.000088  -0.011942   0.000487
    23  H   -0.000000  -0.000000   0.000000  -0.000007   0.000356  -0.000002
               7          8          9         10         11         12
     1  N   -0.000077   0.000001   0.000001  -0.000000   0.000000  -0.000000
     2  N    0.000758  -0.000070  -0.000129   0.000001   0.000000   0.000000
     3  N   -0.011239   0.000746   0.002363  -0.000013  -0.000000  -0.000000
     4  N   -0.003370   0.000214  -0.044577   0.002499  -0.000009   0.000000
     5  C   -0.016855   0.003800   0.533815  -0.000993   0.002122  -0.000083
     6  C    0.600758  -0.108360  -0.036328  -0.014667   0.000190   0.000004
     7  N    6.376394   0.314994   0.001714   0.000034  -0.000019   0.000000
     8  S    0.314994  15.633603   0.000097  -0.000064   0.000002   0.000000
     9  C    0.001714   0.000097   4.976612   0.481439  -0.003314   0.001337
    10  C    0.000034  -0.000064   0.481439   4.867938   0.555722  -0.004462
    11  C   -0.000019   0.000002  -0.003314   0.555722   4.729636   0.515566
    12  N    0.000000   0.000000   0.001337  -0.004462   0.515566   6.239727
    13  S   -0.000000   0.000000   0.000506  -0.004883  -0.169509   0.404068
    14  H    0.000000   0.000000   0.000000   0.000000  -0.000000   0.000000
    15  H    0.000121   0.000020   0.000001  -0.000000   0.000000   0.000000
    16  H   -0.000079   0.000000  -0.000059  -0.000000  -0.000000  -0.000000
    17  H    0.020149  -0.001016  -0.000255   0.000007   0.000000  -0.000000
    18  H   -0.000142   0.000035   0.001128  -0.000281  -0.000005   0.000000
    19  H   -0.055319  -0.003400  -0.017625   0.007298   0.001111  -0.000080
    20  H   -0.022552   0.287594   0.000001  -0.000000  -0.000000   0.000000
    21  H   -0.000029   0.000011   0.344115  -0.030152  -0.010114  -0.000112
    22  H    0.000151   0.000059  -0.048576   0.311185  -0.010995  -0.003306
    23  H    0.000000   0.000000  -0.009160  -0.082561   0.358002  -0.061645
              13         14         15         16         17         18
     1  N    0.000000   0.341938   0.321663  -0.052713   0.009035   0.000082
     2  N   -0.000000  -0.030883  -0.072180   0.346976  -0.022008   0.006282
     3  N    0.000000   0.004196   0.025896  -0.073140   0.295942  -0.042587
     4  N   -0.000000  -0.000223   0.000054   0.009362  -0.048577   0.339185
     5  C    0.000033   0.000002   0.000010   0.000330  -0.001138  -0.038598
     6  C   -0.000002   0.000000   0.000018  -0.000011  -0.000880   0.004583
     7  N   -0.000000   0.000000   0.000121  -0.000079   0.020149  -0.000142
     8  S    0.000000   0.000000   0.000020   0.000000  -0.001016   0.000035
     9  C    0.000506   0.000000   0.000001  -0.000059  -0.000255   0.001128
    10  C   -0.004883   0.000000  -0.000000  -0.000000   0.000007  -0.000281
    11  C   -0.169509  -0.000000   0.000000  -0.000000   0.000000  -0.000005
    12  N    0.404068   0.000000   0.000000  -0.000000  -0.000000   0.000000
    13  S   15.999126  -0.000000   0.000000  -0.000000   0.000000  -0.000000
    14  H   -0.000000   0.461490  -0.030682  -0.003616  -0.000488   0.000007
    15  H    0.000000  -0.030682   0.538595  -0.011504  -0.004565   0.000213
    16  H   -0.000000  -0.003616  -0.011504   0.541358   0.008410  -0.002232
    17  H    0.000000  -0.000488  -0.004565   0.008410   0.473992  -0.000913
    18  H   -0.000000   0.000007   0.000213  -0.002232  -0.000913   0.470223
    19  H   -0.000002   0.000000   0.000000  -0.000001   0.000284  -0.000151
    20  H   -0.000000   0.000000   0.000004   0.000000  -0.000207  -0.000000
    21  H   -0.000077   0.000000   0.000000  -0.000001  -0.000008   0.007373
    22  H    0.000605  -0.000000  -0.000000  -0.000000  -0.000001   0.000014
    23  H    0.030183  -0.000000  -0.000000   0.000000  -0.000000   0.000001
              19         20         21         22         23
     1  N   -0.000000   0.000001  -0.000000  -0.000000  -0.000000
     2  N    0.000006  -0.000003  -0.000016  -0.000000  -0.000000
     3  N   -0.000069   0.000063   0.000009  -0.000000   0.000000
     4  N    0.002437  -0.000010  -0.012479  -0.000088  -0.000007
     5  C   -0.043963   0.000081  -0.045119  -0.011942   0.000356
     6  C    0.378584   0.000665   0.005430   0.000487  -0.000002
     7  N   -0.055319  -0.022552  -0.000029   0.000151   0.000000
     8  S   -0.003400   0.287594   0.000011   0.000059   0.000000
     9  C   -0.017625   0.000001   0.344115  -0.048576  -0.009160
    10  C    0.007298  -0.000000  -0.030152   0.311185  -0.082561
    11  C    0.001111  -0.000000  -0.010114  -0.010995   0.358002
    12  N   -0.000080   0.000000  -0.000112  -0.003306  -0.061645
    13  S   -0.000002  -0.000000  -0.000077   0.000605   0.030183
    14  H    0.000000   0.000000   0.000000  -0.000000  -0.000000
    15  H    0.000000   0.000004   0.000000  -0.000000  -0.000000
    16  H   -0.000001   0.000000  -0.000001  -0.000000   0.000000
    17  H    0.000284  -0.000207  -0.000008  -0.000001  -0.000000
    18  H   -0.000151  -0.000000   0.007373   0.000014   0.000001
    19  H    0.594665  -0.000341  -0.000242   0.003437  -0.000012
    20  H   -0.000341   0.563980  -0.000000  -0.000000   0.000000
    21  H   -0.000242  -0.000000   0.639138   0.006224   0.007674
    22  H    0.003437  -0.000000   0.006224   0.641954   0.010207
    23  H   -0.000012   0.000000   0.007674   0.010207   0.667496
 Mulliken charges:
               1
     1  N   -0.452910
     2  N   -0.232895
     3  N   -0.178272
     4  N   -0.377975
     5  C    0.350172
     6  C   -0.011933
     7  N   -0.205391
     8  S   -0.128267
     9  C   -0.183107
    10  C   -0.088047
    11  C    0.031616
    12  N   -0.091014
    13  S   -0.260047
    14  H    0.258258
    15  H    0.232337
    16  H    0.236920
    17  H    0.272237
    18  H    0.255784
    19  H    0.133382
    20  H    0.170724
    21  H    0.088376
    22  H    0.100586
    23  H    0.079468
 Sum of Mulliken charges =  -0.00000
 Mulliken charges with hydrogens summed into heavy atoms:
               1
     1  N    0.037685
     2  N    0.004025
     3  N    0.093964
     4  N   -0.122192
     5  C    0.350172
     6  C    0.121449
     7  N   -0.205391
     8  S    0.042457
     9  C   -0.094730
    10  C    0.012539
    11  C    0.111085
    12  N   -0.091014
    13  S   -0.260047
 Electronic spatial extent (au):  <R**2>=           5981.5427
 Charge=              0.0000 electrons
 Dipole moment (field-independent basis, Debye):
    X=              9.2279    Y=             -2.5089    Z=              1.1525  Tot=              9.6321
 Quadrupole moment (field-independent basis, Debye-Ang):
   XX=           -108.9559   YY=            -79.3546   ZZ=            -92.4415
   XY=             -2.2869   XZ=              7.0677   YZ=             -3.5982
 Traceless Quadrupole moment (field-independent basis, Debye-Ang):
   XX=            -15.3719   YY=             14.2294   ZZ=              1.1425
   XY=             -2.2869   XZ=              7.0677   YZ=             -3.5982
 Octapole moment (field-independent basis, Debye-Ang**2):
  XXX=            351.8985  YYY=            -20.4423  ZZZ=              1.1846  XYY=             61.0063
  XXY=            -42.3907  XXZ=             36.8327  XZZ=              6.8120  YZZ=             -5.1259
  YYZ=             10.5983  XYZ=            -15.5858
 Hexadecapole moment (field-independent basis, Debye-Ang**3):
 XXXX=          -6759.1201 YYYY=          -1369.3035 ZZZZ=           -103.2045 XXXY=           -138.0696
 XXXZ=            199.5440 YYYX=            -46.6527 YYYZ=            -25.1207 ZZZX=              6.8461
 ZZZY=             -4.4824 XXYY=          -1124.3103 XXZZ=          -1053.1770 YYZZ=           -282.4722
 XXYZ=            -67.9159 YYXZ=             40.9770 ZZXY=            -19.1762
 N-N= 8.942019521042D+02 E-N=-4.903362918068D+03  KE= 1.315281102876D+03
 PrsmSu:  requested number of processors reduced to:  13 ShMem   1 Linda.
 Calling FoFJK, ICntrl=      2127 FMM=F ISym2X=0 I1Cent= 0 IOpClX= 0 NMat=1 NMatS=1 NMatT=0.
 ***** Axes restored to original set *****
 -------------------------------------------------------------------
 Center     Atomic                   Forces (Hartrees/Bohr)
 Number     Number              X              Y              Z
 -------------------------------------------------------------------
      1        7          -0.002216967    0.004309823    0.014027566
      2        7           0.004020655   -0.018637967   -0.042196817
      3        7          -0.018622394    0.015099708    0.036377686
      4        7           0.034266659    0.001781911    0.020376570
      5        6          -0.055885542    0.003948350    0.011084358
      6        6          -0.006794039   -0.002148203   -0.015278659
      7        7           0.027143962   -0.002427962   -0.015145076
      8       16          -0.003812813    0.001740669    0.016077484
      9        6           0.045140045    0.001145699    0.014383912
     10        6          -0.032321184    0.000535658    0.002724738
     11        6          -0.010869872   -0.002678114   -0.025234257
     12        7          -0.091423746   -0.000862001   -0.006327679
     13       16           0.109492543    0.000726184    0.004786715
     14        1           0.010772838   -0.003805251    0.001436747
     15        1          -0.000037935    0.002782412   -0.001170246
     16        1          -0.002446234    0.005588394    0.009824750
     17        1           0.000239571   -0.000628922   -0.014422105
     18        1          -0.006482129   -0.005729779   -0.001111685
     19        1           0.000954974    0.000428140   -0.008937475
     20        1          -0.001610866   -0.000917986   -0.003510599
     21        1          -0.002873156   -0.000523381   -0.003201570
     22        1          -0.005765950    0.000003647    0.002476241
     23        1           0.009131579    0.000268971    0.002959400
 -------------------------------------------------------------------
 Cartesian Forces:  Max     0.109492543 RMS     0.022818627

 GradGradGradGradGradGradGradGradGradGradGradGradGradGradGradGradGradGrad
 Berny optimization.
 FormGI is forming the generalized inverse of G from B-inverse, IUseBI=4.
 Internal  Forces:  Max     0.107650376 RMS     0.016171330
 Search for a local minimum.
 Step number   1 out of a maximum of   99
 All quantities printed in internal units (Hartrees-Bohrs-Radians)
 Mixed Optimization -- RFO/linear search
 Second derivative matrix not updated -- first step.
 ITU=  0
     Eigenvalues ---    0.00480   0.00935   0.01286   0.01352   0.01420
     Eigenvalues ---    0.01525   0.01641   0.01655   0.01697   0.01706
     Eigenvalues ---    0.02019   0.02068   0.02236   0.02533   0.02654
     Eigenvalues ---    0.02697   0.02991   0.03635   0.04390   0.05414
     Eigenvalues ---    0.11675   0.12817   0.15909   0.16000   0.16000
     Eigenvalues ---    0.16000   0.16000   0.16000   0.16000   0.16000
     Eigenvalues ---    0.22000   0.22000   0.22000   0.22000   0.22026
     Eigenvalues ---    0.23157   0.23468   0.25000   0.25000   0.25000
     Eigenvalues ---    0.25000   0.26305   0.30214   0.33743   0.34376
     Eigenvalues ---    0.34970   0.35837   0.38172   0.39801   0.41389
     Eigenvalues ---    0.43015   0.43409   0.43954   0.44606   0.45254
     Eigenvalues ---    0.45514   0.45805   0.48634   0.53183   0.53498
     Eigenvalues ---    0.54169   0.66704   0.74424
 RFO step:  Lambda=-5.29190057D-02 EMin= 4.80405628D-03
 Linear search not attempted -- first point.
 Maximum step size (   0.300) exceeded in Quadratic search.
    -- Step size scaled by   0.829
 Iteration  1 RMS(Cart)=  0.12685434 RMS(Int)=  0.00431434
 Iteration  2 RMS(Cart)=  0.00946248 RMS(Int)=  0.00057625
 Iteration  3 RMS(Cart)=  0.00002497 RMS(Int)=  0.00057605
 Iteration  4 RMS(Cart)=  0.00000006 RMS(Int)=  0.00057605
 Variable       Old X    -DE/DX   Delta X   Delta X   Delta X     New X
                                 (Linear)    (Quad)   (Total)
    R1        2.69709  -0.00822   0.00000  -0.01461  -0.01461   2.68248
    R2        1.92436  -0.00530   0.00000  -0.00881  -0.00881   1.91555
    R3        1.93210   0.00186   0.00000   0.00313   0.00313   1.93522
    R4        2.64683   0.01478   0.00000   0.02412   0.02412   2.67096
    R5        1.93869  -0.00170   0.00000  -0.00289  -0.00289   1.93579
    R6        2.61270   0.00784   0.00000   0.01206   0.01206   2.62476
    R7        1.94351  -0.00843   0.00000  -0.01448  -0.01448   1.92904
    R8        2.64352  -0.02965   0.00000  -0.04812  -0.04812   2.59540
    R9        1.91682  -0.00174   0.00000  -0.00286  -0.00286   1.91396
   R10        2.87538  -0.03130   0.00000  -0.07310  -0.07310   2.80228
   R11        2.56492   0.01998   0.00000   0.02819   0.02819   2.59310
   R12        2.45999  -0.02176   0.00000  -0.02506  -0.02506   2.43493
   R13        2.07766  -0.00698   0.00000  -0.01484  -0.01484   2.06282
   R14        3.15525   0.01369   0.00000   0.02518   0.02518   3.18043
   R15        2.53502   0.00251   0.00000   0.00660   0.00660   2.54161
   R16        2.74116  -0.02773   0.00000  -0.05290  -0.05290   2.68826
   R17        2.05723   0.00117   0.00000   0.00242   0.00242   2.05965
   R18        2.55878   0.01478   0.00000   0.02061   0.02061   2.57939
   R19        2.04337   0.00474   0.00000   0.00956   0.00956   2.05294
   R20        2.56783   0.00800   0.00000   0.01135   0.01135   2.57918
   R21        2.06700   0.00176   0.00000   0.00369   0.00369   2.07069
   R22        2.84770   0.10765   0.00000   0.11197   0.11197   2.95967
    A1        1.94625  -0.01544   0.00000  -0.06269  -0.06290   1.88336
    A2        1.91596   0.00128   0.00000   0.00233   0.00214   1.91810
    A3        1.87385   0.00511   0.00000   0.01484   0.01442   1.88827
    A4        1.87425  -0.01440   0.00000  -0.04892  -0.04976   1.82449
    A5        1.95136   0.00291   0.00000  -0.00528  -0.00698   1.94439
    A6        1.88569  -0.00165   0.00000  -0.02947  -0.03052   1.85516
    A7        1.97718  -0.02449   0.00000  -0.08006  -0.08167   1.89551
    A8        1.96079  -0.00105   0.00000  -0.03261  -0.03402   1.92677
    A9        1.93000   0.01064   0.00000   0.01972   0.01650   1.94650
   A10        2.15315   0.01165   0.00000   0.03526   0.03526   2.18841
   A11        2.09247  -0.01189   0.00000  -0.04160  -0.04159   2.05088
   A12        2.02834   0.00027   0.00000   0.00598   0.00598   2.03433
   A13        2.07537   0.00774   0.00000   0.02120   0.02120   2.09657
   A14        2.13812  -0.01889   0.00000  -0.05169  -0.05170   2.08642
   A15        2.06969   0.01114   0.00000   0.03050   0.03050   2.10019
   A16        2.17761  -0.00432   0.00000  -0.01313  -0.01317   2.16444
   A17        2.02324  -0.00355   0.00000  -0.01572  -0.01575   2.00748
   A18        2.08231   0.00786   0.00000   0.02873   0.02869   2.11100
   A19        2.02096   0.00773   0.00000   0.02117   0.02117   2.04213
   A20        1.70479  -0.00767   0.00000  -0.02987  -0.02987   1.67492
   A21        2.23446   0.00205   0.00000   0.00623   0.00623   2.24069
   A22        2.07635  -0.00531   0.00000  -0.01979  -0.01979   2.05656
   A23        1.97234   0.00326   0.00000   0.01358   0.01358   1.98592
   A24        2.23322  -0.01553   0.00000  -0.04718  -0.04718   2.18604
   A25        2.08840   0.00357   0.00000   0.00728   0.00728   2.09568
   A26        1.96155   0.01195   0.00000   0.03991   0.03991   2.00146
   A27        2.17664  -0.01771   0.00000  -0.05381  -0.05381   2.12283
   A28        2.00672   0.01861   0.00000   0.06490   0.06490   2.07162
   A29        2.09982  -0.00090   0.00000  -0.01109  -0.01109   2.08874
   A30        1.96854   0.05860   0.00000   0.16040   0.16040   2.12894
    D1        3.09226  -0.00305   0.00000  -0.00624  -0.00588   3.08639
    D2        1.02671   0.00628   0.00000   0.06322   0.06320   1.08991
    D3        1.01783  -0.00055   0.00000   0.01313   0.01315   1.03098
    D4       -1.04772   0.00878   0.00000   0.08259   0.08223  -0.96549
    D5        3.13598  -0.00184   0.00000  -0.02520  -0.02451   3.11147
    D6        0.93332   0.00470   0.00000   0.04107   0.03904   0.97235
    D7       -1.03965  -0.00744   0.00000  -0.07560  -0.07357  -1.11322
    D8        3.04087  -0.00090   0.00000  -0.00933  -0.01002   3.03084
    D9       -3.11637   0.00365   0.00000   0.01874   0.01888  -3.09749
   D10       -0.12589   0.00385   0.00000   0.01605   0.01617  -0.10973
   D11       -0.89744  -0.00851   0.00000  -0.07279  -0.07291  -0.97036
   D12        2.09304  -0.00832   0.00000  -0.07549  -0.07563   2.01740
   D13       -0.03164   0.00173   0.00000   0.02215   0.02210  -0.00954
   D14        3.11279   0.00115   0.00000   0.01537   0.01544   3.12823
   D15       -3.02724   0.00257   0.00000   0.02870   0.02863  -2.99861
   D16        0.11719   0.00199   0.00000   0.02192   0.02197   0.13916
   D17        0.05093   0.00235   0.00000   0.03306   0.03289   0.08382
   D18       -3.09963   0.00109   0.00000   0.01729   0.01726  -3.08237
   D19       -3.09338   0.00286   0.00000   0.03943   0.03947  -3.05392
   D20        0.03924   0.00160   0.00000   0.02367   0.02384   0.06307
   D21        3.12685   0.00049   0.00000   0.00551   0.00545   3.13230
   D22       -0.00602   0.00023   0.00000   0.00274   0.00271  -0.00331
   D23       -0.01191  -0.00009   0.00000  -0.00124  -0.00121  -0.01312
   D24        3.13840  -0.00034   0.00000  -0.00400  -0.00395   3.13445
   D25       -3.12551  -0.00124   0.00000  -0.01394  -0.01407  -3.13958
   D26        0.02534   0.00011   0.00000   0.00254   0.00267   0.02801
   D27        3.08675   0.00136   0.00000   0.01612   0.01612   3.10287
   D28       -3.13112  -0.00015   0.00000  -0.00170  -0.00171  -3.13283
   D29        0.00408   0.00003   0.00000   0.00030   0.00028   0.00436
   D30        0.00218   0.00006   0.00000   0.00079   0.00080   0.00299
   D31        3.13738   0.00024   0.00000   0.00279   0.00280   3.14017
   D32        3.13644   0.00007   0.00000   0.00092   0.00093   3.13737
   D33       -0.00420   0.00005   0.00000   0.00065   0.00066  -0.00354
   D34        0.00086  -0.00007   0.00000  -0.00088  -0.00089  -0.00003
   D35       -3.13978  -0.00010   0.00000  -0.00115  -0.00116  -3.14094
   D36       -3.14066   0.00001   0.00000   0.00013   0.00014  -3.14052
   D37       -0.00007   0.00004   0.00000   0.00045   0.00045   0.00038
         Item               Value     Threshold  Converged?
 Maximum Force            0.107650     0.000450     NO 
 RMS     Force            0.016171     0.000300     NO 
 Maximum Displacement     0.454369     0.001800     NO 
 RMS     Displacement     0.128682     0.001200     NO 
 Predicted change in Energy=-2.897742D-02
 GradGradGradGradGradGradGradGradGradGradGradGradGradGradGradGradGradGrad

                          Input orientation:                          
 ---------------------------------------------------------------------
 Center     Atomic      Atomic             Coordinates (Angstroms)
 Number     Number       Type             X           Y           Z
 ---------------------------------------------------------------------
      1          7           0        1.107877   -0.110040   -0.148298
      2          7           0        2.525226   -0.068044   -0.082237
      3          7           0        2.811028    0.119456    1.289216
      4          7           0        4.189790    0.133907    1.456607
      5          6           0        4.843849    0.245933    2.659089
      6          6           0        4.070502    0.376769    3.917590
      7          7           0        2.785722    0.305492    3.984793
      8         16           0        2.089115    0.481785    5.506697
      9          6           0        6.215697    0.231308    2.687063
     10          6           0        7.077434    0.343483    3.813352
     11          6           0        8.441508    0.330542    3.766003
     12          7           0        9.198057    0.448635    4.895822
     13         16           0       10.763553    0.436227    4.850846
     14          1           0        0.843562   -0.191110   -1.123532
     15          1           0        0.715884    0.762381    0.217700
     16          1           0        2.897985    0.752990   -0.568349
     17          1           0        2.373626   -0.614817    1.847392
     18          1           0        4.761388   -0.080531    0.648459
     19          1           0        4.672741    0.518331    4.816953
     20          1           0        0.814076    0.393236    5.087931
     21          1           0        6.742917    0.126523    1.738914
     22          1           0        6.659252    0.453837    4.809915
     23          1           0        8.933170    0.222917    2.792672
 ---------------------------------------------------------------------
                    Distance matrix (angstroms):
                    1          2          3          4          5
     1  N    0.000000
     2  N    1.419508   0.000000
     3  N    2.240499   1.413409   0.000000
     4  N    3.483305   2.275873   1.388961   0.000000
     5  C    4.686749   3.604090   2.454569   1.373429   0.000000
     6  C    5.054262   4.310957   2.925890   2.475813   1.482905
     7  N    4.479985   4.092447   2.702107   2.896994   2.448862
     8  S    5.769926   5.632823   4.294134   4.575706   3.969012
     9  C    5.851975   4.623658   3.682154   2.372300   1.372212
    10  C    7.178855   6.005628   4.962224   3.733183   2.516097
    11  C    8.324542   7.068961   6.154781   4.842425   3.765045
    12  N    9.550197   8.341145   7.342349   6.083583   4.899305
    13  S   10.886777   9.615593   8.719415   7.404500   6.315292
    14  H    1.013665   1.981776   3.128695   4.237924   5.522819
    15  H    1.024076   2.013278   2.439493   3.741376   4.823607
    16  H    2.031194   1.024378   1.964555   2.480418   3.802611
    17  H    2.416547   2.011321   1.020802   2.002936   2.738931
    18  H    3.739496   2.352551   2.062637   1.012823   2.038630
    19  H    6.144657   5.381238   4.008740   3.416569   2.181709
    20  H    5.268558   5.465478   4.300350   4.964798   4.707445
    21  H    5.947369   4.598191   3.957528   2.568697   2.113632
    22  H    7.464555   6.426172   5.226467   4.176754   2.822227
    23  H    8.366324   7.029332   6.304895   4.928757   4.091567
                    6          7          8          9         10
     6  C    0.000000
     7  N    1.288509   0.000000
     8  S    2.542083   1.683013   0.000000
     9  C    2.477341   3.668015   5.004174   0.000000
    10  C    3.008923   4.295303   5.269713   1.422568   0.000000
    11  C    4.373878   5.660071   6.588307   2.475518   1.364956
    12  N    5.220529   6.478310   7.135218   3.717568   2.383241
    13  S    6.758065   8.025766   8.699316   5.040530   3.830466
    14  H    6.012366   5.487585   6.779685   6.599918   7.969930
    15  H    5.009125   4.322495   5.471561   6.052085   7.319392
    16  H    4.651880   4.576457   6.134656   4.677294   6.069168
    17  H    2.854531   2.363318   3.830665   4.022746   5.187402
    18  H    3.372486   3.896588   5.573125   2.523523   3.944668
    19  H    1.091598   2.073314   2.674362   2.645661   2.611577
    20  H    3.460387   2.260974   1.344964   5.913366   6.391924
    21  H    3.457030   4.553613   5.998356   1.089921   2.112408
    22  H    2.739309   3.963214   4.623034   2.180082   1.086367
    23  H    4.993462   6.262514   7.367092   2.719537   2.121339
                   11         12         13         14         15
    11  C    0.000000
    12  N    1.364845   0.000000
    13  S    2.565141   1.566191   0.000000
    14  H    9.050329  10.316951  11.597111   0.000000
    15  H    8.512473   9.691775  11.069240   1.650561   0.000000
    16  H    7.049519   8.345100   9.556944   2.328134   2.319380
    17  H    6.433813   7.549616   8.973087   3.368534   2.701977
    18  H    4.840593   6.164749   7.345276   4.301342   4.154775
    19  H    3.917060   4.526539   6.091460   7.103188   6.072018
    20  H    7.741391   8.386365   9.952394   6.238959   4.885188
    21  H    2.652532   4.012174   5.093678   6.564821   6.248482
    22  H    2.069152   2.540263   4.104543   8.333307   7.517131
    23  H    1.095760   2.131749   2.762587   8.997213   8.628168
                   16         17         18         19         20
    16  H    0.000000
    17  H    2.825182   0.000000
    18  H    2.376479   2.724759   0.000000
    19  H    5.675059   3.922785   4.212224   0.000000
    20  H    6.038676   3.734898   5.959416   3.870191   0.000000
    21  H    4.527629   4.433063   2.271215   3.730075   6.814558
    22  H    6.569806   5.318378   4.604905   1.987570   5.852098
    23  H    6.928268   6.680042   4.700372   4.726123   8.439012
                   21         22         23
    21  H    0.000000
    22  H    3.089528   0.000000
    23  H    2.432470   3.048491   0.000000
 Stoichiometry    C5H10N6S2
 Framework group  C1[X(C5H10N6S2)]
 Deg. of freedom    63
 Full point group                 C1      NOp   1
 Largest Abelian subgroup         C1      NOp   1
 Largest concise Abelian subgroup C1      NOp   1
                         Standard orientation:                         
 ---------------------------------------------------------------------
 Center     Atomic      Atomic             Coordinates (Angstroms)
 Number     Number       Type             X           Y           Z
 ---------------------------------------------------------------------
      1          7           0        4.944470   -1.838195   -0.084492
      2          7           0        3.585538   -2.247209   -0.052618
      3          7           0        2.853243   -1.040135    0.014025
      4          7           0        1.497785   -1.343332    0.009760
      5          6           0        0.477192   -0.424273    0.014818
      6          6           0        0.782388    1.026702    0.037986
      7          7           0        1.972927    1.514081   -0.035045
      8         16           0        2.116588    3.190339    0.010268
      9          6           0       -0.824368   -0.858397   -0.006266
     10          6           0       -2.015273   -0.080376    0.004951
     11          6           0       -3.284460   -0.582476   -0.007880
     12          7           0       -4.377611    0.234548    0.009238
     13         16           0       -5.837409   -0.332704   -0.003867
     14          1           0        5.521094   -2.671861   -0.079638
     15          1           0        5.164052   -1.292728    0.753948
     16          1           0        3.370070   -2.761874    0.806476
     17          1           0        3.102843   -0.429150   -0.764714
     18          1           0        1.235298   -2.310740   -0.135267
     19          1           0       -0.089312    1.680921    0.098989
     20          1           0        3.460435    3.216818   -0.037727
     21          1           0       -1.001882   -1.933509   -0.029746
     22          1           0       -1.956815    1.004141    0.029444
     23          1           0       -3.419988   -1.669557   -0.031893
 ---------------------------------------------------------------------
 Rotational constants (GHZ):           0.8526415           0.1997605           0.1620537
 Standard basis: 6-31G(2df,p) (6D, 7F)
 There are   461 symmetry adapted cartesian basis functions of A   symmetry.
 There are   422 symmetry adapted basis functions of A   symmetry.
   422 basis functions,   690 primitive gaussians,   461 cartesian basis functions
    57 alpha electrons       57 beta electrons
       nuclear repulsion energy       890.5362703472 Hartrees.
 NAtoms=   23 NActive=   23 NUniq=   23 SFac= 1.00D+00 NAtFMM=   60 NAOKFM=F Big=F
 Integral buffers will be    131072 words long.
 Raffenetti 2 integral format.
 Two-electron integral symmetry is turned on.
 One-electron integrals computed using PRISM.
 PrsmSu:  requested number of processors reduced to:  13 ShMem   1 Linda.
 NBasis=   422 RedAO= T EigKep=  1.63D-04  NBF=   422
 NBsUse=   422 1.00D-06 EigRej= -1.00D+00 NBFU=   422
 Initial guess from the checkpoint file:  "NNNNCqCdNSrdCCdCNdS.chk"
 B after Tr=    -0.000000   -0.000000   -0.000000
         Rot=    0.999981   -0.000174    0.000093    0.006172 Ang=  -0.71 deg.
 ExpMin= 1.17D-01 ExpMax= 2.19D+04 ExpMxC= 3.30D+03 IAcc=2 IRadAn=         4 AccDes= 0.00D+00
 Harris functional with IExCor=  402 and IRadAn=       4 diagonalized for initial guess.
 HarFok:  IExCor=  402 AccDes= 0.00D+00 IRadAn=         4 IDoV= 1 UseB2=F ITyADJ=14
 ICtDFT=  3500011 ScaDFX=  1.000000  1.000000  1.000000  1.000000
 FoFCou: FMM=F IPFlag=           0 FMFlag=      100000 FMFlg1=           0
         NFxFlg=           0 DoJE=T BraDBF=F KetDBF=T FulRan=T
         wScrn=  0.000000 ICntrl=       500 IOpCl=  0 I1Cent=   200000004 NGrid=           0
         NMat0=    1 NMatS0=      1 NMatT0=    0 NMatD0=    1 NMtDS0=    0 NMtDT0=    0
 Petite list used in FoFCou.
 Requested convergence on RMS density matrix=1.00D-08 within 128 cycles.
 Requested convergence on MAX density matrix=1.00D-06.
 Requested convergence on             energy=1.00D-06.
 No special actions if energy rises.
 Integral accuracy reduced to 1.0D-05 until final iterations.
 Initial convergence to 1.0D-05 achieved.  Increase integral accuracy.
 SCF Done:  E(RB3LYP) =  -1321.25484737     A.U. after   16 cycles
            NFock= 16  Conv=0.91D-08     -V/T= 2.0046
 PrsmSu:  requested number of processors reduced to:  13 ShMem   1 Linda.
 Calling FoFJK, ICntrl=      2127 FMM=F ISym2X=0 I1Cent= 0 IOpClX= 0 NMat=1 NMatS=1 NMatT=0.
 ***** Axes restored to original set *****
 -------------------------------------------------------------------
 Center     Atomic                   Forces (Hartrees/Bohr)
 Number     Number              X              Y              Z
 -------------------------------------------------------------------
      1        7          -0.006271646    0.002288518    0.003747907
      2        7           0.004425684   -0.013170169   -0.022190367
      3        7          -0.007069053    0.017755221    0.019952718
      4        7           0.020455082   -0.001348009    0.013524533
      5        6          -0.027780993    0.002837162    0.003697721
      6        6           0.000710022   -0.001922555   -0.006270911
      7        7           0.009216173   -0.001647920   -0.008608330
      8       16          -0.002915125    0.000749873    0.006601556
      9        6           0.026326329    0.000543308    0.006238556
     10        6          -0.018288689    0.000668777    0.003707373
     11        6           0.020228698   -0.000389371   -0.002505929
     12        7          -0.048318246   -0.000255196   -0.004381168
     13       16           0.032393390   -0.000574689   -0.004091628
     14        1           0.001340833   -0.003196622   -0.000108627
     15        1           0.000332223    0.001486055   -0.002507019
     16        1          -0.002644436    0.005934149    0.006042424
     17        1           0.001407206   -0.005065055   -0.007375733
     18        1          -0.004713668   -0.005040052   -0.001274171
     19        1           0.001581300    0.001372604   -0.002281210
     20        1          -0.000213058   -0.000471691   -0.000802406
     21        1          -0.002839060   -0.000325323   -0.001685107
     22        1          -0.000248618   -0.000195637    0.000184033
     23        1           0.002885651   -0.000033378    0.000385785
 -------------------------------------------------------------------
 Cartesian Forces:  Max     0.048318246 RMS     0.010993821

 GradGradGradGradGradGradGradGradGradGradGradGradGradGradGradGradGradGrad
 Berny optimization.
 Using GEDIIS/GDIIS optimizer.
 FormGI is forming the generalized inverse of G from B-inverse, IUseBI=4.
 Internal  Forces:  Max     0.032500868 RMS     0.006026978
 Search for a local minimum.
 Step number   2 out of a maximum of   99
 All quantities printed in internal units (Hartrees-Bohrs-Radians)
 Mixed Optimization -- RFO/linear search
 Update second derivatives using D2CorX and points    1    2
 DE= -2.71D-02 DEPred=-2.90D-02 R= 9.36D-01
 TightC=F SS=  1.41D+00  RLast= 3.55D-01 DXNew= 5.0454D-01 1.0665D+00
 Trust test= 9.36D-01 RLast= 3.55D-01 DXMaxT set to 5.05D-01
 ITU=  1  0
 Use linear search instead of GDIIS.
     Eigenvalues ---    0.00481   0.00932   0.01283   0.01383   0.01420
     Eigenvalues ---    0.01520   0.01609   0.01658   0.01697   0.01705
     Eigenvalues ---    0.02027   0.02058   0.02236   0.02541   0.02654
     Eigenvalues ---    0.02697   0.02991   0.04188   0.04956   0.05826
     Eigenvalues ---    0.11135   0.12068   0.15513   0.15961   0.15999
     Eigenvalues ---    0.16000   0.16000   0.16000   0.16000   0.16191
     Eigenvalues ---    0.20596   0.22000   0.22000   0.22020   0.22044
     Eigenvalues ---    0.23255   0.23731   0.24770   0.25000   0.25000
     Eigenvalues ---    0.26302   0.29202   0.33010   0.34068   0.34372
     Eigenvalues ---    0.34975   0.35910   0.37168   0.39621   0.41880
     Eigenvalues ---    0.43012   0.43434   0.43927   0.44073   0.44681
     Eigenvalues ---    0.45256   0.46122   0.48558   0.52613   0.53982
     Eigenvalues ---    0.55215   0.66722   0.71995
 RFO step:  Lambda=-1.57940375D-02 EMin= 4.81114258D-03
 Quartic linear search produced a step of  0.42347.
 Iteration  1 RMS(Cart)=  0.13109490 RMS(Int)=  0.00696378
 Iteration  2 RMS(Cart)=  0.01313785 RMS(Int)=  0.00168351
 Iteration  3 RMS(Cart)=  0.00010449 RMS(Int)=  0.00168286
 Iteration  4 RMS(Cart)=  0.00000059 RMS(Int)=  0.00168286
 Variable       Old X    -DE/DX   Delta X   Delta X   Delta X     New X
                                 (Linear)    (Quad)   (Total)
    R1        2.68248   0.00452  -0.00618   0.01859   0.01241   2.69489
    R2        1.91555   0.00001  -0.00373   0.00250  -0.00123   1.91432
    R3        1.93522   0.00024   0.00132  -0.00014   0.00118   1.93640
    R4        2.67096   0.01602   0.01022   0.04010   0.05032   2.72127
    R5        1.93579   0.00093  -0.00123   0.00365   0.00242   1.93822
    R6        2.62476   0.00865   0.00511   0.02034   0.02545   2.65020
    R7        1.92904  -0.00099  -0.00613   0.00099  -0.00514   1.92390
    R8        2.59540  -0.01202  -0.02038  -0.02146  -0.04183   2.55357
    R9        1.91396  -0.00058  -0.00121  -0.00089  -0.00210   1.91185
   R10        2.80228  -0.01418  -0.03095  -0.04072  -0.07168   2.73061
   R11        2.59310   0.01210   0.01194   0.02238   0.03432   2.62742
   R12        2.43493  -0.00614  -0.01061  -0.00541  -0.01603   2.41890
   R13        2.06282  -0.00083  -0.00628   0.00096  -0.00533   2.05749
   R14        3.18043   0.00657   0.01066   0.01478   0.02544   3.20588
   R15        2.54161   0.00048   0.00279   0.00051   0.00330   2.54492
   R16        2.68826  -0.01224  -0.02240  -0.02752  -0.04993   2.63834
   R17        2.05965   0.00012   0.00102  -0.00022   0.00081   2.06046
   R18        2.57939   0.00756   0.00873   0.01293   0.02166   2.60105
   R19        2.05294   0.00024   0.00405  -0.00179   0.00226   2.05519
   R20        2.57918  -0.01591   0.00481  -0.04318  -0.03838   2.54081
   R21        2.07069   0.00096   0.00156   0.00262   0.00418   2.07486
   R22        2.95967   0.03250   0.04742   0.02780   0.07522   3.03489
    A1        1.88336  -0.00210  -0.02663   0.00063  -0.02615   1.85720
    A2        1.91810  -0.00032   0.00090  -0.00439  -0.00362   1.91447
    A3        1.88827   0.00083   0.00610  -0.00008   0.00571   1.89398
    A4        1.82449   0.00283  -0.02107   0.01903  -0.00293   1.82156
    A5        1.94439  -0.00150  -0.00295  -0.02793  -0.03284   1.91155
    A6        1.85516  -0.00409  -0.01292  -0.04890  -0.06321   1.79196
    A7        1.89551  -0.00555  -0.03458  -0.02932  -0.06872   1.82679
    A8        1.92677  -0.00332  -0.01441  -0.06893  -0.09054   1.83623
    A9        1.94650   0.00013   0.00699  -0.05086  -0.05374   1.89276
   A10        2.18841   0.00473   0.01493   0.01713   0.03205   2.22046
   A11        2.05088  -0.00707  -0.01761  -0.03937  -0.05698   1.99390
   A12        2.03433   0.00233   0.00253   0.02077   0.02328   2.05761
   A13        2.09657   0.00178   0.00898   0.00316   0.01212   2.10869
   A14        2.08642  -0.00488  -0.02189  -0.01055  -0.03245   2.05397
   A15        2.10019   0.00310   0.01291   0.00736   0.02026   2.12044
   A16        2.16444  -0.00493  -0.00558  -0.02509  -0.03076   2.13368
   A17        2.00748  -0.00015  -0.00667  -0.00155  -0.00830   1.99918
   A18        2.11100   0.00507   0.01215   0.02634   0.03839   2.14939
   A19        2.04213   0.00340   0.00897   0.01159   0.02055   2.06268
   A20        1.67492  -0.00188  -0.01265  -0.00607  -0.01871   1.65621
   A21        2.24069  -0.00113   0.00264  -0.00838  -0.00575   2.23493
   A22        2.05656  -0.00284  -0.00838  -0.01764  -0.02603   2.03053
   A23        1.98592   0.00398   0.00575   0.02606   0.03180   2.01772
   A24        2.18604  -0.00557  -0.01998  -0.01898  -0.03896   2.14708
   A25        2.09568   0.00261   0.00308   0.01291   0.01599   2.11167
   A26        2.00146   0.00295   0.01690   0.00608   0.02298   2.02444
   A27        2.12283  -0.01031  -0.02279  -0.04480  -0.06759   2.05524
   A28        2.07162   0.00800   0.02748   0.03365   0.06113   2.13275
   A29        2.08874   0.00231  -0.00469   0.01115   0.00646   2.09520
   A30        2.12894  -0.00940   0.06792  -0.09442  -0.02650   2.10244
    D1        3.08639   0.00062  -0.00249   0.10648   0.10448  -3.09232
    D2        1.08991   0.00455   0.02676   0.16615   0.19270   1.28261
    D3        1.03098   0.00102   0.00557   0.10865   0.11444   1.14542
    D4       -0.96549   0.00495   0.03482   0.16832   0.20265  -0.76284
    D5        3.11147  -0.00339  -0.01038  -0.11567  -0.12307   2.98840
    D6        0.97235   0.00221   0.01653   0.01066   0.02268   0.99503
    D7       -1.11322  -0.00560  -0.03115  -0.16037  -0.18701  -1.30023
    D8        3.03084  -0.00000  -0.00424  -0.03403  -0.04126   2.98959
    D9       -3.09749   0.00160   0.00800  -0.01603  -0.00994  -3.10743
   D10       -0.10973   0.00166   0.00685  -0.02637  -0.02127  -0.13100
   D11       -0.97036  -0.00622  -0.03088  -0.15473  -0.18386  -1.15422
   D12        2.01740  -0.00615  -0.03203  -0.16507  -0.19519   1.82221
   D13       -0.00954   0.00133   0.00936   0.05347   0.06266   0.05312
   D14        3.12823   0.00110   0.00654   0.04582   0.05237  -3.10259
   D15       -2.99861   0.00201   0.01212   0.06847   0.08058  -2.91803
   D16        0.13916   0.00178   0.00930   0.06081   0.07028   0.20944
   D17        0.08382   0.00169   0.01393   0.09865   0.11230   0.19612
   D18       -3.08237   0.00128   0.00731   0.08460   0.09192  -2.99045
   D19       -3.05392   0.00194   0.01671   0.10640   0.12311  -2.93081
   D20        0.06307   0.00152   0.01009   0.09236   0.10273   0.16580
   D21        3.13230   0.00030   0.00231   0.00941   0.01161  -3.13927
   D22       -0.00331   0.00008   0.00115   0.00264   0.00379   0.00048
   D23       -0.01312   0.00007  -0.00051   0.00174   0.00122  -0.01190
   D24        3.13445  -0.00015  -0.00167  -0.00504  -0.00660   3.12785
   D25       -3.13958  -0.00057  -0.00596  -0.01510  -0.02132   3.12229
   D26        0.02801  -0.00005   0.00113   0.00017   0.00156   0.02957
   D27        3.10287   0.00091   0.00683   0.03231   0.03913  -3.14119
   D28       -3.13283  -0.00011  -0.00072  -0.00361  -0.00439  -3.13722
   D29        0.00436   0.00001   0.00012   0.00056   0.00062   0.00498
   D30        0.00299   0.00007   0.00034   0.00282   0.00322   0.00620
   D31        3.14017   0.00020   0.00118   0.00699   0.00823  -3.13479
   D32        3.13737   0.00004   0.00039   0.00136   0.00177   3.13914
   D33       -0.00354   0.00003   0.00028   0.00097   0.00125  -0.00229
   D34       -0.00003  -0.00008  -0.00038  -0.00263  -0.00300  -0.00303
   D35       -3.14094  -0.00009  -0.00049  -0.00302  -0.00352   3.13873
   D36       -3.14052   0.00002   0.00006   0.00071   0.00078  -3.13974
   D37        0.00038   0.00004   0.00019   0.00112   0.00131   0.00169
         Item               Value     Threshold  Converged?
 Maximum Force            0.032501     0.000450     NO 
 RMS     Force            0.006027     0.000300     NO 
 Maximum Displacement     0.464577     0.001800     NO 
 RMS     Displacement     0.135680     0.001200     NO 
 Predicted change in Energy=-1.025346D-02
 GradGradGradGradGradGradGradGradGradGradGradGradGradGradGradGradGradGrad

                          Input orientation:                          
 ---------------------------------------------------------------------
 Center     Atomic      Atomic             Coordinates (Angstroms)
 Number     Number       Type             X           Y           Z
 ---------------------------------------------------------------------
      1          7           0        1.199088   -0.150728   -0.233458
      2          7           0        2.606681   -0.008377   -0.054284
      3          7           0        2.764596    0.234473    1.356314
      4          7           0        4.148432    0.170913    1.574858
      5          6           0        4.796492    0.298012    2.753779
      6          6           0        4.062943    0.461666    3.987910
      7          7           0        2.797134    0.285071    4.058703
      8         16           0        2.044477    0.477028    5.566912
      9          6           0        6.185855    0.248232    2.735798
     10          6           0        7.064742    0.352312    3.815593
     11          6           0        8.432939    0.293412    3.677407
     12          7           0        9.180120    0.408388    4.789287
     13         16           0       10.782765    0.351306    4.702730
     14          1           0        1.055924   -0.370532   -1.211921
     15          1           0        0.733210    0.738550   -0.028143
     16          1           0        2.917582    0.875748   -0.470989
     17          1           0        2.329033   -0.563236    1.815053
     18          1           0        4.682064   -0.136460    0.772166
     19          1           0        4.679842    0.701996    4.852269
     20          1           0        0.807189    0.198132    5.114177
     21          1           0        6.652395    0.109235    1.760154
     22          1           0        6.693382    0.486249    4.828974
     23          1           0        8.917076    0.157820    2.701310
 ---------------------------------------------------------------------
                    Distance matrix (angstroms):
                    1          2          3          4          5
     1  N    0.000000
     2  N    1.426073   0.000000
     3  N    2.264194   1.440035   0.000000
     4  N    3.474492   2.250166   1.402428   0.000000
     5  C    4.697475   3.574124   2.466890   1.351292   0.000000
     6  C    5.137767   4.322149   2.943233   2.432008   1.444976
     7  N    4.600687   4.127837   2.703058   2.829933   2.387556
     8  S    5.895173   5.670056   4.278614   4.522923   3.939461
     9  C    5.817517   4.545426   3.688927   2.346243   1.390371
    10  C    7.145192   5.914419   4.955118   3.682209   2.505066
    11  C    8.235334   6.925451   6.125443   4.774172   3.751913
    12  N    9.446558   8.175817   7.278359   5.975520   4.834426
    13  S   10.791889   9.466092   8.689257   7.336927   6.295769
    14  H    1.013015   1.968788   3.143473   4.197964   5.492320
    15  H    1.024701   2.017046   2.509451   3.815176   4.944029
    16  H    2.015762   1.025660   1.942595   2.489432   3.776667
    17  H    2.375571   1.969613   1.018084   1.976584   2.776925
    18  H    3.625273   2.237552   2.038505   1.011709   2.031908
    19  H    6.221528   5.373722   4.013532   3.362420   2.140203
    20  H    5.373313   5.476659   4.237250   4.867383   4.636377
    21  H    5.812110   4.435518   3.910723   2.511567   2.113599
    22  H    7.498082   6.386861   5.249583   4.143124   2.817811
    23  H    8.262894   6.887816   6.298246   4.899901   4.123302
                    6          7          8          9         10
     6  C    0.000000
     7  N    1.280027   0.000000
     8  S    2.562751   1.696478   0.000000
     9  C    2.473882   3.637975   5.021809   0.000000
    10  C    3.008728   4.275055   5.318434   1.396149   0.000000
    11  C    4.384242   5.648694   6.664562   2.436812   1.376418
[...]
 7,-0.00001995,-0.00037002,-0.00133251,0.00085600,0.00081312,0.00011575
 ,-0.00001197,-0.00017653,-0.00004051,0.00000059,0.00002064,0.00003505,
 0.00001760,0.00001576,0.00001619,-0.00001339,-0.00003188,0.00003901,0.
 00002599,0.00016795,-0.00001974,-0.00003455,-0.00008624,0.00003754,0.0
 0003339,0.00008023,-0.00004641,-0.00003369,-0.00005307,0.00003702,-0.0
 0000168,-0.00000431,0.13416246,0.13517855,0.14401538,0.10592497,-0.196
 94794,0.01237902,0.01710284,-0.02507808,0.00267937,-0.00276799,-0.0097
 8409,0.00126698,-0.00096604,0.00086550,0.00027286,0.00046336,0.0002673
 0,0.00016563,-0.00001693,-0.00007616,-0.00012594,0.00000252,-0.0001790
 3,-0.00004678,-0.00000339,-0.00000769,-0.00020668,-0.00011085,-0.00019
 529,0.00005708,0.00003095,0.00012020,-0.00009465,-0.00004126,-0.000104
 42,0.00009590,0.00002691,0.00007213,-0.00007591,-0.00000430,0.00000431
 ,-0.14680352,-0.11310230,0.22021337,-0.35019908,-0.06740149,-0.1203362
 1,0.01144274,0.00438226,0.00565651,0.00075493,0.00234395,-0.00168000,0
 .00020288,-0.00065053,-0.00021429,-0.00004202,-0.00000427,0.00010600,-
 0.00000017,-0.00000533,0.00000836,-0.00001197,0.00001444,-0.00000273,0
 .00000119,-0.00000329,-0.00000974,-0.00006696,0.00002593,-0.00003169,0
 .00006604,0.00001113,0.00001333,-0.00005805,-0.00001160,-0.00003231,0.
 00007045,0.00001289,0.00002682,-0.00005767,0.00000092,0.00000452,-0.02
 274729,0.00424703,-0.01367389,0.35769802,-0.01713155,-0.01918033,-0.00
 663880,-0.01881547,-0.01387666,-0.02458948,0.00195662,-0.00010932,0.00
 280703,0.00041522,-0.00070471,0.00042195,-0.00056659,-0.00006061,0.000
 02305,0.00008566,0.00004987,0.00006987,-0.00001316,-0.00003276,-0.0000
 1699,-0.00000707,0.00001316,0.00003373,0.00011412,-0.00003665,-0.00007
 042,-0.00009438,-0.00000496,-0.00000308,0.00005883,0.00001003,0.000025
 39,-0.00006077,-0.00001802,-0.00002137,0.00004508,-0.00000237,-0.00000
 455,-0.02018277,-0.00554573,-0.00649876,0.05739099,0.03653248,-0.12603
 780,-0.03212969,-0.11698066,-0.02771996,-0.00732371,-0.02215673,-0.001
 71623,-0.00308633,-0.00064909,0.00065258,-0.00012492,-0.00092068,0.000
 34789,0.00029072,0.00032641,0.00007858,-0.00002034,-0.00002710,-0.0000
 7230,0.00002673,-0.00001659,-0.00000741,-0.00002481,-0.00003455,-0.000
 15590,-0.00006154,-0.00010026,0.00013722,0.00002796,0.00009320,-0.0001
 2254,-0.00003635,-0.00009867,0.00013335,0.00004103,0.00007266,-0.00010
 212,-0.00000367,0.00000941,0.02367014,0.00556400,0.01143369,0.13018861
 ,0.03378471,0.12758450,0.00044706,-0.01132985,-0.00354742,-0.28658180,
 0.21848127,-0.00880251,-0.00071929,-0.01314245,0.00818149,-0.00041756,
 0.00136489,-0.00391625,0.00138077,0.00116572,0.00113729,0.00001571,-0.
 00009212,-0.00008475,-0.00006709,-0.00003866,-0.00004838,0.00003256,-0
 .00002196,-0.00007429,-0.00053533,-0.00024621,-0.00006596,0.00028166,0
 .00008306,0.00015572,-0.00026132,-0.00005865,-0.00017290,0.00026144,0.
 00003304,0.00013560,-0.00019720,-0.00000605,0.00001253,-0.00101164,0.0
 0239771,0.00115035,0.00388378,-0.00228061,0.00081791,0.28345959,0.0158
 1774,-0.01454701,-0.01174036,0.15721429,-0.14063251,0.00304201,0.02236
 035,-0.01769679,0.01316254,-0.00129382,-0.00109382,0.00269197,-0.00011
 148,-0.00010880,0.00019657,0.00010449,0.00003221,0.00003653,-0.0000899
 1,-0.00003679,-0.00014423,-0.00001011,-0.00001525,-0.00002011,-0.00000
 527,-0.00002880,0.00001942,-0.00000835,0.00002494,-0.00003134,-0.00001
 346,-0.00000009,-0.00000846,0.00001259,-0.00001480,0.00000342,-0.00002
 383,-0.00000087,0.00000611,-0.00046869,-0.00094671,0.00038251,0.000751
 09,0.00124867,0.00159994,-0.19397202,0.17615892,0.02758453,-0.02687226
 ,-0.01310085,-0.00399204,0.00844245,-0.04994050,-0.02696354,0.01873087
 ,-0.00808476,-0.00458361,0.00619306,-0.00747787,0.00228569,0.00247920,
 0.00223339,-0.00000588,-0.00007096,-0.00006643,-0.00004576,0.00005812,
 0.00021964,0.00012219,-0.00016810,-0.00023834,-0.00157567,-0.00051052,
 -0.00067895,0.00091861,0.00013773,0.00061232,-0.00079283,-0.00019506,-
 0.00051097,0.00077874,0.00017637,0.00039812,-0.00055890,-0.00001198,0.
 00004717,0.00109186,-0.00250102,-0.00067591,0.00080321,0.00089196,0.00
 132382,0.00455603,-0.00769827,0.07622523,0.00108397,0.00109915,-0.0010
 4082,0.00527841,-0.00715219,0.00362557,-0.16898665,-0.14711975,-0.0437
 5914,-0.03820744,-0.01681948,-0.02162013,-0.00533597,0.00162918,0.0034
 6087,0.00014713,-0.00004140,0.00026997,-0.00003463,-0.00004983,-0.0002
 6994,0.00001139,0.00007041,0.00002515,-0.00057673,-0.00037065,-0.00160
 839,-0.00051997,0.00011339,0.00013383,0.00008811,-0.00003853,-0.000105
 39,-0.00011073,-0.00002141,-0.00001009,0.00000521,0.00000436,-0.000003
 51,-0.00026595,0.00060534,-0.00048276,-0.00091274,-0.00038620,0.000071
 55,-0.00044472,0.00001279,0.00044693,0.20971396,0.00451435,0.00392991,
 -0.00107494,-0.01014422,-0.02568737,0.00141416,-0.19308558,-0.24761557
 ,-0.03865345,0.02556605,0.01028473,0.00480769,0.00239094,0.00018673,-0
 .00120014,-0.00024070,0.00019202,-0.00002371,0.00012515,-0.00001324,0.
 00016144,0.00003311,-0.00007469,-0.00004878,0.00102026,0.00005617,0.00
 092741,-0.00005140,-0.00033496,-0.00011442,0.00024998,0.00013308,0.000
 20754,-0.00023684,0.00000288,-0.00016059,0.00020710,-0.00002013,-0.000
 01195,0.00043008,-0.00009473,-0.00084590,-0.00085517,0.00090806,0.0017
 3237,-0.00159845,-0.00221891,0.00104758,0.17019974,0.25999463,0.000835
 65,0.00162747,0.00663590,0.02503683,0.03948265,-0.01380824,-0.07748016
 ,-0.06493089,-0.05081720,-0.00494207,-0.00787773,-0.00601346,-0.003354
 71,0.00026421,0.00192474,-0.00059847,0.00026796,0.00079214,0.00037374,
 0.00055161,0.00099701,0.00026791,-0.00029073,-0.00048323,-0.00083142,-
 0.00025435,-0.00134656,0.00016411,0.00024619,0.00040614,-0.00038988,-0
 .00016479,-0.00029090,0.00036311,0.00004003,0.00018759,-0.00030602,0.0
 0000844,0.00001742,0.00011418,-0.00119235,-0.00003417,-0.00111972,0.00
 078580,-0.00031853,0.00033616,-0.00131209,0.00057463,0.06025770,0.0319
 0743,0.06183184,0.00125651,-0.00141445,-0.00050522,0.00100671,-0.00200
 770,0.00344182,-0.02918405,0.01798932,0.02251050,-0.12853665,0.0699129
 4,0.12634847,0.01146229,-0.01025752,-0.01913535,-0.00287841,-0.0019370
 8,-0.00221674,-0.00020123,0.00019670,0.00051869,0.00010483,-0.00015561
 ,-0.00012509,0.00069941,-0.00119633,-0.00391974,0.00001179,0.00074800,
 0.00090440,-0.00043816,-0.00013601,-0.00043972,0.00045270,0.00007077,0
 .00033507,-0.00028022,0.00001647,-0.00000883,0.00032074,-0.00035276,-0
 .00052041,-0.00005566,-0.00047110,-0.00016486,0.00045179,-0.00031408,-
 0.00004253,-0.00094536,0.00144821,0.00105246,0.14728051,-0.00109850,-0
 .00076261,0.00102918,0.00001772,0.00110262,-0.00431324,0.02204593,-0.0
 1114209,-0.00629180,0.05108235,-0.06039338,-0.09840081,0.00109700,-0.0
 0960776,-0.02019754,-0.00309722,0.00271890,-0.00040417,0.00064553,0.00
 038707,0.00024984,0.00015164,-0.00012960,0.00013589,0.00343162,-0.0014
 6080,0.00175004,-0.00068106,-0.00105023,0.00013257,0.00071164,0.000283
 90,0.00051401,-0.00071256,0.00004615,-0.00044427,0.00057815,-0.0000793
 4,-0.00002915,0.00036103,-0.00035683,0.00039001,-0.00020874,0.00075512
 ,-0.00024199,-0.00070954,-0.00006923,-0.00020883,-0.00156414,0.0002101
 8,0.00077112,-0.07140345,0.07853972,0.00100968,-0.00025344,0.00074259,
 -0.00145512,0.00298515,0.00213893,-0.00594784,0.00628967,0.01200401,0.
 12326312,-0.12731083,-0.30141243,0.01209743,-0.00424423,-0.02075067,-0
 .00367393,-0.00271981,-0.00020556,0.00006342,0.00032289,0.00050223,-0.
 00012099,0.00020025,0.00007816,0.00273032,0.00116023,0.00188419,-0.001
 41001,-0.00022768,-0.00030220,0.00081804,0.00021240,0.00046544,-0.0007
 7896,-0.00012630,-0.00038142,0.00057733,-0.00000371,-0.00006409,0.0001
 0264,-0.00037583,0.00006237,0.00029878,-0.00104195,0.00044066,0.000338
 64,-0.00011756,-0.00073004,0.00064148,-0.00004288,0.00000953,-0.128210
 89,0.12569381,0.30552530,0.00003933,-0.00000371,0.00001371,0.00005483,
 -0.00000093,0.00001829,-0.00012242,0.00003356,-0.00015015,-0.00172642,
 0.00074704,0.00252266,0.01017858,0.00500054,0.00563399,-0.13414048,-0.
 09077378,-0.07294200,-0.02471527,-0.03038685,-0.00724664,-0.00052147,0
 .00135538,-0.00342028,-0.00078619,-0.00009653,-0.00069898,-0.00173258,
 0.00070436,0.00092585,-0.00023029,0.00001065,0.00004912,0.00005138,-0.
 00005310,0.00001027,0.00004321,0.00001071,0.00001355,0.00000453,-0.000
 00036,-0.00000734,0.00000521,-0.00001892,0.00000671,-0.00001399,-0.000
 01632,-0.00000316,-0.00000873,0.00003600,0.00016927,0.00038885,0.00012
 076,0.00067128,0.15561166,0.00000319,0.00001292,-0.00012011,0.00008075
 ,-0.00011810,-0.00004168,-0.00015665,0.00021122,0.00009741,0.00223596,
 0.00076704,-0.00171144,-0.01200468,-0.00227774,-0.00421093,-0.08779143
 ,-0.15187356,-0.09294527,-0.01831773,0.01028242,-0.00864807,0.00249920
 ,-0.00335692,0.00396349,0.00135257,-0.00024240,0.00078731,-0.00092590,
 -0.00022819,-0.00146333,0.00053162,0.00028700,0.00074501,-0.00031781,-
 0.00012043,-0.00012902,0.00014014,-0.00000086,0.00000008,-0.00001594,-
 0.00001331,-0.00002726,-0.00000351,0.00000934,-0.00000603,-0.00002031,
 -0.00003934,0.00001217,-0.00005148,0.00003215,0.00001851,-0.00031243,0
 .00017027,-0.00058280,0.11193544,0.14629157,-0.00007322,0.00008816,-0.
 00006835,0.00005161,0.00000594,-0.00000561,0.00015207,-0.00026841,0.00
 096138,0.00468148,-0.00209854,-0.00250832,-0.01598168,-0.01724609,-0.0
 1253888,-0.07310818,-0.09006436,-0.12774330,0.01414600,0.00121317,0.01
 532530,-0.00169614,0.00475447,0.00163631,-0.00023827,0.00048872,-0.000
 42636,-0.00090194,-0.00038268,-0.00078329,0.00061937,0.00042937,0.0007
 7237,-0.00032662,-0.00001606,-0.00023589,0.00019748,-0.00000603,-0.000
 00768,-0.00000099,-0.00001484,0.00000930,-0.00000247,0.00002748,0.0000
 1084,-0.00006791,-0.00004676,-0.00005111,-0.00004694,0.00002215,-0.000
 15347,-0.00105551,-0.00041039,-0.00073503,0.07371022,0.10350404,0.1258
 1965,-0.00000516,0.00000500,0.00001461,-0.00001264,0.00002436,0.000007
 00,0.00003264,0.00000213,0.00006824,-0.00004717,-0.00006192,-0.0000098
 6,0.00002950,-0.00042375,0.00021044,0.00062211,-0.00023678,0.00171990,
 -0.01031011,0.00104783,0.00507568,-0.19680890,-0.10681794,-0.00359395,
 0.00003724,0.00007054,0.00004145,-0.00001029,-0.00005041,-0.00001825,0
 .00001895,0.00001398,0.00000912,-0.00001588,-0.00000258,-0.00000484,0.
 00000732,-0.00000102,0.00000255,0.00000254,-0.00000148,0.00000264,0.00
 000159,-0.00000372,-0.00000041,0.00000291,0.00000418,-0.00000847,0.000
 01388,-0.00001152,-0.00001555,0.00000655,0.00001264,0.00003627,0.00032
 182,0.00022714,-0.00012512,0.20612583,0.00000980,-0.00001855,-0.000005
 53,-0.00001708,-0.00000205,-0.00000246,-0.00003355,0.00000004,-0.00007
 449,-0.00002098,-0.00000530,0.00015021,-0.00013439,0.00106479,-0.00003
 554,0.00141511,0.00124783,-0.00410380,0.01463846,0.00231922,0.00037825
 ,-0.12258863,-0.07423675,-0.01150426,0.00032820,-0.00006450,-0.0000179
 8,-0.00025487,-0.00002193,-0.00020431,0.00021349,0.00005630,0.00015192
 ,-0.00023164,-0.00004821,-0.00010049,0.00016873,0.00000756,-0.00001303
 ,-0.00000178,0.00000002,-0.00000039,-0.00000514,0.00000981,-0.00000033
 ,-0.00000878,-0.00000240,0.00002174,-0.00001993,0.00003050,-0.00001354
 ,0.00001508,-0.00005322,-0.00001432,0.00036012,-0.00025362,-0.00020320
 ,0.10613887,0.07005711,-0.00002363,0.00001738,0.00003478,-0.00006890,0
 .00004404,-0.00002674,0.00002677,-0.00005505,0.00016811,0.00004749,-0.
 00009278,-0.00012088,0.00105280,0.00002736,0.00086223,0.00340810,-0.00
 294753,-0.00419553,0.02640590,0.01229842,-0.00891850,-0.02766098,-0.02
 457826,-0.01605585,-0.00007115,-0.00019665,-0.00038542,-0.00008024,-0.
 00004583,-0.00012078,0.00009971,0.00003784,0.00009740,-0.00013696,-0.0
 0002455,-0.00005394,0.00010514,0.00000528,0.00000461,0.00001229,-0.000
 00706,0.00001121,0.00000212,0.00000189,-0.00000289,0.00000101,0.000014
 67,-0.00003495,0.00002384,-0.00004792,-0.00012576,-0.00003253,0.000047
 74,-0.00002191,0.00016241,-0.00007359,-0.00055786,-0.00338657,0.015550
 21,0.02947914,0.00004392,-0.00006453,-0.00001876,-0.00003493,0.0001164
 9,0.00009664,0.00056145,-0.00024870,-0.00053383,0.00107356,0.00132476,
 0.00209650,-0.00911738,0.01117298,0.02949509,-0.00456136,-0.00159399,-
 0.00169501,-0.00063388,0.00067682,0.00102926,-0.00027790,-0.00004562,0
 .00054011,-0.08225606,0.02530737,0.07344296,0.00953531,-0.00762438,-0.
 02139164,0.00071848,-0.00068711,-0.00222758,0.00013694,0.00033144,0.00
 083557,-0.00030151,0.00000407,0.00014684,-0.00005819,0.00004115,-0.000
 04846,0.00002397,-0.00003763,-0.00000525,0.00003674,0.00005064,-0.0000
 0858,0.00000213,0.00000409,0.00006493,-0.00106461,-0.00085686,-0.00116
 933,0.00005545,0.00008895,0.00007034,-0.00001754,0.00002837,0.00010662
 ,0.08920334,-0.00001760,-0.00003157,0.00005434,0.00004165,-0.00010392,
 -0.00000585,0.00066779,-0.00064536,0.00040744,-0.00119283,-0.00334909,
 0.00239908,-0.00093612,0.00317026,-0.00475146,-0.00019289,0.00588776,-
 0.00226701,0.00039743,0.00033182,-0.00145740,0.00034051,-0.00053444,0.
 00072586,0.02546734,-0.06614224,-0.08236581,0.00423264,0.00053158,-0.0
 0722384,0.00016302,-0.00271913,0.00087019,0.00027555,0.00025135,0.0004
 0158,-0.00032298,-0.00008216,0.00003835,0.00006430,0.00000988,0.000047
 91,-0.00002274,0.00002321,-0.00000294,-0.00000496,-0.00001948,0.000045
 25,-0.00008069,0.00010306,0.00005697,-0.00035912,0.00076643,0.00016386
 ,-0.00004229,-0.00009802,0.00026517,0.00006601,-0.00007275,0.00002189,
 -0.02732456,0.05786549,-0.00002036,0.00004800,0.00000515,-0.00002747,0
 .00001310,-0.00004572,-0.00014848,0.00002905,0.00029240,-0.00247286,0.
 00196610,0.00034823,0.00035610,-0.00370840,-0.00424228,0.00031486,-0.0
 0174297,0.00200432,0.00023345,-0.00023828,0.00033959,-0.00010902,0.000
 22801,-0.00033052,0.07630703,-0.08264378,-0.26728081,0.00614086,-0.008
 35002,-0.01997893,0.00230845,0.00138640,0.00035147,-0.00035443,0.00021
 586,0.00054922,-0.00021993,-0.00001203,-0.00005723,0.00000403,-0.00000
 581,0.00000740,-0.00000073,0.00000752,0.00000135,-0.00002237,-0.000026
 36,-0.00003365,-0.00001162,0.00000063,0.00005259,0.00110827,0.00018102
 ,0.00058394,-0.00012086,0.00017659,-0.00002337,-0.00001640,0.00002332,
 -0.00002967,-0.07936319,0.09467495,0.28719887,-0.00001126,0.00001687,0
 .00002174,-0.00001582,0.00001023,-0.00002976,-0.00001354,0.00006008,0.
 00009283,-0.00013205,-0.00006151,0.00008710,0.00094061,0.00053744,0.00
 101691,-0.00149843,-0.00072994,-0.00106739,-0.00003679,0.00027254,0.00
 053231,-0.00012971,0.00001072,-0.00004119,0.00938277,-0.00670796,-0.02
 039997,-0.07125988,0.01883300,0.06125125,-0.00666718,0.01015634,0.0318
 7654,0.00278768,0.00067431,0.00018143,0.00010513,-0.00036057,-0.000883
 80,0.00001606,-0.00001087,0.00001273,-0.00000229,0.00000675,0.00000465
 ,-0.00000648,-0.00000135,-0.00000436,0.00001573,-0.00001066,-0.0000039
 7,0.00019421,0.00007231,0.00013776,-0.00272483,0.00101134,0.00015902,0
 .00000896,0.00000402,0.00001438,-0.00280355,-0.00087447,-0.00287938,0.
 07636714,-0.00000463,-0.00001296,-0.00001151,-0.00004037,-0.00001899,-
 0.00000026,0.00012990,0.00008561,-0.00001474,-0.00027106,-0.00036797,0
 .00006599,0.00055398,-0.00242385,0.00041350,0.00099785,0.00029800,0.00
 003381,-0.00052827,0.00010131,0.00021755,0.00008547,-0.00013576,-0.000
 00329,0.00255584,0.00167984,-0.00668630,0.01931220,-0.06830992,-0.0799
 9239,0.00023613,0.00671248,-0.00345730,-0.00035155,-0.00580420,0.00234
 060,-0.00018015,0.00051429,-0.00024594,0.00000537,0.00000073,0.0000053
 6,-0.00000521,0.00000848,-0.00000645,-0.00000519,0.00000521,-0.0000125
 0,-0.00002112,0.00000133,-0.00000064,-0.00008314,0.00013268,0.00005611
 ,0.00098819,0.00050254,0.00003008,-0.00001220,-0.00000193,-0.00001184,
 -0.00098412,0.00468998,-0.00221739,-0.02230828,0.05614380,-0.00001290,
 0.00002633,0.00000347,-0.00001576,0.00003542,-0.00001386,-0.00001781,0
 .00003315,0.00009684,-0.00040584,-0.00023318,-0.00018338,0.00103477,0.
 00135516,-0.00012270,0.00038261,-0.00170852,-0.00088479,0.00033641,0.0
 0085304,0.00059209,-0.00008859,-0.00012345,0.00006896,0.00650544,-0.00
 590819,-0.01370172,0.06370135,-0.07996829,-0.29233727,0.00184771,-0.00
 446996,-0.00605009,-0.00226386,0.00194073,0.00019234,-0.00045594,-0.00
 013478,0.00009731,0.00001643,-0.00001566,0.00000703,-0.00000422,0.0000
 0503,0.00000436,-0.00002057,-0.00000887,-0.00002187,-0.00000414,0.0000
 0654,-0.00003632,0.00012120,0.00006214,0.00016007,0.00069609,0.0006441
 5,0.00127065,-0.00000747,0.00001488,-0.00001272,-0.00219267,-0.0022074
 6,-0.00023754,-0.07010099,0.09167013,0.31030019,0.00001228,-0.00001721
 ,-0.00001143,0.00000955,0.00000626,0.00002523,0.00000963,-0.00003806,-
 0.00002996,-0.00007330,0.00001906,0.00000102,0.00024869,-0.00027572,-0
 .00049138,-0.00001515,0.00041462,0.00043356,-0.00001749,-0.00017347,-0
 .00018242,0.00003570,0.00001662,-0.00002287,0.00115520,0.00078821,0.00
 177817,-0.00655939,0.00858445,0.02595430,-0.08901497,0.02657207,0.0805
 3934,0.00265397,-0.00923114,-0.02464846,0.00607119,0.00018455,-0.00079
 652,-0.00002107,0.00001069,-0.00001160,0.00000309,-0.00000332,-0.00000
 440,0.00000239,0.00000050,-0.00000245,-0.00001030,0.00000947,0.0000059
 5,-0.00005253,0.00000377,-0.00001911,-0.00003218,-0.00018842,-0.000162
 57,-0.00000413,-0.00000347,-0.00000760,-0.00026438,-0.00034501,-0.0010
 0595,-0.00451647,-0.00006968,0.00094874,0.09037964,-0.00000002,-0.0000
 0351,0.00000855,0.00000303,-0.00003249,-0.00000239,-0.00005265,0.00001
 222,-0.00000748,0.00018315,0.00014218,0.00006542,-0.00045024,-0.000068
 30,0.00041349,0.00005575,0.00029349,-0.00027246,0.00000956,-0.00022089
 ,-0.00000047,-0.00003174,0.00008478,0.00002929,0.00064219,-0.00250952,
 0.00148539,-0.00209720,0.00435636,-0.00203083,0.02729949,-0.06881318,-
 0.06779508,-0.00016499,0.01024702,-0.01684547,0.00102210,-0.00364695,0
 .00273023,0.00001341,0.00000179,0.00000802,-0.00000361,0.00000390,0.00
 000165,0.00001011,0.00000164,0.00001301,0.00000245,-0.00000583,0.00000
 872,0.00000327,-0.00000795,-0.00002304,0.00009004,0.00005603,-0.000071
 40,0.00001065,-0.00001197,0.00001436,0.00032039,0.00016732,-0.00000553
 ,-0.00060035,0.00619930,-0.00186834,-0.02626477,0.05375455,-0.00001115
 ,0.00001926,0.00001232,0.00001337,-0.00002113,-0.00003462,-0.00006398,
 0.00000290,0.00004516,0.00012805,0.00008481,-0.00002249,-0.00002224,0.
 00017222,0.00026299,-0.00018363,-0.00019345,-0.00000374,-0.00002911,0.
 00012982,0.00007351,0.00000535,-0.00004840,-0.00003237,-0.00037450,0.0
 0117660,0.00042984,-0.00239197,-0.00272183,-0.00257781,0.08185982,-0.0
 6773041,-0.24841291,0.00077061,-0.01570687,-0.02908798,0.00179307,0.00
 277765,0.00315008,0.00001647,-0.00000902,0.00000898,-0.00000028,0.,0.0
 0000483,0.00000059,-0.00000128,0.00001186,0.00000599,-0.00001027,-0.00
 000168,0.00003656,-0.00001519,0.00000593,-0.00001402,0.00001077,0.0000
 3272,-0.00000100,0.00000312,0.00000592,0.00072945,0.00010888,0.0005251
 6,0.00002216,-0.00217256,0.00080895,-0.08228959,0.08414436,0.27479538\
 \0.00000680,0.00002760,0.00005621,0.00003072,-0.00004850,-0.00004038,0
 .00002441,-0.00002421,-0.00001853,-0.00010065,0.00000821,-0.00006198,-
 0.00005831,0.00001919,0.00008555,0.00011589,0.00003241,-0.00005495,-0.
 00003983,-0.00003223,0.00002009,-0.00003939,-0.00000156,0.00001425,0.0
 0011452,0.00000781,-0.00000270,-0.00014576,-0.00001845,-0.00003162,0.0
 0011140,0.00000749,0.00001190,-0.00011342,-0.00000217,0.00001803,0.000
 09872,-0.00000371,-0.00002265,0.00000445,0.00000297,-0.00001286,-0.000
 00525,-0.00000889,-0.00000581,-0.00001007,0.00002786,0.00001538,-0.000
 00663,-0.00001602,0.00001334,0.00002510,0.00000371,-0.00002207,-0.0000
 0285,-0.00000686,0.00000624,-0.00000402,0.00001569,0.00002397,-0.00001
 947,0.00000114,-0.00000654,0.00002440,0.00000543,0.00000551,-0.0000107
 3,0.00000310,0.00000961\\\@


 WHEN ALL ELSE FAILS, TRY THE BOSS'S SUGGESTION.
 Job cpu time:       0 days  3 hours 43 minutes 26.5 seconds.
 Elapsed time:       0 days  0 hours 55 minutes 52.8 seconds.
 File lengths (MBytes):  RWF=    348 Int=      0 D2E=      0 Chk=     15 Scr=      1
 Normal termination of Gaussian 16 at Wed May 17 16:35:50 2023.
### All Done ###
