### Starting Gaussian ###
 Entering Gaussian System, Link 0=g16
 Initial command:
 /cluster/software/gaussian/gaussian-16-A.03/avx2/g16/l1.exe "/local/scratch/linjian/Gau-15598.inp" -scrdir="/local/scratch/linjian/"
 Entering Link 1 = /cluster/software/gaussian/gaussian-16-A.03/avx2/g16/l1.exe PID=     15599.
  
 Copyright (c) 1988,1990,1992,1993,1995,1998,2003,2009,2016,
            Gaussian, Inc.  All Rights Reserved.
  
 This is part of the Gaussian(R) 16 program.  It is based on
 the Gaussian(R) 09 system (copyright 2009, Gaussian, Inc.),
 the Gaussian(R) 03 system (copyright 2003, Gaussian, Inc.),
 the Gaussian(R) 98 system (copyright 1998, Gaussian, Inc.),
 the Gaussian(R) 94 system (copyright 1995, Gaussian, Inc.),
 the Gaussian 92(TM) system (copyright 1992, Gaussian, Inc.),
 the Gaussian 90(TM) system (copyright 1990, Gaussian, Inc.),
 the Gaussian 88(TM) system (copyright 1988, Gaussian, Inc.),
 the Gaussian 86(TM) system (copyright 1986, Carnegie Mellon
 University), and the Gaussian 82(TM) system (copyright 1983,
 Carnegie Mellon University). Gaussian is a federally registered
 trademark of Gaussian, Inc.
  
 This software contains proprietary and confidential information,
 including trade secrets, belonging to Gaussian, Inc.
  
 This software is provided under written license and may be
 used, copied, transmitted, or stored only in accord with that
 written license.
  
 The following legend is applicable only to US Government
 contracts under FAR:
  
                    RESTRICTED RIGHTS LEGEND
  
 Use, reproduction and disclosure by the US Government is
 subject to restrictions as set forth in subparagraphs (a)
 and (c) of the Commercial Computer Software - Restricted
 Rights clause in FAR 52.227-19.
  
 Gaussian, Inc.
 340 Quinnipiac St., Bldg. 40, Wallingford CT 06492
  
  
 ---------------------------------------------------------------
 Warning -- This program may not be used in any manner that
 competes with the business of Gaussian, Inc. or will provide
 assistance to any competitor of Gaussian, Inc.  The licensee
 of this program is prohibited from giving any competitor of
 Gaussian, Inc. access to this program.  By using this program,
 the user acknowledges that Gaussian, Inc. is engaged in the
 business of creating and licensing software in the field of
 computational chemistry and represents and warrants to the
 licensee that it is not a competitor of Gaussian, Inc. and that
 it will not use this program in any manner prohibited above.
 ---------------------------------------------------------------
  

 Cite this work as:
 Gaussian 16, Revision A.03,
 M. J. Frisch, G. W. Trucks, H. B. Schlegel, G. E. Scuseria, 
 M. A. Robb, J. R. Cheeseman, G. Scalmani, V. Barone, 
 G. A. Petersson, H. Nakatsuji, X. Li, M. Caricato, A. V. Marenich, 
 J. Bloino, B. G. Janesko, R. Gomperts, B. Mennucci, H. P. Hratchian, 
 J. V. Ortiz, A. F. Izmaylov, J. L. Sonnenberg, D. Williams-Young, 
 F. Ding, F. Lipparini, F. Egidi, J. Goings, B. Peng, A. Petrone, 
 T. Henderson, D. Ranasinghe, V. G. Zakrzewski, J. Gao, N. Rega, 
 G. Zheng, W. Liang, M. Hada, M. Ehara, K. Toyota, R. Fukuda, 
 J. Hasegawa, M. Ishida, T. Nakajima, Y. Honda, O. Kitao, H. Nakai, 
 T. Vreven, K. Throssell, J. A. Montgomery, Jr., J. E. Peralta, 
 F. Ogliaro, M. J. Bearpark, J. J. Heyd, E. N. Brothers, K. N. Kudin, 
 V. N. Staroverov, T. A. Keith, R. Kobayashi, J. Normand, 
 K. Raghavachari, A. P. Rendell, J. C. Burant, S. S. Iyengar, 
 J. Tomasi, M. Cossi, J. M. Millam, M. Klene, C. Adamo, R. Cammi, 
 J. W. Ochterski, R. L. Martin, K. Morokuma, O. Farkas, 
 J. B. Foresman, and D. J. Fox, Gaussian, Inc., Wallingford CT, 2016.
 
 ******************************************
 Gaussian 16:  ES64L-G16RevA.03 25-Dec-2016
                19-May-2023 
 ******************************************
 %chk=NtCN1CdCCdCCdCC12[N]NNdNNNNS2.chk
 %NProcShared=20
 Will use up to   20 processors via shared memory.
 -----------------------------
 # opt freq b3lyp/6-31g(2df,p)
 -----------------------------
 1/18=20,19=15,26=3,38=1/1,3;
 2/9=110,12=2,17=6,18=5,40=1/2;
 3/5=1,6=6,7=104,11=2,25=1,30=1,71=1,74=-5/1,2,3;
 4//1;
 5/5=2,38=5/2;
 6/7=2,8=2,9=2,10=2,28=1/1;
 7//1,2,3,16;
 1/18=20,19=15,26=3/3(2);
 2/9=110/2;
 99//99;
 2/9=110/2;
 3/5=1,6=6,7=104,11=2,25=1,30=1,71=1,74=-5/1,2,3;
 4/5=5,16=3,69=1/1;
 5/5=2,38=5/2;
 7//1,2,3,16;
 1/18=20,19=15,26=3/3(-5);
 2/9=110/2;
 6/7=2,8=2,9=2,10=2,19=2,28=1/1;
 99/9=1/99;
 -------------------
 Title Card Required
 -------------------
 Symbolic Z-matrix:
 Charge =  0 Multiplicity = 2
 N                     1.74332   0.05991   0.17589 
 C                     2.90715   0.00768   0.13489 
 N                     4.47924  -0.36436  -0.27676 
 C                     4.38662  -1.07857  -1.37644 
 C                     5.58802  -0.83411  -1.98112 
 C                     6.4111   -1.51843  -2.78168 
 C                     7.69442  -1.16347  -2.40868 
 C                     7.92341  -2.25129  -1.48793 
 C                     7.40918  -1.54644  -0.26288 
 C                     6.12287  -0.02154   0.40849 
 N                     4.95247   0.83104   1.26121 
 N                     4.53947   2.1481    2.16152 
 N                     5.09096   3.35307   1.97105 
 N                     6.28687   3.41667   2.32781 
 N                     6.64274   2.57556   3.34955 
 N                     7.20065   1.29843   3.09954 
 N                     6.20358   0.28756   3.36622 
 S                     6.16441  -0.99855   2.25159 
 H                     3.5756   -1.68524  -1.61485 
 H                     6.12999  -0.01687  -1.55233 
 H                     6.0379   -2.56987  -2.86765 
 H                     8.1561   -0.26081  -1.80686 
 H                     8.0677   -2.84771  -2.59536 
 H                     8.65798  -1.47108  -0.29724 
 H                     4.08502   2.0781    3.10239 
 H                     6.68224   3.02684   4.25364 
 H                     7.92078   1.1087    3.7857 
 H                     5.28942   0.76613   3.39368 
 
 Add virtual bond connecting atoms C10        and N3         Dist= 3.43D+00.
 Add virtual bond connecting atoms C10        and H20        Dist= 3.71D+00.

 GradGradGradGradGradGradGradGradGradGradGradGradGradGradGradGradGradGrad
 Berny optimization.
 Initialization pass.
                           ----------------------------
                           !    Initial Parameters    !
                           ! (Angstroms and Degrees)  !
 --------------------------                            --------------------------
 ! Name  Definition              Value          Derivative Info.                !
 --------------------------------------------------------------------------------
 ! R1    R(1,2)                  1.1657         estimate D2E/DX2                !
 ! R2    R(2,3)                  1.6671         estimate D2E/DX2                !
 ! R3    R(3,4)                  1.3145         estimate D2E/DX2                !
 ! R4    R(3,10)                 1.8135         estimate D2E/DX2                !
 ! R5    R(4,5)                  1.367          estimate D2E/DX2                !
 ! R6    R(4,19)                 1.0405         estimate D2E/DX2                !
 ! R7    R(5,6)                  1.3367         estimate D2E/DX2                !
 ! R8    R(5,20)                 1.0703         estimate D2E/DX2                !
 ! R9    R(6,7)                  1.3828         estimate D2E/DX2                !
 ! R10   R(6,21)                 1.119          estimate D2E/DX2                !
 ! R11   R(7,8)                  1.4435         estimate D2E/DX2                !
 ! R12   R(7,22)                 1.179          estimate D2E/DX2                !
 ! R13   R(8,9)                  1.504          estimate D2E/DX2                !
 ! R14   R(8,23)                 1.2661         estimate D2E/DX2                !
 ! R15   R(9,24)                 1.2515         estimate D2E/DX2                !
 ! R16   R(10,11)                1.6804         estimate D2E/DX2                !
 ! R17   R(10,18)                2.0865         estimate D2E/DX2                !
 ! R18   R(10,20)                1.9608         estimate D2E/DX2                !
 ! R19   R(11,12)                1.648          estimate D2E/DX2                !
 ! R20   R(12,13)                1.3388         estimate D2E/DX2                !
 ! R21   R(12,25)                1.0472         estimate D2E/DX2                !
 ! R22   R(13,14)                1.2496         estimate D2E/DX2                !
 ! R23   R(14,15)                1.3704         estimate D2E/DX2                !
 ! R24   R(15,16)                1.4159         estimate D2E/DX2                !
 ! R25   R(15,26)                1.0112         estimate D2E/DX2                !
 ! R26   R(16,17)                1.4447         estimate D2E/DX2                !
 ! R27   R(16,27)                1.0126         estimate D2E/DX2                !
 ! R28   R(17,18)                1.7024         estimate D2E/DX2                !
 ! R29   R(17,28)                1.0322         estimate D2E/DX2                !
 ! A1    A(1,2,3)              163.7688         estimate D2E/DX2                !
 ! A2    A(2,3,4)              105.1514         estimate D2E/DX2                !
 ! A3    A(2,3,10)             135.9877         estimate D2E/DX2                !
 ! A4    A(4,3,10)             118.8608         estimate D2E/DX2                !
 ! A5    A(3,4,5)              102.1784         estimate D2E/DX2                !
 ! A6    A(3,4,19)             124.2905         estimate D2E/DX2                !
 ! A7    A(5,4,19)             133.4664         estimate D2E/DX2                !
 ! A8    A(4,5,6)              135.6056         estimate D2E/DX2                !
 ! A9    A(4,5,20)             113.8515         estimate D2E/DX2                !
 ! A10   A(6,5,20)             108.6061         estimate D2E/DX2                !
 ! A11   A(5,6,7)              106.1711         estimate D2E/DX2                !
 ! A12   A(5,6,21)             108.7655         estimate D2E/DX2                !
 ! A13   A(7,6,21)             124.8513         estimate D2E/DX2                !
 ! A14   A(6,7,8)               97.2294         estimate D2E/DX2                !
 ! A15   A(6,7,22)             134.2373         estimate D2E/DX2                !
 ! A16   A(8,7,22)             100.9091         estimate D2E/DX2                !
 ! A17   A(7,8,9)               96.439          estimate D2E/DX2                !
 ! A18   A(7,8,23)              79.3473         estimate D2E/DX2                !
 ! A19   A(8,9,24)              70.409          estimate D2E/DX2                !
 ! A20   A(3,10,11)             69.9034         estimate D2E/DX2                !
 ! A21   A(3,10,18)            105.2672         estimate D2E/DX2                !
 ! A22   A(3,10,20)             68.0297         estimate D2E/DX2                !
 ! A23   A(11,10,18)            78.6494         estimate D2E/DX2                !
 ! A24   A(11,10,20)           120.581          estimate D2E/DX2                !
 ! A25   A(18,10,20)           152.1777         estimate D2E/DX2                !
 ! A26   A(10,11,12)           149.0097         estimate D2E/DX2                !
 ! A27   A(11,12,13)           122.572          estimate D2E/DX2                !
 ! A28   A(11,12,25)           123.1048         estimate D2E/DX2                !
 ! A29   A(13,12,25)           111.515          estimate D2E/DX2                !
 ! A30   A(12,13,14)           113.5419         estimate D2E/DX2                !
 ! A31   A(13,14,15)           115.4763         estimate D2E/DX2                !
 ! A32   A(14,15,16)           121.6193         estimate D2E/DX2                !
 ! A33   A(14,15,26)           113.7542         estimate D2E/DX2                !
 ! A34   A(16,15,26)           123.0243         estimate D2E/DX2                !
 ! A35   A(15,16,17)           109.062          estimate D2E/DX2                !
 ! A36   A(15,16,27)           109.2425         estimate D2E/DX2                !
 ! A37   A(17,16,27)           103.5697         estimate D2E/DX2                !
 ! A38   A(16,17,18)           115.0648         estimate D2E/DX2                !
 ! A39   A(16,17,28)           106.9614         estimate D2E/DX2                !
 ! A40   A(18,17,28)           110.3229         estimate D2E/DX2                !
 ! A41   A(10,18,17)           103.0076         estimate D2E/DX2                !
 ! A42   A(5,20,10)            113.3893         estimate D2E/DX2                !
 ! A43   L(9,8,23,7,-1)        175.7863         estimate D2E/DX2                !
 ! A44   L(9,8,23,7,-2)        193.0155         estimate D2E/DX2                !
 ! D1    D(1,2,3,4)              7.4311         estimate D2E/DX2                !
 ! D2    D(1,2,3,10)          -172.6106         estimate D2E/DX2                !
 ! D3    D(2,3,4,5)            153.3006         estimate D2E/DX2                !
 ! D4    D(2,3,4,19)           -29.2817         estimate D2E/DX2                !
 ! D5    D(10,3,4,5)           -26.6663         estimate D2E/DX2                !
 ! D6    D(10,3,4,19)          150.7514         estimate D2E/DX2                !
 ! D7    D(2,3,10,11)           -6.6015         estimate D2E/DX2                !
 ! D8    D(2,3,10,18)           64.9105         estimate D2E/DX2                !
 ! D9    D(2,3,10,20)         -143.6363         estimate D2E/DX2                !
 ! D10   D(4,3,10,11)          173.3526         estimate D2E/DX2                !
 ! D11   D(4,3,10,18)         -115.1354         estimate D2E/DX2                !
 ! D12   D(4,3,10,20)           36.3178         estimate D2E/DX2                !
 ! D13   D(3,4,5,6)            148.8223         estimate D2E/DX2                !
 ! D14   D(3,4,5,20)           -13.0244         estimate D2E/DX2                !
 ! D15   D(19,4,5,6)           -28.2379         estimate D2E/DX2                !
 ! D16   D(19,4,5,20)          169.9155         estimate D2E/DX2                !
 ! D17   D(4,5,6,7)           -143.9464         estimate D2E/DX2                !
 ! D18   D(4,5,6,21)            -7.318          estimate D2E/DX2                !
 ! D19   D(20,5,6,7)            18.5559         estimate D2E/DX2                !
 ! D20   D(20,5,6,21)          155.1843         estimate D2E/DX2                !
 ! D21   D(4,5,20,10)           43.7414         estimate D2E/DX2                !
 ! D22   D(6,5,20,10)         -122.9623         estimate D2E/DX2                !
 ! D23   D(5,6,7,8)             93.9975         estimate D2E/DX2                !
 ! D24   D(5,6,7,22)           -18.9435         estimate D2E/DX2                !
 ! D25   D(21,6,7,8)           -33.5979         estimate D2E/DX2                !
 ! D26   D(21,6,7,22)         -146.5389         estimate D2E/DX2                !
 ! D27   D(6,7,8,9)            -90.4993         estimate D2E/DX2                !
 ! D28   D(6,7,8,23)            76.4852         estimate D2E/DX2                !
 ! D29   D(22,7,8,9)            47.2843         estimate D2E/DX2                !
 ! D30   D(22,7,8,23)         -145.7313         estimate D2E/DX2                !
 ! D31   D(7,8,9,24)           -98.1678         estimate D2E/DX2                !
 ! D32   D(3,10,11,12)        -151.497          estimate D2E/DX2                !
 ! D33   D(18,10,11,12)         97.4377         estimate D2E/DX2                !
 ! D34   D(20,10,11,12)       -104.2595         estimate D2E/DX2                !
 ! D35   D(3,10,18,17)        -111.9807         estimate D2E/DX2                !
 ! D36   D(11,10,18,17)        -46.6936         estimate D2E/DX2                !
 ! D37   D(20,10,18,17)        176.3015         estimate D2E/DX2                !
 ! D38   D(3,10,20,5)          -44.5878         estimate D2E/DX2                !
 ! D39   D(11,10,20,5)         -92.6152         estimate D2E/DX2                !
 ! D40   D(18,10,20,5)          36.433          estimate D2E/DX2                !
 ! D41   D(10,11,12,13)         32.9856         estimate D2E/DX2                !
 ! D42   D(10,11,12,25)       -126.4141         estimate D2E/DX2                !
 ! D43   D(11,12,13,14)        -70.4737         estimate D2E/DX2                !
 ! D44   D(25,12,13,14)         91.0564         estimate D2E/DX2                !
 ! D45   D(12,13,14,15)        -29.0772         estimate D2E/DX2                !
 ! D46   D(13,14,15,16)         94.1226         estimate D2E/DX2                !
 ! D47   D(13,14,15,26)        -99.9011         estimate D2E/DX2                !
 ! D48   D(14,15,16,17)       -105.6146         estimate D2E/DX2                !
 ! D49   D(14,15,16,27)        141.8319         estimate D2E/DX2                !
 ! D50   D(26,15,16,17)         89.7247         estimate D2E/DX2                !
 ! D51   D(26,15,16,27)        -22.8289         estimate D2E/DX2                !
 ! D52   D(15,16,17,18)        139.3552         estimate D2E/DX2                !
 ! D53   D(15,16,17,28)         16.4334         estimate D2E/DX2                !
 ! D54   D(27,16,17,18)       -104.4067         estimate D2E/DX2                !
 ! D55   D(27,16,17,28)        132.6715         estimate D2E/DX2                !
 ! D56   D(16,17,18,10)        -49.574          estimate D2E/DX2                !
 ! D57   D(28,17,18,10)         71.5337         estimate D2E/DX2                !
 --------------------------------------------------------------------------------
 Trust Radius=3.00D-01 FncErr=1.00D-07 GrdErr=1.00D-06 EigMax=2.50D+02 EigMin=1.00D-04
 Number of steps in this run=    140 maximum allowed number of steps=    168.
 GradGradGradGradGradGradGradGradGradGradGradGradGradGradGradGradGradGrad

                          Input orientation:                          
 ---------------------------------------------------------------------
 Center     Atomic      Atomic             Coordinates (Angstroms)
 Number     Number       Type             X           Y           Z
 ---------------------------------------------------------------------
      1          7           0        1.743320    0.059910    0.175890
      2          6           0        2.907150    0.007680    0.134890
      3          7           0        4.479240   -0.364360   -0.276760
      4          6           0        4.386620   -1.078570   -1.376440
      5          6           0        5.588020   -0.834110   -1.981120
      6          6           0        6.411100   -1.518430   -2.781680
      7          6           0        7.694420   -1.163470   -2.408680
      8          6           0        7.923410   -2.251290   -1.487930
      9          6           0        7.409180   -1.546440   -0.262880
     10          6           0        6.122870   -0.021540    0.408490
     11          7           0        4.952470    0.831040    1.261210
     12          7           0        4.539470    2.148100    2.161520
     13          7           0        5.090960    3.353070    1.971050
     14          7           0        6.286870    3.416670    2.327810
     15          7           0        6.642740    2.575560    3.349550
     16          7           0        7.200650    1.298430    3.099540
     17          7           0        6.203580    0.287560    3.366220
     18         16           0        6.164410   -0.998550    2.251590
     19          1           0        3.575600   -1.685240   -1.614850
     20          1           0        6.129990   -0.016870   -1.552330
     21          1           0        6.037900   -2.569870   -2.867650
     22          1           0        8.156100   -0.260810   -1.806860
     23          1           0        8.067700   -2.847710   -2.595360
     24          1           0        8.657980   -1.471080   -0.297240
     25          1           0        4.085020    2.078100    3.102390
     26          1           0        6.682240    3.026840    4.253640
     27          1           0        7.920780    1.108700    3.785700
     28          1           0        5.289420    0.766130    3.393680
 ---------------------------------------------------------------------
                    Distance matrix (angstroms):
                    1          2          3          4          5
     1  N    0.000000
     2  C    1.165723   0.000000
     3  N    2.805380   1.667134   0.000000
     4  C    3.270000   2.377580   1.314523   0.000000
     5  C    4.498187   3.517552   2.086840   1.367026   0.000000
     6  C    5.746873   4.807604   3.367282   2.503337   1.336657
     7  C    6.602443   5.546106   3.939675   3.466160   2.174444
     8  C    6.804664   5.735796   4.109713   3.727812   2.775911
     9  C    5.905493   4.779308   3.159439   3.254963   2.603149
    10  C    4.386479   3.227471   1.813453   2.705153   2.580033
    11  N    3.474364   2.475854   2.004565   3.305147   3.699912
    12  N    4.015186   3.369435   3.501613   4.790817   5.210998
    13  N    5.027345   4.396833   4.387042   5.598323   5.779203
    14  N    6.045035   5.277558   4.934318   6.126957   6.092980
    15  N    6.356487   5.557219   5.145288   6.385744   6.415164
    16  N    6.313803   5.374879   4.644389   5.796835   5.741203
    17  N    5.488529   4.624530   4.082848   5.259323   5.498282
    18  S    4.997490   4.012812   3.103957   4.040983   4.274939
    19  H    3.099927   2.524756   2.086091   1.040500   2.215493
    20  H    4.715455   3.637858   2.114900   2.048776   1.070268
    21  H    5.884071   5.045850   3.742513   2.678509   2.000298
    22  H    6.719963   5.603031   3.983871   3.881105   2.637058
    23  H    7.492120   6.499138   4.941657   4.262156   3.252797
    24  H    7.097909   5.953613   4.322860   4.423037   3.558910
    25  H    4.256883   3.805269   4.188040   5.487754   6.048310
    26  H    7.058587   6.350648   6.072723   7.336352   7.414613
    27  H    7.231300   6.298980   5.524281   6.627377   6.517092
    28  H    4.840222   4.107331   3.925115   5.193458   5.615906
                    6          7          8          9         10
     6  C    0.000000
     7  C    1.382764   0.000000
     8  C    2.120838   1.443457   0.000000
     9  C    2.709484   2.198291   1.503993   0.000000
    10  C    3.535667   3.422020   3.436588   2.104911   0.000000
    11  N    4.898221   4.996444   5.087732   3.743085   1.680435
    12  N    6.432858   6.465828   6.642602   5.269020   3.207430
    13  N    6.932728   6.808757   7.169112   5.862575   3.859330
    14  N    7.104754   6.737449   7.025945   5.709966   3.941062
    15  N    7.376069   6.945760   6.952684   5.534254   3.957907
    16  N    6.568625   6.053532   5.845321   4.409381   3.185229
    17  N    6.411033   6.138205   5.741633   4.241155   2.974933
    18  S    5.066057   4.907774   4.318269   2.858705   2.086454
    19  H    3.070729   4.226948   4.386339   4.067361   3.653818
    20  H    1.960869   2.120252   2.865857   2.374572   1.960838
    21  H    1.119015   2.220962   2.358022   3.116512   4.151421
    22  H    2.361548   1.179038   2.029254   2.143504   3.016463
    23  H    2.132141   1.735181   1.266072   2.750894   4.559903
    24  H    3.350098   2.341207   1.601894   1.251544   3.004331
    25  H    7.277909   7.342168   7.385655   5.959226   3.977237
    26  H    8.380258   7.935346   7.897138   6.468561   4.938694
    27  H    7.232664   6.601844   6.253056   4.868522   3.989420
    28  H    6.679255   6.570751   6.314495   4.817862   3.197878
                   11         12         13         14         15
    11  N    0.000000
    12  N    1.647961   0.000000
    13  N    2.623678   1.338795   0.000000
    14  N    3.098990   2.165717   1.249609   0.000000
    15  N    3.203362   2.453137   2.216485   1.370424   0.000000
    16  N    2.941466   2.946812   3.153701   2.432592   1.415920
    17  N    2.508329   2.771673   3.547080   3.297963   2.329825
    18  S    2.407707   3.542591   4.490834   4.417576   3.769427
    19  H    4.061915   5.466673   6.367069   6.994644   7.225443
    20  H    3.165677   4.583615   4.985006   5.183560   5.568845
    21  H    5.458189   7.056705   7.706551   7.930539   8.092889
    22  H    4.568198   5.884802   6.060348   5.840666   6.076497
    23  H    6.173410   7.748189   8.256074   8.164032   8.172168
    24  H    4.632421   6.008834   6.414140   6.033502   5.808233
    25  H    2.386959   1.047216   1.979241   2.690704   2.617343
    26  H    4.094909   3.120996   2.801574   2.004272   1.011233
    27  H    3.906534   3.892502   4.042033   3.181482   1.993813
    28  H    2.159902   1.997620   2.958973   3.025946   2.259969
                   16         17         18         19         20
    16  N    0.000000
    17  N    1.444689   0.000000
    18  S    2.658746   1.702355   0.000000
    19  H    6.653476   5.967351   4.703492   0.000000
    20  H    4.951386   4.928512   3.928701   3.051602   0.000000
    21  H    7.205768   6.859555   5.356461   2.900862   2.873388
    22  H    5.236113   5.556420   4.580623   4.800713   2.056554
    23  H    7.097474   6.988941   5.525833   4.742541   3.585566
    24  H    4.618670   4.747403   3.596903   5.254764   3.175014
    25  H    3.211704   2.786384   3.809659   6.055955   5.498838
    26  H    2.141984   2.918953   4.525496   8.142118   6.578635
    27  H    1.012620   1.949105   3.143061   7.473462   5.741812
    28  H    2.005657   1.032217   2.276856   5.833675   5.077663
                   21         22         23         24         25
    21  H    0.000000
    22  H    3.308142   0.000000
    23  H    2.066743   2.705845   0.000000
    24  H    3.831340   1.998897   2.743154   0.000000
    25  H    7.814009   6.793006   8.519959   6.713131   0.000000
    26  H    9.080259   7.050572   9.129000   6.696666   2.995169
    27  H    7.832253   5.762609   7.509507   4.885604   4.014935
    28  H    7.133959   6.026448   7.526439   5.474961   1.804631
                   26         27         28
    26  H    0.000000
    27  H    2.330710   0.000000
    28  H    2.791109   2.682366   0.000000
 Stoichiometry    C8H10N9S(2)
 Framework group  C1[X(C8H10N9S)]
 Deg. of freedom    78
 Full point group                 C1      NOp   1
 Largest Abelian subgroup         C1      NOp   1
 Largest concise Abelian subgroup C1      NOp   1
                         Standard orientation:                         
 ---------------------------------------------------------------------
 Center     Atomic      Atomic             Coordinates (Angstroms)
 Number     Number       Type             X           Y           Z
 ---------------------------------------------------------------------
      1          7           0       -0.207035    3.952370    0.718544
      2          6           0       -0.368251    2.827620    0.458054
      3          7           0       -1.050725    1.341513    0.133933
      4          6           0       -2.344917    1.563664    0.073221
      5          6           0       -2.770833    0.562591   -0.754552
      6          6           0       -3.887856   -0.160190   -0.883002
      7          6           0       -3.484220   -1.431236   -1.248457
      8          6           0       -3.445330   -1.998028    0.078496
      9          6           0       -2.007713   -1.660708    0.363919
     10          6           0       -0.439037   -0.345670   -0.126572
     11          7           0        0.850959    0.725568   -0.016033
     12          7           0        2.399613    1.118450   -0.419877
     13          7           0        2.941597    0.792403   -1.599843
     14          7           0        3.161371   -0.431127   -1.727113
     15          7           0        3.420135   -1.107693   -0.563772
     16          7           0        2.395166   -1.772302    0.152164
     17          7           0        2.069075   -1.004199    1.331488
     18         16           0        0.408541   -0.910084    1.694510
     19          1           0       -2.836195    2.314364    0.600227
     20          1           0       -1.978522    0.061360   -1.270774
     21          1           0       -4.568064    0.072939   -0.025586
     22          1           0       -2.496871   -1.879376   -1.711537
     23          1           0       -4.693248   -1.987113   -0.134857
     24          1           0       -2.092677   -2.851347   -0.012276
     25          1           0        3.134420    1.350152    0.289371
     26          1           0        4.403994   -1.273756   -0.399343
     27          1           0        2.758501   -2.640089    0.526775
     28          1           0        2.459851   -0.058936    1.192766
 ---------------------------------------------------------------------
 Rotational constants (GHZ):           0.5584374           0.2935601           0.2387979
 Standard basis: 6-31G(2df,p) (6D, 7F)
 There are   612 symmetry adapted cartesian basis functions of A   symmetry.
 There are   558 symmetry adapted basis functions of A   symmetry.
   558 basis functions,   886 primitive gaussians,   612 cartesian basis functions
    69 alpha electrons       68 beta electrons
       nuclear repulsion energy      1429.3099195780 Hartrees.
 NAtoms=   28 NActive=   28 NUniq=   28 SFac= 1.00D+00 NAtFMM=   60 NAOKFM=F Big=F
 Integral buffers will be    131072 words long.
 Raffenetti 2 integral format.
 Two-electron integral symmetry is turned on.
 One-electron integrals computed using PRISM.
 PrsmSu:  requested number of processors reduced to:  12 ShMem   1 Linda.
 NBasis=   558 RedAO= T EigKep=  1.87D-04  NBF=   558
 NBsUse=   558 1.00D-06 EigRej= -1.00D+00 NBFU=   558
 ExpMin= 1.17D-01 ExpMax= 2.19D+04 ExpMxC= 3.30D+03 IAcc=3 IRadAn=         5 AccDes= 0.00D+00
 Harris functional with IExCor=  402 and IRadAn=       5 diagonalized for initial guess.
 HarFok:  IExCor=  402 AccDes= 0.00D+00 IRadAn=         5 IDoV= 1 UseB2=F ITyADJ=14
 ICtDFT=  3500011 ScaDFX=  1.000000  1.000000  1.000000  1.000000
 FoFCou: FMM=F IPFlag=           0 FMFlag=      100000 FMFlg1=           0
         NFxFlg=           0 DoJE=T BraDBF=F KetDBF=T FulRan=T
         wScrn=  0.000000 ICntrl=       500 IOpCl=  0 I1Cent=   200000004 NGrid=           0
         NMat0=    1 NMatS0=      1 NMatT0=    0 NMatD0=    1 NMtDS0=    0 NMtDT0=    0
 Petite list used in FoFCou.
 Initial guess <Sx>= 0.0000 <Sy>= 0.0000 <Sz>= 0.5000 <S**2>= 0.7500 S= 0.5000
 Requested convergence on RMS density matrix=1.00D-08 within 128 cycles.
 Requested convergence on MAX density matrix=1.00D-06.
 Requested convergence on             energy=1.00D-06.
 No special actions if energy rises.
 Integral accuracy reduced to 1.0D-05 until final iterations.
 Rare condition: small coef for last iteration:  0.000D+00
 EnCoef did   100 forward-backward iterations
 EnCoef did   100 forward-backward iterations
 EnCoef did   100 forward-backward iterations
 Restarting incremental Fock formation.
 Initial convergence to 1.0D-05 achieved.  Increase integral accuracy.
 SCF Done:  E(UB3LYP) =  -1200.69443464     A.U. after   45 cycles
            NFock= 45  Conv=0.65D-08     -V/T= 2.0054
 <Sx>= 0.0000 <Sy>= 0.0000 <Sz>= 0.5000 <S**2>= 0.9327 S= 0.5875
 <L.S>=  0.00000000000    
 Annihilation of the first spin contaminant:
 S**2 before annihilation     0.9327,   after     0.7640

 **********************************************************************

            Population analysis using the SCF density.

 **********************************************************************

 Orbital symmetries:
 Alpha Orbitals:
       Occupied  (A) (A) (A) (A) (A) (A) (A) (A) (A) (A) (A) (A)
                 (A) (A) (A) (A) (A) (A) (A) (A) (A) (A) (A) (A)
                 (A) (A) (A) (A) (A) (A) (A) (A) (A) (A) (A) (A)
                 (A) (A) (A) (A) (A) (A) (A) (A) (A) (A) (A) (A)
                 (A) (A) (A) (A) (A) (A) (A) (A) (A) (A) (A) (A)
                 (A) (A) (A) (A) (A) (A) (A) (A) (A)
       Virtual   (A) (A) (A) (A) (A) (A) (A) (A) (A) (A) (A) (A)
                 (A) (A) (A) (A) (A) (A) (A) (A) (A) (A) (A) (A)
                 (A) (A) (A) (A) (A) (A) (A) (A) (A) (A) (A) (A)
                 (A) (A) (A) (A) (A) (A) (A) (A) (A) (A) (A) (A)
                 (A) (A) (A) (A) (A) (A) (A) (A) (A) (A) (A) (A)
                 (A) (A) (A) (A) (A) (A) (A) (A) (A) (A) (A) (A)
                 (A) (A) (A) (A) (A) (A) (A) (A) (A) (A) (A) (A)
                 (A) (A) (A) (A) (A) (A) (A) (A) (A) (A) (A) (A)
                 (A) (A) (A) (A) (A) (A) (A) (A) (A) (A) (A) (A)
                 (A) (A) (A) (A) (A) (A) (A) (A) (A) (A) (A) (A)
                 (A) (A) (A) (A) (A) (A) (A) (A) (A) (A) (A) (A)
                 (A) (A) (A) (A) (A) (A) (A) (A) (A) (A) (A) (A)
                 (A) (A) (A) (A) (A) (A) (A) (A) (A) (A) (A) (A)
                 (A) (A) (A) (A) (A) (A) (A) (A) (A) (A) (A) (A)
                 (A) (A) (A) (A) (A) (A) (A) (A) (A) (A) (A) (A)
                 (A) (A) (A) (A) (A) (A) (A) (A) (A) (A) (A) (A)
                 (A) (A) (A) (A) (A) (A) (A) (A) (A) (A) (A) (A)
                 (A) (A) (A) (A) (A) (A) (A) (A) (A) (A) (A) (A)
                 (A) (A) (A) (A) (A) (A) (A) (A) (A) (A) (A) (A)
                 (A) (A) (A) (A) (A) (A) (A) (A) (A) (A) (A) (A)
                 (A) (A) (A) (A) (A) (A) (A) (A) (A) (A) (A) (A)
                 (A) (A) (A) (A) (A) (A) (A) (A) (A) (A) (A) (A)
                 (A) (A) (A) (A) (A) (A) (A) (A) (A) (A) (A) (A)
                 (A) (A) (A) (A) (A) (A) (A) (A) (A) (A) (A) (A)
                 (A) (A) (A) (A) (A) (A) (A) (A) (A) (A) (A) (A)
                 (A) (A) (A) (A) (A) (A) (A) (A) (A) (A) (A) (A)
                 (A) (A) (A) (A) (A) (A) (A) (A) (A) (A) (A) (A)
                 (A) (A) (A) (A) (A) (A) (A) (A) (A) (A) (A) (A)
                 (A) (A) (A) (A) (A) (A) (A) (A) (A) (A) (A) (A)
                 (A) (A) (A) (A) (A) (A) (A) (A) (A) (A) (A) (A)
                 (A) (A) (A) (A) (A) (A) (A) (A) (A) (A) (A) (A)
                 (A) (A) (A) (A) (A) (A) (A) (A) (A) (A) (A) (A)
                 (A) (A) (A) (A) (A) (A) (A) (A) (A) (A) (A) (A)
                 (A) (A) (A) (A) (A) (A) (A) (A) (A) (A) (A) (A)
                 (A) (A) (A) (A) (A) (A) (A) (A) (A) (A) (A) (A)
                 (A) (A) (A) (A) (A) (A) (A) (A) (A) (A) (A) (A)
                 (A) (A) (A) (A) (A) (A) (A) (A) (A) (A) (A) (A)
                 (A) (A) (A) (A) (A) (A) (A) (A) (A) (A) (A) (A)
                 (A) (A) (A) (A) (A) (A) (A) (A) (A) (A) (A) (A)
                 (A) (A) (A) (A) (A) (A) (A) (A) (A) (A) (A) (A)
                 (A) (A) (A) (A) (A) (A) (A) (A) (A)
 Beta  Orbitals:
       Occupied  (A) (A) (A) (A) (A) (A) (A) (A) (A) (A) (A) (A)
                 (A) (A) (A) (A) (A) (A) (A) (A) (A) (A) (A) (A)
                 (A) (A) (A) (A) (A) (A) (A) (A) (A) (A) (A) (A)
                 (A) (A) (A) (A) (A) (A) (A) (A) (A) (A) (A) (A)
                 (A) (A) (A) (A) (A) (A) (A) (A) (A) (A) (A) (A)
                 (A) (A) (A) (A) (A) (A) (A) (A)
       Virtual   (A) (A) (A) (A) (A) (A) (A) (A) (A) (A) (A) (A)
                 (A) (A) (A) (A) (A) (A) (A) (A) (A) (A) (A) (A)
                 (A) (A) (A) (A) (A) (A) (A) (A) (A) (A) (A) (A)
                 (A) (A) (A) (A) (A) (A) (A) (A) (A) (A) (A) (A)
                 (A) (A) (A) (A) (A) (A) (A) (A) (A) (A) (A) (A)
                 (A) (A) (A) (A) (A) (A) (A) (A) (A) (A) (A) (A)
                 (A) (A) (A) (A) (A) (A) (A) (A) (A) (A) (A) (A)
                 (A) (A) (A) (A) (A) (A) (A) (A) (A) (A) (A) (A)
                 (A) (A) (A) (A) (A) (A) (A) (A) (A) (A) (A) (A)
                 (A) (A) (A) (A) (A) (A) (A) (A) (A) (A) (A) (A)
                 (A) (A) (A) (A) (A) (A) (A) (A) (A) (A) (A) (A)
                 (A) (A) (A) (A) (A) (A) (A) (A) (A) (A) (A) (A)
                 (A) (A) (A) (A) (A) (A) (A) (A) (A) (A) (A) (A)
                 (A) (A) (A) (A) (A) (A) (A) (A) (A) (A) (A) (A)
                 (A) (A) (A) (A) (A) (A) (A) (A) (A) (A) (A) (A)
                 (A) (A) (A) (A) (A) (A) (A) (A) (A) (A) (A) (A)
                 (A) (A) (A) (A) (A) (A) (A) (A) (A) (A) (A) (A)
                 (A) (A) (A) (A) (A) (A) (A) (A) (A) (A) (A) (A)
                 (A) (A) (A) (A) (A) (A) (A) (A) (A) (A) (A) (A)
                 (A) (A) (A) (A) (A) (A) (A) (A) (A) (A) (A) (A)
                 (A) (A) (A) (A) (A) (A) (A) (A) (A) (A) (A) (A)
                 (A) (A) (A) (A) (A) (A) (A) (A) (A) (A) (A) (A)
                 (A) (A) (A) (A) (A) (A) (A) (A) (A) (A) (A) (A)
                 (A) (A) (A) (A) (A) (A) (A) (A) (A) (A) (A) (A)
                 (A) (A) (A) (A) (A) (A) (A) (A) (A) (A) (A) (A)
                 (A) (A) (A) (A) (A) (A) (A) (A) (A) (A) (A) (A)
                 (A) (A) (A) (A) (A) (A) (A) (A) (A) (A) (A) (A)
                 (A) (A) (A) (A) (A) (A) (A) (A) (A) (A) (A) (A)
                 (A) (A) (A) (A) (A) (A) (A) (A) (A) (A) (A) (A)
                 (A) (A) (A) (A) (A) (A) (A) (A) (A) (A) (A) (A)
                 (A) (A) (A) (A) (A) (A) (A) (A) (A) (A) (A) (A)
                 (A) (A) (A) (A) (A) (A) (A) (A) (A) (A) (A) (A)
                 (A) (A) (A) (A) (A) (A) (A) (A) (A) (A) (A) (A)
                 (A) (A) (A) (A) (A) (A) (A) (A) (A) (A) (A) (A)
                 (A) (A) (A) (A) (A) (A) (A) (A) (A) (A) (A) (A)
                 (A) (A) (A) (A) (A) (A) (A) (A) (A) (A) (A) (A)
                 (A) (A) (A) (A) (A) (A) (A) (A) (A) (A) (A) (A)
                 (A) (A) (A) (A) (A) (A) (A) (A) (A) (A) (A) (A)
                 (A) (A) (A) (A) (A) (A) (A) (A) (A) (A) (A) (A)
                 (A) (A) (A) (A) (A) (A) (A) (A) (A) (A) (A) (A)
                 (A) (A) (A) (A) (A) (A) (A) (A) (A) (A)
 The electronic state is 2-A.
 Alpha  occ. eigenvalues --  -88.90909 -14.42390 -14.41039 -14.40141 -14.39819
 Alpha  occ. eigenvalues --  -14.39684 -14.38714 -14.38047 -14.37788 -14.33390
 Alpha  occ. eigenvalues --  -10.32428 -10.27033 -10.26690 -10.26288 -10.25721
 Alpha  occ. eigenvalues --  -10.23617 -10.23358 -10.19324  -7.96661  -5.93234
 Alpha  occ. eigenvalues --   -5.92878  -5.92169  -1.10637  -1.01815  -0.97924
 Alpha  occ. eigenvalues --   -0.93903  -0.91449  -0.89457  -0.85477  -0.83594
 Alpha  occ. eigenvalues --   -0.79125  -0.76143  -0.71164  -0.68613  -0.64820
 Alpha  occ. eigenvalues --   -0.61957  -0.61258  -0.58812  -0.57877  -0.56951
 Alpha  occ. eigenvalues --   -0.56670  -0.53333  -0.49789  -0.48869  -0.46823
 Alpha  occ. eigenvalues --   -0.46101  -0.45516  -0.44524  -0.43693  -0.42843
 Alpha  occ. eigenvalues --   -0.40419  -0.39837  -0.37580  -0.37149  -0.35601
 Alpha  occ. eigenvalues --   -0.34831  -0.33620  -0.32999  -0.32349  -0.30108
 Alpha  occ. eigenvalues --   -0.29715  -0.28229  -0.27113  -0.25670  -0.25061
 Alpha  occ. eigenvalues --   -0.22280  -0.21524  -0.20701  -0.19727
 Alpha virt. eigenvalues --   -0.11630  -0.09416  -0.08735  -0.06984  -0.05511
 Alpha virt. eigenvalues --   -0.01508  -0.00906   0.00798   0.02472   0.03482
 Alpha virt. eigenvalues --    0.04576   0.05580   0.06651   0.07205   0.08476
 Alpha virt. eigenvalues --    0.08773   0.09308   0.09601   0.14630   0.15463
 Alpha virt. eigenvalues --    0.16198   0.16640   0.17676   0.19400   0.20883
 Alpha virt. eigenvalues --    0.21016   0.24743   0.25588   0.26922   0.27461
 Alpha virt. eigenvalues --    0.29337   0.30574   0.31463   0.32201   0.34236
 Alpha virt. eigenvalues --    0.34565   0.36367   0.37572   0.38417   0.39027
 Alpha virt. eigenvalues --    0.39827   0.40740   0.42506   0.43639   0.44627
 Alpha virt. eigenvalues --    0.46142   0.47243   0.47721   0.48877   0.49662
 Alpha virt. eigenvalues --    0.50384   0.51334   0.51704   0.53090   0.53596
 Alpha virt. eigenvalues --    0.54103   0.54357   0.56030   0.56694   0.56897
 Alpha virt. eigenvalues --    0.57821   0.58211   0.60643   0.60967   0.61561
 Alpha virt. eigenvalues --    0.62586   0.62854   0.63598   0.63958   0.64188
 Alpha virt. eigenvalues --    0.64505   0.64756   0.66035   0.66622   0.67396
 Alpha virt. eigenvalues --    0.67599   0.68011   0.69402   0.69980   0.70714
 Alpha virt. eigenvalues --    0.71588   0.71942   0.72098   0.73447   0.73925
 Alpha virt. eigenvalues --    0.74635   0.75295   0.75509   0.76403   0.76707
 Alpha virt. eigenvalues --    0.77312   0.78405   0.78799   0.79101   0.80015
 Alpha virt. eigenvalues --    0.80835   0.81508   0.82155   0.82856   0.84171
 Alpha virt. eigenvalues --    0.84870   0.85259   0.85735   0.87537   0.88155
 Alpha virt. eigenvalues --    0.88944   0.89073   0.90515   0.91783   0.93014
 Alpha virt. eigenvalues --    0.94357   0.95008   0.95311   0.96375   0.97497
 Alpha virt. eigenvalues --    0.98425   0.98941   0.99878   1.01410   1.02047
 Alpha virt. eigenvalues --    1.03401   1.05608   1.06792   1.08064   1.08289
 Alpha virt. eigenvalues --    1.09938   1.10282   1.14016   1.14851   1.16001
 Alpha virt. eigenvalues --    1.17272   1.18190   1.19343   1.20455   1.22038
 Alpha virt. eigenvalues --    1.23521   1.24895   1.26358   1.27461   1.28221
 Alpha virt. eigenvalues --    1.29114   1.30073   1.30956   1.32918   1.34162
 Alpha virt. eigenvalues --    1.35023   1.36449   1.36854   1.37886   1.38818
 Alpha virt. eigenvalues --    1.39720   1.40519   1.41376   1.42314   1.44975
 Alpha virt. eigenvalues --    1.45893   1.46835   1.48274   1.48494   1.49327
 Alpha virt. eigenvalues --    1.51375   1.52221   1.52403   1.54189   1.54699
 Alpha virt. eigenvalues --    1.56841   1.58003   1.59115   1.59866   1.60549
 Alpha virt. eigenvalues --    1.62030   1.62399   1.63493   1.65982   1.66397
 Alpha virt. eigenvalues --    1.68434   1.69026   1.69518   1.70103   1.71252
 Alpha virt. eigenvalues --    1.71830   1.73324   1.73941   1.74503   1.77347
 Alpha virt. eigenvalues --    1.77669   1.78737   1.79224   1.79579   1.81073
 Alpha virt. eigenvalues --    1.81100   1.83069   1.83441   1.84902   1.86296
 Alpha virt. eigenvalues --    1.86494   1.88253   1.90634   1.92257   1.94947
 Alpha virt. eigenvalues --    1.96313   1.97608   1.99882   2.01426   2.04263
 Alpha virt. eigenvalues --    2.06304   2.08572   2.11082   2.12125   2.12394
 Alpha virt. eigenvalues --    2.14983   2.16524   2.17514   2.18824   2.21272
 Alpha virt. eigenvalues --    2.22742   2.23085   2.26412   2.29292   2.32040
 Alpha virt. eigenvalues --    2.35180   2.37239   2.39870   2.41163   2.44200
 Alpha virt. eigenvalues --    2.45810   2.46439   2.47612   2.49691   2.50889
 Alpha virt. eigenvalues --    2.51961   2.52948   2.55367   2.56267   2.56530
 Alpha virt. eigenvalues --    2.57685   2.60309   2.62977   2.63339   2.66603
 Alpha virt. eigenvalues --    2.67758   2.68790   2.72756   2.74652   2.75862
 Alpha virt. eigenvalues --    2.78526   2.79486   2.80708   2.81300   2.82024
 Alpha virt. eigenvalues --    2.84196   2.84638   2.86496   2.88264   2.88489
 Alpha virt. eigenvalues --    2.89872   2.91050   2.91160   2.92487   2.95416
 Alpha virt. eigenvalues --    2.97088   2.97605   2.98127   2.99421   2.99944
 Alpha virt. eigenvalues --    3.02887   3.03871   3.05099   3.05975   3.08255
 Alpha virt. eigenvalues --    3.09630   3.11607   3.14087   3.14820   3.18900
 Alpha virt. eigenvalues --    3.19669   3.19985   3.21731   3.23652   3.24361
 Alpha virt. eigenvalues --    3.26069   3.26854   3.27724   3.29187   3.30172
 Alpha virt. eigenvalues --    3.32142   3.32573   3.34091   3.35298   3.36222
 Alpha virt. eigenvalues --    3.37497   3.40056   3.40908   3.41608   3.42695
 Alpha virt. eigenvalues --    3.43923   3.46093   3.47125   3.47863   3.51902
 Alpha virt. eigenvalues --    3.53046   3.54875   3.55115   3.56837   3.57995
 Alpha virt. eigenvalues --    3.59456   3.62279   3.64562   3.66173   3.67547
 Alpha virt. eigenvalues --    3.67828   3.68099   3.69111   3.69932   3.70679
 Alpha virt. eigenvalues --    3.72646   3.73072   3.73613   3.73904   3.76183
 Alpha virt. eigenvalues --    3.77771   3.78783   3.80486   3.80820   3.80953
 Alpha virt. eigenvalues --    3.82923   3.84055   3.86140   3.86348   3.87596
 Alpha virt. eigenvalues --    3.90542   3.90963   3.91877   3.94233   3.97157
 Alpha virt. eigenvalues --    3.99402   3.99703   4.00151   4.01189   4.01894
 Alpha virt. eigenvalues --    4.03207   4.04043   4.05880   4.06868   4.09088
 Alpha virt. eigenvalues --    4.09810   4.11398   4.11896   4.13573   4.15250
 Alpha virt. eigenvalues --    4.15581   4.17080   4.17828   4.18787   4.19326
 Alpha virt. eigenvalues --    4.20815   4.22013   4.22507   4.24113   4.24679
 Alpha virt. eigenvalues --    4.26159   4.26835   4.27389   4.29288   4.29346
 Alpha virt. eigenvalues --    4.30131   4.31914   4.32357   4.35197   4.35419
 Alpha virt. eigenvalues --    4.35962   4.37328   4.38182   4.39094   4.39918
 Alpha virt. eigenvalues --    4.41816   4.42932   4.44484   4.45331   4.45577
 Alpha virt. eigenvalues --    4.47390   4.48572   4.49234   4.49458   4.51182
 Alpha virt. eigenvalues --    4.51463   4.52760   4.53279   4.54849   4.55826
 Alpha virt. eigenvalues --    4.56801   4.57480   4.59001   4.60507   4.61197
 Alpha virt. eigenvalues --    4.61853   4.64132   4.65096   4.65934   4.67715
 Alpha virt. eigenvalues --    4.67971   4.69191   4.70203   4.70799   4.72673
 Alpha virt. eigenvalues --    4.72859   4.73460   4.74474   4.75415   4.76812
 Alpha virt. eigenvalues --    4.79504   4.79898   4.80941   4.81775   4.83158
 Alpha virt. eigenvalues --    4.84382   4.86054   4.86275   4.87196   4.90115
 Alpha virt. eigenvalues --    4.90866   4.93128   4.94555   4.96360   4.97418
 Alpha virt. eigenvalues --    4.99672   5.00496   5.02089   5.03800   5.04687
 Alpha virt. eigenvalues --    5.06660   5.07981   5.10347   5.10879   5.15599
 Alpha virt. eigenvalues --    5.16465   5.20419   5.22326   5.24008   5.26473
 Alpha virt. eigenvalues --    5.28162   5.31247   5.33640   5.34403   5.34918
 Alpha virt. eigenvalues --    5.38929   5.41217   5.42611   5.43314   5.48832
 Alpha virt. eigenvalues --    5.49564   5.56108   5.59557   5.60894   5.61084
 Alpha virt. eigenvalues --    5.65032   5.66433   5.72221   5.80488   5.84515
 Alpha virt. eigenvalues --    5.86588   6.06575   6.17807   6.67197   8.84041
 Alpha virt. eigenvalues --    9.82487  10.23361  10.36243  10.82048  10.92936
 Alpha virt. eigenvalues --   11.16074  11.16893  11.20529  11.25046  11.27838
 Alpha virt. eigenvalues --   11.33276  11.36769  11.37906  11.47038  11.51519
 Alpha virt. eigenvalues --   11.53020  11.67743  12.47147  13.12094  13.30198
 Alpha virt. eigenvalues --   14.32704  18.02938  19.17999  20.80488
  Beta  occ. eigenvalues --  -88.90813 -14.42294 -14.41028 -14.40141 -14.39689
  Beta  occ. eigenvalues --  -14.38536 -14.38064 -14.37838 -14.37741 -14.33381
  Beta  occ. eigenvalues --  -10.32254 -10.27335 -10.26767 -10.26311 -10.25743
  Beta  occ. eigenvalues --  -10.23518 -10.23456 -10.19275  -7.96567  -5.93108
  Beta  occ. eigenvalues --   -5.92696  -5.92050  -1.10550  -1.01757  -0.97692
  Beta  occ. eigenvalues --   -0.93408  -0.91492  -0.89449  -0.84976  -0.81683
  Beta  occ. eigenvalues --   -0.79176  -0.75383  -0.71297  -0.67525  -0.64562
  Beta  occ. eigenvalues --   -0.62014  -0.61087  -0.58548  -0.57802  -0.56535
  Beta  occ. eigenvalues --   -0.56518  -0.53241  -0.49746  -0.48850  -0.46442
  Beta  occ. eigenvalues --   -0.45678  -0.45216  -0.44358  -0.43221  -0.42629
  Beta  occ. eigenvalues --   -0.39791  -0.39509  -0.37012  -0.36875  -0.35468
  Beta  occ. eigenvalues --   -0.35031  -0.33419  -0.32840  -0.30668  -0.29509
  Beta  occ. eigenvalues --   -0.29412  -0.27895  -0.25767  -0.24634  -0.23388
  Beta  occ. eigenvalues --   -0.21429  -0.20779  -0.20283
  Beta virt. eigenvalues --   -0.12387  -0.09055  -0.08777  -0.07732  -0.06697
  Beta virt. eigenvalues --   -0.05642  -0.00498  -0.00416   0.00818   0.02524
  Beta virt. eigenvalues --    0.03406   0.04732   0.05590   0.06641   0.07226
  Beta virt. eigenvalues --    0.08626   0.08832   0.09427   0.09662   0.14769
  Beta virt. eigenvalues --    0.15672   0.16350   0.16736   0.17987   0.19986
  Beta virt. eigenvalues --    0.20952   0.21341   0.24853   0.25642   0.26834
  Beta virt. eigenvalues --    0.27671   0.29366   0.30833   0.31866   0.32223
  Beta virt. eigenvalues --    0.34339   0.35004   0.36447   0.37659   0.38537
  Beta virt. eigenvalues --    0.39101   0.40118   0.40811   0.42893   0.43807
  Beta virt. eigenvalues --    0.44686   0.46503   0.47288   0.47821   0.49189
  Beta virt. eigenvalues --    0.49648   0.50446   0.51367   0.51796   0.53195
  Beta virt. eigenvalues --    0.53730   0.54269   0.54423   0.56369   0.56858
  Beta virt. eigenvalues --    0.57132   0.57942   0.58603   0.60650   0.61133
  Beta virt. eigenvalues --    0.61676   0.62680   0.63067   0.63588   0.63894
  Beta virt. eigenvalues --    0.64260   0.64594   0.64854   0.66044   0.66747
  Beta virt. eigenvalues --    0.67389   0.67641   0.68065   0.69460   0.70155
  Beta virt. eigenvalues --    0.70934   0.71629   0.71957   0.72257   0.73565
  Beta virt. eigenvalues --    0.73987   0.74567   0.75407   0.75545   0.76557
  Beta virt. eigenvalues --    0.76651   0.77405   0.78435   0.78908   0.79260
  Beta virt. eigenvalues --    0.79960   0.81062   0.81896   0.82235   0.82972
  Beta virt. eigenvalues --    0.84191   0.84916   0.85270   0.85827   0.87679
  Beta virt. eigenvalues --    0.88213   0.89075   0.89140   0.90867   0.92002
  Beta virt. eigenvalues --    0.93383   0.94757   0.95233   0.95381   0.96673
  Beta virt. eigenvalues --    0.97764   0.98576   0.98986   1.00045   1.01627
  Beta virt. eigenvalues --    1.02351   1.03648   1.05965   1.07122   1.08255
  Beta virt. eigenvalues --    1.08762   1.10176   1.11008   1.14466   1.15149
  Beta virt. eigenvalues --    1.16333   1.17440   1.18977   1.19547   1.20634
  Beta virt. eigenvalues --    1.22206   1.23638   1.25122   1.26724   1.27799
  Beta virt. eigenvalues --    1.28383   1.29056   1.30424   1.31395   1.33104
  Beta virt. eigenvalues --    1.34270   1.35248   1.36623   1.36954   1.38252
  Beta virt. eigenvalues --    1.39275   1.39894   1.40570   1.41647   1.42631
  Beta virt. eigenvalues --    1.45137   1.46182   1.47024   1.48565   1.48932
  Beta virt. eigenvalues --    1.49569   1.51385   1.52289   1.52508   1.54354
  Beta virt. eigenvalues --    1.54859   1.57041   1.58168   1.59300   1.59892
  Beta virt. eigenvalues --    1.60658   1.62379   1.62859   1.63692   1.66098
  Beta virt. eigenvalues --    1.66556   1.68554   1.69144   1.69836   1.70162
  Beta virt. eigenvalues --    1.71316   1.72106   1.73741   1.74084   1.74744
  Beta virt. eigenvalues --    1.77484   1.77803   1.79021   1.79272   1.79775
  Beta virt. eigenvalues --    1.81112   1.81167   1.83209   1.83659   1.85183
  Beta virt. eigenvalues --    1.86473   1.86634   1.88458   1.90885   1.92590
  Beta virt. eigenvalues --    1.95012   1.96621   1.97895   2.00191   2.02003
  Beta virt. eigenvalues --    2.04340   2.06583   2.08728   2.11196   2.12200
  Beta virt. eigenvalues --    2.12496   2.14951   2.16572   2.17530   2.18922
  Beta virt. eigenvalues --    2.21209   2.22795   2.23185   2.26637   2.29594
  Beta virt. eigenvalues --    2.32268   2.35390   2.37312   2.40108   2.41359
  Beta virt. eigenvalues --    2.44202   2.45853   2.46467   2.47770   2.49764
  Beta virt. eigenvalues --    2.51050   2.52120   2.53117   2.55349   2.56360
  Beta virt. eigenvalues --    2.56552   2.57672   2.60396   2.62821   2.63389
  Beta virt. eigenvalues --    2.66700   2.67887   2.68893   2.72623   2.74583
  Beta virt. eigenvalues --    2.75754   2.78500   2.79462   2.80702   2.81351
  Beta virt. eigenvalues --    2.82084   2.84136   2.84654   2.86724   2.88312
  Beta virt. eigenvalues --    2.88528   2.89918   2.91120   2.91220   2.92547
  Beta virt. eigenvalues --    2.95432   2.97111   2.97680   2.98134   2.99610
  Beta virt. eigenvalues --    3.00037   3.02837   3.03867   3.05104   3.05938
  Beta virt. eigenvalues --    3.08423   3.09544   3.11734   3.14016   3.14800
  Beta virt. eigenvalues --    3.18660   3.19677   3.20034   3.21874   3.23707
  Beta virt. eigenvalues --    3.24380   3.26099   3.26921   3.27826   3.29214
  Beta virt. eigenvalues --    3.30231   3.31977   3.32611   3.34333   3.35488
  Beta virt. eigenvalues --    3.36302   3.37627   3.40080   3.40991   3.41616
  Beta virt. eigenvalues --    3.42782   3.44010   3.46327   3.47258   3.48279
  Beta virt. eigenvalues --    3.52378   3.53916   3.55272   3.55759   3.57240
  Beta virt. eigenvalues --    3.58787   3.61456   3.63357   3.65263   3.66357
  Beta virt. eigenvalues --    3.67683   3.67988   3.68270   3.69362   3.70320
  Beta virt. eigenvalues --    3.71017   3.72871   3.73401   3.74237   3.74492
  Beta virt. eigenvalues --    3.76440   3.77645   3.79148   3.80669   3.81091
  Beta virt. eigenvalues --    3.81403   3.83185   3.84666   3.86344   3.86593
  Beta virt. eigenvalues --    3.87725   3.90661   3.91170   3.92282   3.94322
  Beta virt. eigenvalues --    3.97373   3.99760   3.99956   4.00343   4.01478
  Beta virt. eigenvalues --    4.02349   4.03733   4.04244   4.06107   4.07049
  Beta virt. eigenvalues --    4.09410   4.09876   4.11967   4.13387   4.13756
  Beta virt. eigenvalues --    4.15336   4.16018   4.17275   4.18353   4.18877
  Beta virt. eigenvalues --    4.19802   4.21413   4.22255   4.22893   4.24245
  Beta virt. eigenvalues --    4.25614   4.26360   4.27221   4.27959   4.29370
  Beta virt. eigenvalues --    4.30156   4.31422   4.32512   4.32958   4.34771
  Beta virt. eigenvalues --    4.35772   4.36391   4.37838   4.38228   4.39273
  Beta virt. eigenvalues --    4.40386   4.42083   4.43246   4.44712   4.45715
  Beta virt. eigenvalues --    4.46394   4.47925   4.49188   4.49797   4.50065
  Beta virt. eigenvalues --    4.51357   4.51813   4.53254   4.53392   4.55314
  Beta virt. eigenvalues --    4.56023   4.57021   4.57740   4.59390   4.60816
  Beta virt. eigenvalues --    4.61504   4.61947   4.64349   4.65253   4.66463
  Beta virt. eigenvalues --    4.67906   4.68150   4.70154   4.70389   4.71226
  Beta virt. eigenvalues --    4.73018   4.73129   4.73598   4.74647   4.75836
  Beta virt. eigenvalues --    4.77014   4.79612   4.80611   4.81595   4.82351
  Beta virt. eigenvalues --    4.83579   4.84382   4.86281   4.86464   4.87474
  Beta virt. eigenvalues --    4.90320   4.91009   4.93577   4.94641   4.96594
  Beta virt. eigenvalues --    4.97411   5.00146   5.00948   5.02145   5.04046
  Beta virt. eigenvalues --    5.05175   5.07086   5.08336   5.10474   5.11157
  Beta virt. eigenvalues --    5.15630   5.16706   5.20438   5.22309   5.24172
  Beta virt. eigenvalues --    5.26629   5.28297   5.31312   5.33784   5.34552
  Beta virt. eigenvalues --    5.35006   5.38980   5.41360   5.42651   5.43275
  Beta virt. eigenvalues --    5.48900   5.49615   5.56193   5.59628   5.60933
  Beta virt. eigenvalues --    5.61103   5.65094   5.66509   5.72331   5.80509
  Beta virt. eigenvalues --    5.84581   5.86645   6.06612   6.17949   6.67144
  Beta virt. eigenvalues --    8.84256   9.82726  10.23400  10.36084  10.82174
  Beta virt. eigenvalues --   10.92937  11.16313  11.16750  11.21426  11.25829
  Beta virt. eigenvalues --   11.28242  11.33348  11.37421  11.38092  11.47995
  Beta virt. eigenvalues --   11.51524  11.53153  11.67801  12.47115  13.12169
  Beta virt. eigenvalues --   13.30427  14.32893  18.03003  19.18042  20.80671
          Condensed to atoms (all electrons):
               1          2          3          4          5          6
     1  N    6.356823   0.933291  -0.024908   0.001142   0.000132  -0.000002
     2  C    0.933291   4.611575   0.278616  -0.045375   0.003993  -0.000134
     3  N   -0.024908   0.278616   6.468964   0.414615  -0.056876   0.005854
     4  C    0.001142  -0.045375   0.414615   4.848945   0.550058  -0.025971
     5  C    0.000132   0.003993  -0.056876   0.550058   4.768410   0.490502
     6  C   -0.000002  -0.000134   0.005854  -0.025971   0.490502   5.148063
     7  C    0.000000  -0.000022   0.000792   0.002662  -0.048182   0.464717
     8  C    0.000000  -0.000005   0.000271  -0.001641  -0.018405  -0.091471
     9  C    0.000000  -0.000002  -0.007824   0.008642  -0.008962  -0.047352
    10  C    0.000581  -0.004351   0.177949  -0.047381  -0.024360  -0.002638
    11  N   -0.004587   0.010708  -0.079660   0.007474   0.000822  -0.000040
    12  N   -0.000412   0.001043   0.002346  -0.000127  -0.000002   0.000000
    13  N    0.000001   0.000171  -0.000015   0.000000  -0.000000  -0.000000
    14  N   -0.000000  -0.000001  -0.000020   0.000000  -0.000000  -0.000000
    15  N   -0.000000   0.000001   0.000004   0.000000   0.000000   0.000000
    16  N   -0.000000   0.000001   0.000023   0.000003   0.000003   0.000000
    17  N    0.000000  -0.000085   0.000433  -0.000006  -0.000005  -0.000000
    18  S   -0.000189   0.002058  -0.012423   0.000928   0.001429   0.000288
    19  H    0.001506  -0.000653  -0.017482   0.354332  -0.031624   0.001359
    20  H   -0.000015   0.000907  -0.028483  -0.032667   0.413455  -0.079247
    21  H    0.000000  -0.000003  -0.000203  -0.008403  -0.023211   0.337333
    22  H    0.000000  -0.000002   0.000053   0.000444  -0.018644  -0.019351
    23  H    0.000000  -0.000000   0.000006   0.000054  -0.000574  -0.019522
    24  H    0.000000  -0.000000   0.000138  -0.000087   0.000299   0.008419
    25  H    0.000011   0.000165  -0.000170   0.000008   0.000000  -0.000000
    26  H   -0.000000   0.000000  -0.000000   0.000000   0.000000  -0.000000
    27  H    0.000000  -0.000000   0.000000  -0.000000  -0.000000  -0.000000
    28  H    0.000002   0.000086   0.000136  -0.000009   0.000001  -0.000000
               7          8          9         10         11         12
     1  N    0.000000   0.000000   0.000000   0.000581  -0.004587  -0.000412
     2  C   -0.000022  -0.000005  -0.000002  -0.004351   0.010708   0.001043
     3  N    0.000792   0.000271  -0.007824   0.177949  -0.079660   0.002346
     4  C    0.002662  -0.001641   0.008642  -0.047381   0.007474  -0.000127
     5  C   -0.048182  -0.018405  -0.008962  -0.024360   0.000822  -0.000002
     6  C    0.464717  -0.091471  -0.047352  -0.002638  -0.000040   0.000000
     7  C    5.268538   0.341160  -0.010832  -0.002810   0.000023   0.000000
     8  C    0.341160   5.470166   0.270369  -0.003058  -0.000028   0.000000
     9  C   -0.010832   0.270369   5.708224   0.021198   0.001413  -0.000042
    10  C   -0.002810  -0.003058   0.021198   5.604095   0.083433  -0.001469
    11  N    0.000023  -0.000028   0.001413   0.083433   7.114757   0.149070
    12  N    0.000000   0.000000  -0.000042  -0.001469   0.149070   6.749385
    13  N   -0.000000   0.000000   0.000000   0.000461  -0.028472   0.268863
    14  N   -0.000000   0.000000   0.000004   0.000785  -0.003719  -0.183214
    15  N    0.000000  -0.000000  -0.000002   0.000124  -0.000643   0.006233
    16  N    0.000000   0.000002   0.000074   0.004616  -0.000940  -0.002340
    17  N   -0.000001  -0.000001   0.000844  -0.016024  -0.026216  -0.026848
    18  S    0.000361  -0.000480  -0.003644   0.152278  -0.047801   0.002369
    19  H   -0.000471  -0.000182   0.000191   0.001859  -0.000078   0.000001
    20  H   -0.015102   0.000815  -0.009836   0.010251   0.000761  -0.000004
    21  H   -0.044997   0.002684  -0.002280  -0.000407   0.000001   0.000000
    22  H    0.341437  -0.092059   0.025535   0.001609   0.000040   0.000000
    23  H   -0.081676   0.309004  -0.005475  -0.000075   0.000000  -0.000000
    24  H   -0.013385  -0.020663   0.236040  -0.004120  -0.000002   0.000000
    25  H   -0.000000   0.000000   0.000002   0.000212  -0.014071   0.301738
    26  H    0.000000   0.000000   0.000000   0.000008  -0.000161   0.002065
    27  H   -0.000000  -0.000000   0.000010  -0.000124   0.000181   0.000288
    28  H    0.000000   0.000000  -0.000050  -0.000960   0.007190   0.012860
              13         14         15         16         17         18
     1  N    0.000001  -0.000000  -0.000000  -0.000000   0.000000  -0.000189
     2  C    0.000171  -0.000001   0.000001   0.000001  -0.000085   0.002058
     3  N   -0.000015  -0.000020   0.000004   0.000023   0.000433  -0.012423
     4  C    0.000000   0.000000   0.000000   0.000003  -0.000006   0.000928
     5  C   -0.000000  -0.000000   0.000000   0.000003  -0.000005   0.001429
     6  C   -0.000000  -0.000000   0.000000   0.000000  -0.000000   0.000288
     7  C   -0.000000  -0.000000   0.000000   0.000000  -0.000001   0.000361
     8  C    0.000000   0.000000  -0.000000   0.000002  -0.000001  -0.000480
     9  C    0.000000   0.000004  -0.000002   0.000074   0.000844  -0.003644
    10  C    0.000461   0.000785   0.000124   0.004616  -0.016024   0.152278
    11  N   -0.028472  -0.003719  -0.000643  -0.000940  -0.026216  -0.047801
    12  N    0.268863  -0.183214   0.006233  -0.002340  -0.026848   0.002369
    13  N    6.416479   0.532713  -0.147842   0.005808   0.003574  -0.000206
    14  N    0.532713   6.510278   0.250184  -0.067162   0.005043  -0.000853
    15  N   -0.147842   0.250184   6.649666   0.264641  -0.076196   0.007603
    16  N    0.005808  -0.067162   0.264641   6.574389   0.229551  -0.059272
    17  N    0.003574   0.005043  -0.076196   0.229551   6.556002   0.310075
    18  S   -0.000206  -0.000853   0.007603  -0.059272   0.310075  15.672625
    19  H   -0.000000  -0.000000   0.000000  -0.000000   0.000000   0.000023
    20  H    0.000001   0.000000  -0.000001  -0.000014   0.000022  -0.000174
    21  H   -0.000000  -0.000000   0.000000   0.000000  -0.000000   0.000036
    22  H    0.000000  -0.000000  -0.000000  -0.000003   0.000001  -0.000106
    23  H    0.000000   0.000000  -0.000000  -0.000000   0.000000  -0.000014
    24  H   -0.000000  -0.000000   0.000000   0.000030  -0.000033  -0.000253
    25  H   -0.035792   0.003228   0.009906  -0.002382  -0.003648  -0.000450
    26  H    0.004422  -0.038206   0.359266  -0.037776   0.003427  -0.000050
    27  H   -0.000529   0.003834  -0.034719   0.342134  -0.053815   0.006193
    28  H   -0.003852  -0.002960   0.016426  -0.060848   0.319084  -0.047840
              19         20         21         22         23         24
     1  N    0.001506  -0.000015   0.000000   0.000000   0.000000   0.000000
     2  C   -0.000653   0.000907  -0.000003  -0.000002  -0.000000  -0.000000
     3  N   -0.017482  -0.028483  -0.000203   0.000053   0.000006   0.000138
     4  C    0.354332  -0.032667  -0.008403   0.000444   0.000054  -0.000087
     5  C   -0.031624   0.413455  -0.023211  -0.018644  -0.000574   0.000299
     6  C    0.001359  -0.079247   0.337333  -0.019351  -0.019522   0.008419
     7  C   -0.000471  -0.015102  -0.044997   0.341437  -0.081676  -0.013385
     8  C   -0.000182   0.000815   0.002684  -0.092059   0.309004  -0.020663
     9  C    0.000191  -0.009836  -0.002280   0.025535  -0.005475   0.236040
    10  C    0.001859   0.010251  -0.000407   0.001609  -0.000075  -0.004120
    11  N   -0.000078   0.000761   0.000001   0.000040   0.000000  -0.000002
    12  N    0.000001  -0.000004   0.000000   0.000000  -0.000000   0.000000
    13  N   -0.000000   0.000001  -0.000000   0.000000   0.000000  -0.000000
    14  N   -0.000000   0.000000  -0.000000  -0.000000   0.000000  -0.000000
    15  N    0.000000  -0.000001   0.000000  -0.000000  -0.000000   0.000000
    16  N   -0.000000  -0.000014   0.000000  -0.000003  -0.000000   0.000030
    17  N    0.000000   0.000022  -0.000000   0.000001   0.000000  -0.000033
    18  S    0.000023  -0.000174   0.000036  -0.000106  -0.000014  -0.000253
    19  H    0.506120   0.003555   0.001791  -0.000026  -0.000015   0.000001
    20  H    0.003555   0.567139   0.007916   0.003015   0.000326   0.000103
    21  H    0.001791   0.007916   0.580105   0.003285   0.006627   0.000215
    22  H   -0.000026   0.003015   0.003285   0.583905   0.011948   0.007896
    23  H   -0.000015   0.000326   0.006627   0.011948   0.552754   0.005513
    24  H    0.000001   0.000103   0.000215   0.007896   0.005513   0.603010
    25  H   -0.000000   0.000000  -0.000000  -0.000000   0.000000  -0.000000
    26  H   -0.000000  -0.000000  -0.000000  -0.000000  -0.000000   0.000000
    27  H    0.000000   0.000000  -0.000000   0.000000   0.000000  -0.000005
    28  H    0.000000  -0.000001   0.000000  -0.000000  -0.000000  -0.000001
              25         26         27         28
     1  N    0.000011  -0.000000   0.000000   0.000002
     2  C    0.000165   0.000000  -0.000000   0.000086
     3  N   -0.000170  -0.000000   0.000000   0.000136
     4  C    0.000008   0.000000  -0.000000  -0.000009
     5  C    0.000000   0.000000  -0.000000   0.000001
     6  C   -0.000000  -0.000000  -0.000000  -0.000000
     7  C   -0.000000   0.000000  -0.000000   0.000000
     8  C    0.000000   0.000000  -0.000000   0.000000
     9  C    0.000002   0.000000   0.000010  -0.000050
    10  C    0.000212   0.000008  -0.000124  -0.000960
    11  N   -0.014071  -0.000161   0.000181   0.007190
    12  N    0.301738   0.002065   0.000288   0.012860
    13  N   -0.035792   0.004422  -0.000529  -0.003852
    14  N    0.003228  -0.038206   0.003834  -0.002960
    15  N    0.009906   0.359266  -0.034719   0.016426
    16  N   -0.002382  -0.037776   0.342134  -0.060848
    17  N   -0.003648   0.003427  -0.053815   0.319084
    18  S   -0.000450  -0.000050   0.006193  -0.047840
    19  H   -0.000000  -0.000000   0.000000   0.000000
    20  H    0.000000  -0.000000   0.000000  -0.000001
    21  H   -0.000000  -0.000000  -0.000000   0.000000
    22  H   -0.000000  -0.000000   0.000000  -0.000000
    23  H    0.000000  -0.000000   0.000000  -0.000000
    24  H   -0.000000   0.000000  -0.000005  -0.000001
    25  H    0.456303   0.000330   0.000116   0.014408
    26  H    0.000330   0.449149  -0.006441   0.002430
    27  H    0.000116  -0.006441   0.477607   0.005456
    28  H    0.014408   0.002430   0.005456   0.504804
          Atomic-Atomic Spin Densities.
               1          2          3          4          5          6
     1  N    0.004380   0.002543  -0.000902   0.000405   0.000010   0.000000
     2  C    0.002543  -0.018729   0.003914   0.000387  -0.000025  -0.000006
     3  N   -0.000902   0.003914   0.060978  -0.011846   0.000207   0.000244
     4  C    0.000405   0.000387  -0.011846  -0.011183   0.001814   0.000587
     5  C    0.000010  -0.000025   0.000207   0.001814   0.038762   0.007090
     6  C    0.000000  -0.000006   0.000244   0.000587   0.007090  -0.091649
     7  C    0.000000   0.000002  -0.000104  -0.000083  -0.011371  -0.004203
     8  C   -0.000000   0.000001  -0.000067   0.000013   0.000464   0.004227
     9  C    0.000000  -0.000031   0.000314   0.000599   0.008368   0.006321
    10  C    0.000001   0.000096   0.006416  -0.000259  -0.010066   0.000799
    11  N    0.000253  -0.004389  -0.021860   0.001937   0.000203   0.000011
    12  N    0.000089  -0.000153   0.000805  -0.000044  -0.000000  -0.000000
    13  N    0.000001  -0.000010   0.000017  -0.000001  -0.000000   0.000000
    14  N    0.000000  -0.000001   0.000000  -0.000000  -0.000000   0.000000
    15  N    0.000000  -0.000000  -0.000001   0.000000  -0.000000  -0.000000
    16  N   -0.000000  -0.000000   0.000006  -0.000000   0.000000  -0.000000
    17  N    0.000000   0.000003  -0.000018   0.000002  -0.000001  -0.000000
    18  S    0.000060   0.000152  -0.005260   0.001536   0.000077  -0.000038
    19  H   -0.000109  -0.000035   0.000440  -0.000952  -0.000354  -0.000168
    20  H   -0.000001   0.000041   0.000123   0.000513  -0.001622  -0.000208
    21  H    0.000000   0.000001  -0.000012   0.000201  -0.000070   0.000008
    22  H   -0.000000   0.000000  -0.000017  -0.000006  -0.001374   0.000615
    23  H   -0.000000   0.000000  -0.000003   0.000039   0.000148   0.002544
    24  H    0.000000   0.000000  -0.000002   0.000011  -0.000064  -0.000355
    25  H    0.000012  -0.000067  -0.000037   0.000002  -0.000000   0.000000
    26  H    0.000000  -0.000000  -0.000000   0.000000  -0.000000   0.000000
    27  H   -0.000000   0.000000   0.000000  -0.000000  -0.000000   0.000000
    28  H   -0.000002   0.000002  -0.000023   0.000001  -0.000000   0.000000
               7          8          9         10         11         12
     1  N    0.000000  -0.000000   0.000000   0.000001   0.000253   0.000089
     2  C    0.000002   0.000001  -0.000031   0.000096  -0.004389  -0.000153
     3  N   -0.000104  -0.000067   0.000314   0.006416  -0.021860   0.000805
     4  C   -0.000083   0.000013   0.000599  -0.000259   0.001937  -0.000044
     5  C   -0.011371   0.000464   0.008368  -0.010066   0.000203  -0.000000
     6  C   -0.004203   0.004227   0.006321   0.000799   0.000011  -0.000000
     7  C    0.100243  -0.000722  -0.005381   0.002272  -0.000002   0.000000
     8  C   -0.000722  -0.064464   0.015816   0.000111  -0.000001  -0.000000
     9  C   -0.005381   0.015816  -0.228921  -0.033228   0.000363   0.000002
    10  C    0.002272   0.000111  -0.033228   0.093964  -0.027863  -0.001175
    11  N   -0.000002  -0.000001   0.000363  -0.027863   1.095096  -0.029174
    12  N    0.000000  -0.000000   0.000002  -0.001175  -0.029174   0.091405
    13  N   -0.000000   0.000000  -0.000001   0.000445  -0.006623   0.003874
    14  N    0.000000  -0.000000  -0.000001   0.000163   0.000269  -0.004933
    15  N   -0.000000   0.000000   0.000000   0.000081  -0.000089   0.002854
    16  N   -0.000000   0.000000   0.000020  -0.000243   0.001763  -0.001309
    17  N    0.000000   0.000000  -0.000104  -0.000702  -0.006039   0.001263
    18  S   -0.000033  -0.000151   0.003014   0.015036  -0.059137   0.000076
    19  H   -0.000069   0.000012   0.000100  -0.000085  -0.000089   0.000001
    20  H    0.000692  -0.000004   0.000218   0.003172  -0.000044  -0.000006
    21  H    0.000197  -0.000174   0.000112   0.000022   0.000000  -0.000000
    22  H    0.002956   0.001216  -0.006206   0.001321  -0.000008  -0.000000
    23  H    0.010432  -0.007174   0.000050  -0.000063   0.000000   0.000000
    24  H    0.000467   0.001871  -0.002459   0.000438  -0.000001  -0.000000
    25  H    0.000000  -0.000000   0.000000  -0.000058  -0.002453  -0.001353
    26  H   -0.000000  -0.000000  -0.000000   0.000007  -0.000024   0.000231
    27  H    0.000000  -0.000000   0.000000  -0.000008  -0.000014  -0.000052
    28  H    0.000000   0.000000  -0.000008   0.000538  -0.001905  -0.000892
              13         14         15         16         17         18
     1  N    0.000001   0.000000   0.000000  -0.000000   0.000000   0.000060
     2  C   -0.000010  -0.000001  -0.000000  -0.000000   0.000003   0.000152
     3  N    0.000017   0.000000  -0.000001   0.000006  -0.000018  -0.005260
     4  C   -0.000001  -0.000000   0.000000  -0.000000   0.000002   0.001536
     5  C   -0.000000  -0.000000  -0.000000   0.000000  -0.000001   0.000077
     6  C    0.000000   0.000000  -0.000000  -0.000000  -0.000000  -0.000038
     7  C   -0.000000   0.000000  -0.000000  -0.000000   0.000000  -0.000033
     8  C    0.000000  -0.000000   0.000000   0.000000   0.000000  -0.000151
     9  C   -0.000001  -0.000001   0.000000   0.000020  -0.000104   0.003014
    10  C    0.000445   0.000163   0.000081  -0.000243  -0.000702   0.015036
    11  N   -0.006623   0.000269  -0.000089   0.001763  -0.006039  -0.059137
    12  N    0.003874  -0.004933   0.002854  -0.001309   0.001263   0.000076
    13  N    0.010884   0.000524  -0.000587   0.000335  -0.000053  -0.000458
    14  N    0.000524  -0.000383   0.000816  -0.000605   0.000040  -0.000125
    15  N   -0.000587   0.000816  -0.011021   0.002012  -0.000725  -0.000006
    16  N    0.000335  -0.000605   0.002012  -0.003024  -0.001372   0.000815
    17  N   -0.000053   0.000040  -0.000725  -0.001372   0.023214  -0.003108
    18  S   -0.000458  -0.000125  -0.000006   0.000815  -0.003108   0.205690
    19  H   -0.000000  -0.000000  -0.000000   0.000000  -0.000000  -0.000005
    20  H    0.000000   0.000001   0.000000   0.000000  -0.000002  -0.000076
    21  H   -0.000000   0.000000  -0.000000  -0.000000   0.000000   0.000002
    22  H   -0.000000   0.000000  -0.000000  -0.000000   0.000000  -0.000034
    23  H   -0.000000  -0.000000  -0.000000   0.000000   0.000000   0.000003
    24  H   -0.000000   0.000000  -0.000000  -0.000002   0.000002   0.000161
    25  H   -0.004253  -0.001809   0.000045  -0.000112  -0.000334   0.000852
    26  H   -0.000387   0.000266   0.000666   0.000443  -0.000067  -0.000027
    27  H    0.000004   0.000020   0.000007   0.000489  -0.000138  -0.000127
    28  H    0.000199  -0.000013   0.000126   0.001080   0.000604  -0.000090
              19         20         21         22         23         24
     1  N   -0.000109  -0.000001   0.000000  -0.000000  -0.000000   0.000000
     2  C   -0.000035   0.000041   0.000001   0.000000   0.000000   0.000000
     3  N    0.000440   0.000123  -0.000012  -0.000017  -0.000003  -0.000002
     4  C   -0.000952   0.000513   0.000201  -0.000006   0.000039   0.000011
     5  C   -0.000354  -0.001622  -0.000070  -0.001374   0.000148  -0.000064
     6  C   -0.000168  -0.000208   0.000008   0.000615   0.002544  -0.000355
     7  C   -0.000069   0.000692   0.000197   0.002956   0.010432   0.000467
     8  C    0.000012  -0.000004  -0.000174   0.001216  -0.007174   0.001871
     9  C    0.000100   0.000218   0.000112  -0.006206   0.000050  -0.002459
    10  C   -0.000085   0.003172   0.000022   0.001321  -0.000063   0.000438
    11  N   -0.000089  -0.000044   0.000000  -0.000008   0.000000  -0.000001
    12  N    0.000001  -0.000006  -0.000000  -0.000000   0.000000  -0.000000
    13  N   -0.000000   0.000000  -0.000000  -0.000000  -0.000000  -0.000000
    14  N   -0.000000   0.000001   0.000000   0.000000  -0.000000   0.000000
    15  N   -0.000000   0.000000  -0.000000  -0.000000  -0.000000  -0.000000
    16  N    0.000000   0.000000  -0.000000  -0.000000   0.000000  -0.000002
    17  N   -0.000000  -0.000002   0.000000   0.000000   0.000000   0.000002
    18  S   -0.000005  -0.000076   0.000002  -0.000034   0.000003   0.000161
    19  H    0.004230  -0.000028  -0.000022  -0.000001   0.000007  -0.000000
    20  H   -0.000028  -0.004483  -0.000053   0.000090  -0.000023  -0.000023
    21  H   -0.000022  -0.000053   0.002422   0.000019   0.000214  -0.000010
    22  H   -0.000001   0.000090   0.000019   0.000630  -0.000872   0.000449
    23  H    0.000007  -0.000023   0.000214  -0.000872  -0.009827   0.000114
    24  H   -0.000000  -0.000023  -0.000010   0.000449   0.000114   0.008224
    25  H   -0.000000  -0.000000   0.000000  -0.000000  -0.000000   0.000000
    26  H   -0.000000   0.000000   0.000000   0.000000  -0.000000   0.000000
    27  H   -0.000000  -0.000000   0.000000  -0.000000  -0.000000   0.000000
    28  H   -0.000000   0.000001   0.000000   0.000000  -0.000000   0.000000
              25         26         27         28
     1  N    0.000012   0.000000  -0.000000  -0.000002
     2  C   -0.000067  -0.000000   0.000000   0.000002
     3  N   -0.000037  -0.000000   0.000000  -0.000023
     4  C    0.000002   0.000000  -0.000000   0.000001
     5  C   -0.000000  -0.000000  -0.000000  -0.000000
     6  C    0.000000   0.000000   0.000000   0.000000
     7  C    0.000000  -0.000000   0.000000   0.000000
     8  C   -0.000000  -0.000000  -0.000000   0.000000
     9  C    0.000000  -0.000000   0.000000  -0.000008
    10  C   -0.000058   0.000007  -0.000008   0.000538
    11  N   -0.002453  -0.000024  -0.000014  -0.001905
    12  N   -0.001353   0.000231  -0.000052  -0.000892
    13  N   -0.004253  -0.000387   0.000004   0.000199
    14  N   -0.001809   0.000266   0.000020  -0.000013
    15  N    0.000045   0.000666   0.000007   0.000126
    16  N   -0.000112   0.000443   0.000489   0.001080
    17  N   -0.000334  -0.000067  -0.000138   0.000604
    18  S    0.000852  -0.000027  -0.000127  -0.000090
    19  H   -0.000000  -0.000000  -0.000000  -0.000000
    20  H   -0.000000   0.000000  -0.000000   0.000001
    21  H    0.000000   0.000000   0.000000   0.000000
    22  H   -0.000000   0.000000  -0.000000   0.000000
    23  H   -0.000000  -0.000000  -0.000000  -0.000000
    24  H    0.000000   0.000000   0.000000   0.000000
    25  H    0.017688  -0.000039   0.000004  -0.000359
    26  H   -0.000039  -0.002401   0.000001  -0.000067
    27  H    0.000004   0.000001  -0.000175  -0.000079
    28  H   -0.000359  -0.000067  -0.000079   0.000070
 Mulliken charges and spin densities:
               1          2
     1  N   -0.263377   0.006738
     2  C    0.208021  -0.016305
     3  N   -0.122138   0.033312
     4  C   -0.027639  -0.016327
     5  C    0.001744   0.032195
     6  C   -0.170806  -0.074181
     7  C   -0.202213   0.095294
     8  C   -0.166479  -0.049026
     9  C   -0.176247  -0.241043
    10  C    0.048319   0.051133
    11  N   -0.169456   0.940179
    12  N   -0.281803   0.061508
    13  N   -0.015786   0.003909
    14  N   -0.009935  -0.005769
    15  N   -0.304653  -0.005822
    16  N   -0.190539   0.000297
    17  N   -0.225177   0.012465
    18  S    0.017488   0.158798
    19  H    0.179791   0.002870
    20  H    0.157277  -0.001721
    21  H    0.139510   0.002858
    22  H    0.151021  -0.001221
    23  H    0.221116  -0.004413
    24  H    0.176884   0.008822
    25  H    0.270086   0.007729
    26  H    0.261539  -0.001397
    27  H    0.259812  -0.000067
    28  H    0.233639  -0.000820
 Sum of Mulliken charges =  -0.00000   1.00000
 Mulliken charges and spin densities with hydrogens summed into heavy atoms:
               1          2
     1  N   -0.263377   0.006738
     2  C    0.208021  -0.016305
     3  N   -0.122138   0.033312
     4  C    0.152151  -0.013457
     5  C    0.159022   0.030475
     6  C   -0.031296  -0.071322
     7  C   -0.051191   0.094073
     8  C    0.054637  -0.053439
     9  C    0.000638  -0.232220
    10  C    0.048319   0.051133
    11  N   -0.169456   0.940179
    12  N   -0.011716   0.069237
    13  N   -0.015786   0.003909
    14  N   -0.009935  -0.005769
    15  N   -0.043114  -0.007219
    16  N    0.069273   0.000230
    17  N    0.008461   0.011646
    18  S    0.017488   0.158798
 Electronic spatial extent (au):  <R**2>=           4733.6390
 Charge=             -0.0000 electrons
 Dipole moment (field-independent basis, Debye):
    X=             -2.0831    Y=             -4.2033    Z=              1.2374  Tot=              4.8516
 Quadrupole moment (field-independent basis, Debye-Ang):
   XX=            -77.3489   YY=           -121.7973   ZZ=           -122.7496
   XY=             -4.4052   XZ=              8.3389   YZ=              0.6435
 Traceless Quadrupole moment (field-independent basis, Debye-Ang):
   XX=             29.9497   YY=            -14.4987   ZZ=            -15.4510
   XY=             -4.4052   XZ=              8.3389   YZ=              0.6435
 Octapole moment (field-independent basis, Debye-Ang**2):
  XXX=             52.4444  YYY=           -100.9684  ZZZ=             10.2576  XYY=             10.3439
  XXY=            -18.7086  XXZ=             36.2599  XZZ=             -2.0738  YZZ=              3.4404
  YYZ=            -10.2872  XYZ=             -6.1939
 Hexadecapole moment (field-independent basis, Debye-Ang**3):
 XXXX=          -3174.7537 YYYY=          -2090.6280 ZZZZ=           -799.5679 XXXY=            -84.9798
 XXXZ=             42.4365 YYYX=            -77.9797 YYYZ=            -69.8895 ZZZX=             18.9755
 ZZZY=              0.7450 XXYY=           -815.7173 XXZZ=           -878.9304 YYZZ=           -449.0836
 XXYZ=             31.6474 YYXZ=             18.5851 ZZXY=            -15.0030
 N-N= 1.429309919578D+03 E-N=-5.675053326059D+03  KE= 1.194254741347D+03
                          Isotropic Fermi Contact Couplings
        Atom                 a.u.       MegaHertz       Gauss      10(-4) cm-1
     1  N(14)              0.00018       0.05861       0.02091       0.01955
     2  C(13)             -0.00806      -9.06612      -3.23502      -3.02413
     3  N(14)              0.02675       8.64277       3.08396       2.88292
[...]
      5          6           0       -1.538187    1.018012   -0.109456
      6          6           0       -2.960945    1.021233    0.127843
      7          6           0       -3.762504   -0.028354   -0.126489
      8          6           0       -5.203877   -0.015083    0.110662
      9          6           0       -6.003360   -1.063453    0.139682
     10          6           0        1.322915    0.689885    0.014931
     11          7           0        2.209405    0.383665   -1.014766
     12          7           0        2.140899   -0.875000   -1.411471
     13          7           0        0.798173   -1.444603   -1.797940
     14          7           0        0.499434   -2.510549   -1.277481
     15          7           0        1.380778   -2.980275   -0.196321
     16          7           0        1.017410   -2.272747    0.987043
     17          7           0        2.099461   -1.497010    1.523196
     18         16           0        1.747242    0.183800    1.666276
     19          1           0       -1.039619    3.016169    0.509125
     20          1           0       -1.080460    0.120389   -0.519346
     21          1           0       -3.394521    1.938565    0.523464
     22          1           0       -3.334083   -0.942037   -0.531930
     23          1           0       -5.636152    0.976532    0.272130
     24          1           0       -5.967264   -2.133021   -0.010264
     25          1           0        2.757454   -1.052597   -2.202318
     26          1           0        1.092664   -3.949685   -0.071359
     27          1           0        0.734690   -2.935594    1.699111
     28          1           0        2.916194   -1.647779    0.936873
 ---------------------------------------------------------------------
 Rotational constants (GHZ):           0.4375352           0.2668774           0.2004271
 Standard basis: 6-31G(2df,p) (6D, 7F)
 There are   612 symmetry adapted cartesian basis functions of A   symmetry.
 There are   558 symmetry adapted basis functions of A   symmetry.
   558 basis functions,   886 primitive gaussians,   612 cartesian basis functions
    69 alpha electrons       68 beta electrons
       nuclear repulsion energy      1386.3876493841 Hartrees.
 NAtoms=   28 NActive=   28 NUniq=   28 SFac= 1.00D+00 NAtFMM=   60 NAOKFM=F Big=F
 Integral buffers will be    131072 words long.
 Raffenetti 2 integral format.
 Two-electron integral symmetry is turned on.
 One-electron integrals computed using PRISM.
 PrsmSu:  requested number of processors reduced to:  12 ShMem   1 Linda.
 NBasis=   558 RedAO= T EigKep=  1.17D-04  NBF=   558
 NBsUse=   558 1.00D-06 EigRej= -1.00D+00 NBFU=   558
 Initial guess from the checkpoint file:  "NtCN1CdCCdCCdCC12[N]NNdNNNNS2.chk"
 B after Tr=     0.000000    0.000000   -0.000000
         Rot=    0.999799   -0.006620    0.002599    0.018719 Ang=  -2.29 deg.
 Initial guess <Sx>= 0.0000 <Sy>= 0.0000 <Sz>= 0.5000 <S**2>= 1.7725 S= 0.9222
 ExpMin= 1.17D-01 ExpMax= 2.19D+04 ExpMxC= 3.30D+03 IAcc=2 IRadAn=         4 AccDes= 0.00D+00
 Harris functional with IExCor=  402 and IRadAn=       4 diagonalized for initial guess.
 HarFok:  IExCor=  402 AccDes= 0.00D+00 IRadAn=         4 IDoV= 1 UseB2=F ITyADJ=14
 ICtDFT=  3500011 ScaDFX=  1.000000  1.000000  1.000000  1.000000
 FoFCou: FMM=F IPFlag=           0 FMFlag=      100000 FMFlg1=           0
         NFxFlg=           0 DoJE=T BraDBF=F KetDBF=T FulRan=T
         wScrn=  0.000000 ICntrl=       500 IOpCl=  0 I1Cent=   200000004 NGrid=           0
         NMat0=    1 NMatS0=      1 NMatT0=    0 NMatD0=    1 NMtDS0=    0 NMtDT0=    0
 Petite list used in FoFCou.
 Requested convergence on RMS density matrix=1.00D-08 within 128 cycles.
 Requested convergence on MAX density matrix=1.00D-06.
 Requested convergence on             energy=1.00D-06.
 No special actions if energy rises.
 Integral accuracy reduced to 1.0D-05 until final iterations.
 Initial convergence to 1.0D-05 achieved.  Increase integral accuracy.
 SCF Done:  E(UB3LYP) =  -1201.39112984     A.U. after   20 cycles
            NFock= 20  Conv=0.70D-08     -V/T= 2.0057
 <Sx>= 0.0000 <Sy>= 0.0000 <Sz>= 0.5000 <S**2>= 1.7741 S= 0.9227
 <L.S>=  0.00000000000    
 Annihilation of the first spin contaminant:
 S**2 before annihilation     1.7741,   after     0.8319
 PrsmSu:  requested number of processors reduced to:  13 ShMem   1 Linda.
 Calling FoFJK, ICntrl=      2127 FMM=F ISym2X=0 I1Cent= 0 IOpClX= 1 NMat=1 NMatS=1 NMatT=0.
 ***** Axes restored to original set *****
 -------------------------------------------------------------------
 Center     Atomic                   Forces (Hartrees/Bohr)
 Number     Number              X              Y              Z
 -------------------------------------------------------------------
      1        7           0.001141643   -0.000914812    0.000143460
      2        6           0.000567618    0.001431308   -0.000063078
      3        7          -0.000764015   -0.007049369   -0.006444000
      4        6          -0.004048020    0.003106429    0.001470041
      5        6           0.001849167   -0.000472227   -0.000048129
      6        6          -0.006169424    0.002257124    0.000241384
      7        6           0.005126760    0.000047102   -0.002077292
      8        6          -0.000537697    0.001048770   -0.000724499
      9        6          -0.000613405    0.001315746   -0.002143281
     10        6          -0.002335829    0.003427251    0.005395319
     11        7          -0.002632429   -0.001861954   -0.000608036
     12        7          -0.004289491    0.001927751    0.005007596
     13        7           0.012786328    0.003641085    0.000135727
     14        7          -0.006232824   -0.001572122   -0.001566508
     15        7           0.002995893    0.000625019   -0.000264594
     16        7          -0.000898073   -0.003082758   -0.002075534
     17        7          -0.000265016   -0.001308648   -0.002980385
     18       16           0.001925339    0.000728148    0.001881199
     19        1           0.000552129   -0.000177731   -0.000529112
     20        1           0.002950959   -0.002047132   -0.000854361
     21        1           0.000415486   -0.000433889    0.000205726
     22        1           0.000478207   -0.001216346    0.001890734
     23        1           0.000897781   -0.001937563    0.002225164
     24        1          -0.001057458   -0.000270770    0.000855468
     25        1          -0.000751392    0.001039853   -0.001081808
     26        1          -0.001365976    0.000080600   -0.001791942
     27        1           0.000473928    0.001508675    0.002595526
     28        1          -0.000200187    0.000160459    0.001205215
 -------------------------------------------------------------------
 Cartesian Forces:  Max     0.012786328 RMS     0.002734127

 GradGradGradGradGradGradGradGradGradGradGradGradGradGradGradGradGradGrad
 Berny optimization.
 Using GEDIIS/GDIIS optimizer.
 FormGI is forming the generalized inverse of G from B-inverse, IUseBI=4.
 Internal  Forces:  Max     0.007846087 RMS     0.001619755
 Search for a local minimum.
 Step number  12 out of a maximum of  140
 All quantities printed in internal units (Hartrees-Bohrs-Radians)
 Mixed Optimization -- RFO/linear search
 Update second derivatives using D2CorX and points   11   12
 DE= -5.58D-03 DEPred=-5.67D-03 R= 9.83D-01
 TightC=F SS=  1.41D+00  RLast= 1.30D+00 DXNew= 5.0454D+00 3.8937D+00
 Trust test= 9.83D-01 RLast= 1.30D+00 DXMaxT set to 3.00D+00
 ITU=  1  1  1  1  1  1  1  1  0  0  1  0
 Use linear search instead of GDIIS.
     Eigenvalues ---    0.00075   0.00496   0.00733   0.00908   0.00954
     Eigenvalues ---    0.01024   0.01098   0.01430   0.01562   0.01850
     Eigenvalues ---    0.02008   0.02067   0.02298   0.02329   0.02346
     Eigenvalues ---    0.02630   0.02703   0.02915   0.03069   0.03528
     Eigenvalues ---    0.04191   0.05323   0.05486   0.05913   0.06366
     Eigenvalues ---    0.07582   0.09783   0.10311   0.10981   0.11801
     Eigenvalues ---    0.12115   0.12578   0.13097   0.13757   0.14615
     Eigenvalues ---    0.14957   0.15772   0.16002   0.16165   0.16427
     Eigenvalues ---    0.17809   0.18740   0.20017   0.20801   0.21380
     Eigenvalues ---    0.21519   0.21587   0.21930   0.22037   0.22836
     Eigenvalues ---    0.23733   0.24416   0.24769   0.24996   0.26052
     Eigenvalues ---    0.26588   0.31648   0.32948   0.35346   0.35675
     Eigenvalues ---    0.37317   0.37804   0.39762   0.40758   0.41225
     Eigenvalues ---    0.43655   0.44416   0.45539   0.45735   0.47229
     Eigenvalues ---    0.48599   0.50430   0.53087   0.55661   0.56837
     Eigenvalues ---    0.63457   0.80832   1.24447
 RFO step:  Lambda=-3.11131869D-03 EMin= 7.48818041D-04
 Quartic linear search produced a step of  0.60157.
 Iteration  1 RMS(Cart)=  0.00309178 RMS(Int)=  0.06209011
 Iteration  2 RMS(Cart)=  0.00211088 RMS(Int)=  0.05403510
 Iteration  3 RMS(Cart)=  0.00291816 RMS(Int)=  0.04725204
 Iteration  4 RMS(Cart)=  0.00315793 RMS(Int)=  0.04073682
 Iteration  5 RMS(Cart)=  0.00548067 RMS(Int)=  0.03252140
 Iteration  6 RMS(Cart)=  0.00638041 RMS(Int)=  0.02690978
 SLEqS3 Cycle:    75 Max:0.456209E-01 RMS: 4805.74     Conv:0.287045E-01
 Iteration  7 RMS(Cart)=  0.07992432 RMS(Int)=  0.00704250
 Iteration  8 RMS(Cart)=  0.01028720 RMS(Int)=  0.00585421
 SLEqS3 Cycle:   695 Max:0.291653E-02 RMS:0.452496E-03 Conv:0.962453E-03
 Iteration  9 RMS(Cart)=  0.00000191 RMS(Int)=  0.00585362
 SLEqS3 Cycle:   143 Max:0.318167E-02 RMS:0.457289E-03 Conv:0.192940E-02
 New curvilinear step failed:  FormB failed.
 Iteration  1 RMS(Cart)=  0.00295914 RMS(Int)=  0.06053278
 Iteration  2 RMS(Cart)=  0.00199204 RMS(Int)=  0.05240745
 Iteration  3 RMS(Cart)=  0.00279398 RMS(Int)=  0.04555217
 Iteration  4 RMS(Cart)=  0.00293864 RMS(Int)=  0.03908665
 Iteration  5 RMS(Cart)=  0.00518886 RMS(Int)=  0.03102304
 Iteration  6 RMS(Cart)=  0.00580186 RMS(Int)=  0.02587743
 SLEqS3 Cycle:    90 Max:0.453115E-01 RMS: 4272.38     Conv:0.255479E-01
 Iteration  7 RMS(Cart)=  0.07582111 RMS(Int)=  0.00658535
 Iteration  8 RMS(Cart)=  0.00000791 RMS(Int)=  0.00601971
 Iteration  9 RMS(Cart)=  0.00001045 RMS(Int)=  0.38871769
 SLEqS3 Cycle:   841 Max:0.579160E-03 RMS:0.936937E-04 Conv:0.198269E-06
 SLEqS3 Cycle:   841 Max:0.125892E-01 RMS:0.300694E-02 Conv:0.198269E-06
 Iteration 10 RMS(Cart)=  0.02022211 RMS(Int)=  0.38608080
 SLEqS3 Cycle:   841 Max:0.143706E-01 RMS:0.303517E-02 Conv:0.383397E-07
 SLEqS3 Cycle:   841 Max:0.304845E-01 RMS:0.434543E-02 Conv:0.383397E-07
 Iteration 11 RMS(Cart)=  0.00237356 RMS(Int)=  0.38601416
 SLEqS3 Cycle:   841 Max:0.275816E-01 RMS:0.397354E-02 Conv:0.346799E-07
 SLEqS3 Cycle:   841 Max:0.275821E-01 RMS:0.397360E-02 Conv:0.346799E-07
 Iteration 12 RMS(Cart)=  0.00177501 RMS(Int)=  0.38595297
 SLEqS3 Cycle:   841 Max:0.249265E-01 RMS:0.363438E-02 Conv:0.312069E-07
 SLEqS3 Cycle:   841 Max:0.249262E-01 RMS:0.363435E-02 Conv:0.312069E-07
 Iteration 13 RMS(Cart)=  0.00159942 RMS(Int)=  0.38589986
 SLEqS3 Cycle:   841 Max:0.225341E-01 RMS:0.333113E-02 Conv:0.281841E-07
 SLEqS3 Cycle:   841 Max:0.225356E-01 RMS:0.333135E-02 Conv:0.281841E-07
 Iteration 14 RMS(Cart)=  0.00142901 RMS(Int)=  0.38585258
 SLEqS3 Cycle:   841 Max:0.203883E-01 RMS:0.306188E-02 Conv:0.254740E-07
 SLEqS3 Cycle:   841 Max:0.226438E-01 RMS:0.337375E-02 Conv:0.254740E-07
 Iteration 15 RMS(Cart)=  0.00003083 RMS(Int)=  0.38585183
 SLEqS3 Cycle:   841 Max:0.203557E-01 RMS:0.305779E-02 Conv:0.254328E-07
 SLEqS3 Cycle:   841 Max:0.203548E-01 RMS:0.305768E-02 Conv:0.254328E-07
 Iteration 16 RMS(Cart)=  0.00127114 RMS(Int)=  0.38580969
 SLEqS3 Cycle:   841 Max:0.184306E-01 RMS:0.281903E-02 Conv:0.230013E-07
 SLEqS3 Cycle:   841 Max:0.184305E-01 RMS:0.281901E-02 Conv:0.230013E-07
 Iteration 17 RMS(Cart)=  0.00114168 RMS(Int)=  0.38577212
 SLEqS3 Cycle:   841 Max:0.167032E-01 RMS:0.260761E-02 Conv:0.208168E-07
 SLEqS3 Cycle:   841 Max:0.167041E-01 RMS:0.260773E-02 Conv:0.208168E-07
 Iteration 18 RMS(Cart)=  0.00102314 RMS(Int)=  0.38573859
 SLEqS3 Cycle:   841 Max:0.151575E-01 RMS:0.242134E-02 Conv:0.188554E-07
 SLEqS3 Cycle:   841 Max:0.151572E-01 RMS:0.242131E-02 Conv:0.188554E-07
 Iteration 19 RMS(Cart)=  0.00091665 RMS(Int)=  0.38570872
 SLEqS3 Cycle:   841 Max:0.137732E-01 RMS:0.225743E-02 Conv:0.170966E-07
 SLEqS3 Cycle:   841 Max:0.137726E-01 RMS:0.225735E-02 Conv:0.170966E-07
 Iteration 20 RMS(Cart)=  0.00082128 RMS(Int)=  0.38568212
 SLEqS3 Cycle:   841 Max:0.125332E-01 RMS:0.211347E-02 Conv:0.155207E-07
 SLEqS3 Cycle:   841 Max:0.125327E-01 RMS:0.211341E-02 Conv:0.155207E-07
 Iteration 21 RMS(Cart)=  0.00073642 RMS(Int)=  0.38565842
 SLEqS3 Cycle:   841 Max:0.114252E-01 RMS:0.198764E-02 Conv:0.141083E-07
 SLEqS3 Cycle:   841 Max:0.114255E-01 RMS:0.198767E-02 Conv:0.141083E-07
 Iteration 22 RMS(Cart)=  0.00065898 RMS(Int)=  0.38563737
 SLEqS3 Cycle:   841 Max:0.104353E-01 RMS:0.187792E-02 Conv:0.128462E-07
 SLEqS3 Cycle:   841 Max:0.104326E-01 RMS:0.187759E-02 Conv:0.128462E-07
 Iteration 23 RMS(Cart)=  0.00059242 RMS(Int)=  0.38561858
 SLEqS3 Cycle:   841 Max:0.635755E-02 RMS:0.122010E-02 Conv:0.117133E-07
 SLEqS3 Cycle:   841 Max:0.954550E-02 RMS:0.178183E-02 Conv:0.117133E-07
 Iteration 24 RMS(Cart)=  0.00053085 RMS(Int)=  0.38560187
 SLEqS3 Cycle:   841 Max:0.875026E-02 RMS:0.169832E-02 Conv:0.107000E-07
 SLEqS3 Cycle:   841 Max:0.875546E-02 RMS:0.169891E-02 Conv:0.107000E-07
 Iteration 25 RMS(Cart)=  0.00047422 RMS(Int)=  0.38558707
 SLEqS3 Cycle:   841 Max:0.804456E-02 RMS:0.162647E-02 Conv:0.979699E-08
 SLEqS3 Cycle:   841 Max:0.805097E-02 RMS:0.162718E-02 Conv:0.979699E-08
 Iteration 26 RMS(Cart)=  0.00042441 RMS(Int)=  0.38557392
 SLEqS3 Cycle:   841 Max:0.741662E-02 RMS:0.156452E-02 Conv:0.899075E-08
 SLEqS3 Cycle:   841 Max:0.742356E-02 RMS:0.156527E-02 Conv:0.899075E-08
 Iteration 27 RMS(Cart)=  0.00037928 RMS(Int)=  0.38556227
 SLEqS3 Cycle:   841 Max:0.685597E-02 RMS:0.151099E-02 Conv:0.827235E-08
 SLEqS3 Cycle:   841 Max:0.685971E-02 RMS:0.151138E-02 Conv:0.827235E-08
 Iteration 28 RMS(Cart)=  0.00034205 RMS(Int)=  0.38555185
 SLEqS3 Cycle:   841 Max:0.635491E-02 RMS:0.146474E-02 Conv:0.773935E-08
 SLEqS3 Cycle:   841 Max:0.636318E-02 RMS:0.146557E-02 Conv:0.773935E-08
 Iteration 29 RMS(Cart)=  0.00030263 RMS(Int)=  0.38554271
 SLEqS3 Cycle:   841 Max:0.614318E-02 RMS:0.142522E-02 Conv:0.734989E-08
 SLEqS3 Cycle:   841 Max:0.614251E-02 RMS:0.142677E-02 Conv:0.734989E-08
 Iteration 30 RMS(Cart)=  0.00026659 RMS(Int)=  0.38553472
 SLEqS3 Cycle:   841 Max:0.615915E-02 RMS:0.139176E-02 Conv:0.700749E-08
 SLEqS3 Cycle:   841 Max:0.615825E-02 RMS:0.139379E-02 Conv:0.700749E-08
 Iteration 31 RMS(Cart)=  0.00023477 RMS(Int)=  0.38552775
 SLEqS3 Cycle:   841 Max:0.617057E-02 RMS:0.136833E-02 Conv:0.670691E-08
 SLEqS3 Cycle:   841 Max:0.617193E-02 RMS:0.136533E-02 Conv:0.670691E-08
 Iteration 32 RMS(Cart)=  0.00020964 RMS(Int)=  0.38552157
 SLEqS3 Cycle:   841 Max:0.618470E-02 RMS:0.133884E-02 Conv:0.643965E-08
 SLEqS3 Cycle:   841 Max:0.618407E-02 RMS:0.134023E-02 Conv:0.643965E-08
 Iteration 33 RMS(Cart)=  0.00019107 RMS(Int)=  0.38551598
 SLEqS3 Cycle:   841 Max:0.619527E-02 RMS:0.131732E-02 Conv:0.630562E-08
 SLEqS3 Cycle:   841 Max:0.619477E-02 RMS:0.131839E-02 Conv:0.630562E-08
 Iteration 34 RMS(Cart)=  0.00017229 RMS(Int)=  0.38551098
 SLEqS3 Cycle:   841 Max:0.620453E-02 RMS:0.129855E-02 Conv:0.630569E-08
 SLEqS3 Cycle:   841 Max:0.620342E-02 RMS:0.130091E-02 Conv:0.630569E-08
 Iteration 35 RMS(Cart)=  0.00014515 RMS(Int)=  0.38550680
 SLEqS3 Cycle:   841 Max:0.621213E-02 RMS:0.128332E-02 Conv:0.630552E-08
 SLEqS3 Cycle:   841 Max:0.621088E-02 RMS:0.128595E-02 Conv:0.630552E-08
 Iteration 36 RMS(Cart)=  0.00012680 RMS(Int)=  0.38550317
 SLEqS3 Cycle:   841 Max:0.621824E-02 RMS:0.127120E-02 Conv:0.630517E-08
 SLEqS3 Cycle:   841 Max:0.621729E-02 RMS:0.127319E-02 Conv:0.630517E-08
 Iteration 37 RMS(Cart)=  0.00011110 RMS(Int)=  0.38550002
 SLEqS3 Cycle:   841 Max:0.622423E-02 RMS:0.125932E-02 Conv:0.630468E-08
 SLEqS3 Cycle:   841 Max:0.622320E-02 RMS:0.126146E-02 Conv:0.630468E-08
 Iteration 38 RMS(Cart)=  0.00010387 RMS(Int)=  0.38549709
 SLEqS3 Cycle:   841 Max:0.622964E-02 RMS:0.124868E-02 Conv:0.630408E-08
 SLEqS3 Cycle:   841 Max:0.622835E-02 RMS:0.125131E-02 Conv:0.630408E-08
 Iteration 39 RMS(Cart)=  0.00009301 RMS(Int)=  0.38549448
 SLEqS3 Cycle:   841 Max:0.623400E-02 RMS:0.124014E-02 Conv:0.630338E-08
 SLEqS3 Cycle:   841 Max:0.623253E-02 RMS:0.124314E-02 Conv:0.630338E-08
 Iteration 40 RMS(Cart)=  0.00007814 RMS(Int)=  0.38549230
 SLEqS3 Cycle:   841 Max:0.623782E-02 RMS:0.123275E-02 Conv:0.630275E-08
 SLEqS3 Cycle:   841 Max:0.623663E-02 RMS:0.123515E-02 Conv:0.630275E-08
 Iteration 41 RMS(Cart)=  0.00007538 RMS(Int)=  0.38549022
 SLEqS3 Cycle:   841 Max:0.624106E-02 RMS:0.122648E-02 Conv:0.630201E-08
 SLEqS3 Cycle:   841 Max:0.624013E-02 RMS:0.122836E-02 Conv:0.630201E-08
 Iteration 42 RMS(Cart)=  0.00006694 RMS(Int)=  0.38548837
 SLEqS3 Cycle:   841 Max:0.624411E-02 RMS:0.122058E-02 Conv:0.630127E-08
 SLEqS3 Cycle:   841 Max:0.624322E-02 RMS:0.122237E-02 Conv:0.630127E-08
 Iteration 43 RMS(Cart)=  0.00006031 RMS(Int)=  0.38548672
 SLEqS3 Cycle:   841 Max:0.624682E-02 RMS:0.121538E-02 Conv:0.630054E-08
 SLEqS3 Cycle:   841 Max:0.624588E-02 RMS:0.121725E-02 Conv:0.630054E-08
 Iteration 44 RMS(Cart)=  0.00005274 RMS(Int)=  0.38548529
 SLEqS3 Cycle:   841 Max:0.624702E-02 RMS:0.121513E-02 Conv:0.629986E-08
 SLEqS3 Cycle:   841 Max:0.624845E-02 RMS:0.121231E-02 Conv:0.629986E-08
 Iteration 45 RMS(Cart)=  0.00005087 RMS(Int)=  0.38548391
 SLEqS3 Cycle:   841 Max:0.625131E-02 RMS:0.120678E-02 Conv:0.629916E-08
 SLEqS3 Cycle:   841 Max:0.625076E-02 RMS:0.120788E-02 Conv:0.629916E-08
 Iteration 46 RMS(Cart)=  0.00004663 RMS(Int)=  0.38548265
 SLEqS3 Cycle:   841 Max:0.625305E-02 RMS:0.120349E-02 Conv:0.629846E-08
 SLEqS3 Cycle:   841 Max:0.625288E-02 RMS:0.120384E-02 Conv:0.629846E-08
 Iteration 47 RMS(Cart)=  0.00004343 RMS(Int)=  0.38548149
 SLEqS3 Cycle:   841 Max:0.625602E-02 RMS:0.119778E-02 Conv:0.629778E-08
 SLEqS3 Cycle:   841 Max:0.625563E-02 RMS:0.119907E-02 Conv:0.629778E-08
 Iteration 48 RMS(Cart)=  0.00005062 RMS(Int)=  0.38548014
 SLEqS3 Cycle:   841 Max:0.625712E-02 RMS:0.119581E-02 Conv:0.629720E-08
 SLEqS3 Cycle:   841 Max:0.625736E-02 RMS:0.119500E-02 Conv:0.629720E-08
 Iteration 49 RMS(Cart)=  0.00004565 RMS(Int)=  0.38547893
 SLEqS3 Cycle:   841 Max:0.625902E-02 RMS:0.119140E-02 Conv:0.629596E-08
 SLEqS3 Cycle:   841 Max:0.625903E-02 RMS:0.119138E-02 Conv:0.629596E-08
 Iteration 50 RMS(Cart)=  0.00004116 RMS(Int)=  0.38547785
 SLEqS3 Cycle:   841 Max:0.626052E-02 RMS:0.118825E-02 Conv:0.629493E-08
 SLEqS3 Cycle:   841 Max:0.625947E-02 RMS:0.119068E-02 Conv:0.629493E-08
 Iteration 51 RMS(Cart)=  0.00001317 RMS(Int)=  0.38547750
 SLEqS3 Cycle:   841 Max:0.626020E-02 RMS:0.118942E-02 Conv:0.629478E-08
 SLEqS3 Cycle:   841 Max:0.626028E-02 RMS:0.118927E-02 Conv:0.629478E-08
 Iteration 52 RMS(Cart)=  0.00001521 RMS(Int)=  0.38547710
 SLEqS3 Cycle:   841 Max:0.626215E-02 RMS:0.118586E-02 Conv:0.629452E-08
 SLEqS3 Cycle:   841 Max:0.626116E-02 RMS:0.118768E-02 Conv:0.629452E-08
 Iteration 53 RMS(Cart)=  0.00001789 RMS(Int)=  0.38547663
 SLEqS3 Cycle:   841 Max:0.626137E-02 RMS:0.118731E-02 Conv:0.629421E-08
 SLEqS3 Cycle:   841 Max:0.626215E-02 RMS:0.118587E-02 Conv:0.629421E-08
 Iteration 54 RMS(Cart)=  0.00002054 RMS(Int)=  0.38547610
 SLEqS3 Cycle:   841 Max:0.626296E-02 RMS:0.118438E-02 Conv:0.629384E-08
 SLEqS3 Cycle:   841 Max:0.626328E-02 RMS:0.118380E-02 Conv:0.629384E-08
 Iteration 55 RMS(Cart)=  0.00002364 RMS(Int)=  0.38547548
 SLEqS3 Cycle:   841 Max:0.626317E-02 RMS:0.118408E-02 Conv:0.629341E-08
 SLEqS3 Cycle:   841 Max:0.626446E-02 RMS:0.118163E-02 Conv:0.629341E-08
 Iteration 56 RMS(Cart)=  0.00002510 RMS(Int)=  0.38547483
slurmstepd: error: *** JOB 27449270 ON lewis4-r630-hpc4-node298 CANCELLED AT 2023-05-20T20:26:30 ***
