### Starting Gaussian ###
 Entering Gaussian System, Link 0=g16
 Initial command:
 /cluster/software/gaussian/gaussian-16-A.03/avx2/g16/l1.exe "/local/scratch/yxie/Gau-2353.inp" -scrdir="/local/scratch/yxie/"
 Entering Link 1 = /cluster/software/gaussian/gaussian-16-A.03/avx2/g16/l1.exe PID=      2354.
  
 Copyright (c) 1988,1990,1992,1993,1995,1998,2003,2009,2016,
            Gaussian, Inc.  All Rights Reserved.
  
 This is part of the Gaussian(R) 16 program.  It is based on
 the Gaussian(R) 09 system (copyright 2009, Gaussian, Inc.),
 the Gaussian(R) 03 system (copyright 2003, Gaussian, Inc.),
 the Gaussian(R) 98 system (copyright 1998, Gaussian, Inc.),
 the Gaussian(R) 94 system (copyright 1995, Gaussian, Inc.),
 the Gaussian 92(TM) system (copyright 1992, Gaussian, Inc.),
 the Gaussian 90(TM) system (copyright 1990, Gaussian, Inc.),
 the Gaussian 88(TM) system (copyright 1988, Gaussian, Inc.),
 the Gaussian 86(TM) system (copyright 1986, Carnegie Mellon
 University), and the Gaussian 82(TM) system (copyright 1983,
 Carnegie Mellon University). Gaussian is a federally registered
 trademark of Gaussian, Inc.
  
 This software contains proprietary and confidential information,
 including trade secrets, belonging to Gaussian, Inc.
  
 This software is provided under written license and may be
 used, copied, transmitted, or stored only in accord with that
 written license.
  
 The following legend is applicable only to US Government
 contracts under FAR:
  
                    RESTRICTED RIGHTS LEGEND
  
 Use, reproduction and disclosure by the US Government is
 subject to restrictions as set forth in subparagraphs (a)
 and (c) of the Commercial Computer Software - Restricted
 Rights clause in FAR 52.227-19.
  
 Gaussian, Inc.
 340 Quinnipiac St., Bldg. 40, Wallingford CT 06492
  
  
 ---------------------------------------------------------------
 Warning -- This program may not be used in any manner that
 competes with the business of Gaussian, Inc. or will provide
 assistance to any competitor of Gaussian, Inc.  The licensee
 of this program is prohibited from giving any competitor of
 Gaussian, Inc. access to this program.  By using this program,
 the user acknowledges that Gaussian, Inc. is engaged in the
 business of creating and licensing software in the field of
 computational chemistry and represents and warrants to the
 licensee that it is not a competitor of Gaussian, Inc. and that
 it will not use this program in any manner prohibited above.
 ---------------------------------------------------------------
  

 Cite this work as:
 Gaussian 16, Revision A.03,
 M. J. Frisch, G. W. Trucks, H. B. Schlegel, G. E. Scuseria, 
 M. A. Robb, J. R. Cheeseman, G. Scalmani, V. Barone, 
 G. A. Petersson, H. Nakatsuji, X. Li, M. Caricato, A. V. Marenich, 
 J. Bloino, B. G. Janesko, R. Gomperts, B. Mennucci, H. P. Hratchian, 
 J. V. Ortiz, A. F. Izmaylov, J. L. Sonnenberg, D. Williams-Young, 
 F. Ding, F. Lipparini, F. Egidi, J. Goings, B. Peng, A. Petrone, 
 T. Henderson, D. Ranasinghe, V. G. Zakrzewski, J. Gao, N. Rega, 
 G. Zheng, W. Liang, M. Hada, M. Ehara, K. Toyota, R. Fukuda, 
 J. Hasegawa, M. Ishida, T. Nakajima, Y. Honda, O. Kitao, H. Nakai, 
 T. Vreven, K. Throssell, J. A. Montgomery, Jr., J. E. Peralta, 
 F. Ogliaro, M. J. Bearpark, J. J. Heyd, E. N. Brothers, K. N. Kudin, 
 V. N. Staroverov, T. A. Keith, R. Kobayashi, J. Normand, 
 K. Raghavachari, A. P. Rendell, J. C. Burant, S. S. Iyengar, 
 J. Tomasi, M. Cossi, J. M. Millam, M. Klene, C. Adamo, R. Cammi, 
 J. W. Ochterski, R. L. Martin, K. Morokuma, O. Farkas, 
 J. B. Foresman, and D. J. Fox, Gaussian, Inc., Wallingford CT, 2016.
 
 ******************************************
 Gaussian 16:  ES64L-G16RevA.03 25-Dec-2016
                17-May-2023 
 ******************************************
 %chk=OC1dCC2dCqCdCCN2rNdC2CdC2C1.chk
 %NProcShared=20
 Will use up to   20 processors via shared memory.
 -----------------------------
 # opt freq b3lyp/6-31g(2df,p)
 -----------------------------
 1/18=20,19=15,26=3,38=1/1,3;
 2/9=110,12=2,17=6,18=5,40=1/2;
 3/5=1,6=6,7=104,11=2,25=1,30=1,71=1,74=-5/1,2,3;
 4//1;
 5/5=2,38=5/2;
 6/7=2,8=2,9=2,10=2,28=1/1;
 7//1,2,3,16;
 1/18=20,19=15,26=3/3(2);
 2/9=110/2;
 99//99;
 2/9=110/2;
 3/5=1,6=6,7=104,11=2,25=1,30=1,71=1,74=-5/1,2,3;
 4/5=5,16=3,69=1/1;
 5/5=2,38=5/2;
 7//1,2,3,16;
 1/18=20,19=15,26=3/3(-5);
 2/9=110/2;
 6/7=2,8=2,9=2,10=2,19=2,28=1/1;
 99/9=1/99;
 -------------------
 Title Card Required
 -------------------
 Symbolic Z-matrix:
 Charge =  0 Multiplicity = 1
 O                     1.00141  -0.4482    0.04477 
 C                     2.35984  -0.40191  -0.16406 
 C                     3.14959  -1.30906  -0.79622 
 C                     4.63412  -1.06875  -0.9535 
 C                     5.24652  -0.58488  -2.08187 
 C                     6.69174  -0.36044  -2.09389 
 C                     7.41591  -0.63861  -0.9955 
 C                     6.79748  -1.08611   0.29631 
 N                     5.35641  -1.10567   0.22328 
 N                     4.56201  -0.19643  -3.19775 
 C                     3.64686   0.60069  -2.80971 
 C                     2.26258   0.96904  -2.97645 
 C                     2.94795   1.29738  -1.83815 
 C                     2.90286   0.98272  -0.29862 
 H                     0.55476  -0.62512  -0.79826 
 H                     2.6683   -1.97961  -1.50223 
 H                     7.1839   -0.04068  -3.00943 
 H                     8.50086  -0.58706  -1.01907 
 H                     7.11424  -0.41197   1.098 
 H                     7.12077  -2.10384   0.51274 
 H                     4.83638  -1.34897   1.05683 
 H                     2.26659   0.88394  -4.07413 
 H                     2.39943   1.71928   0.33674 
 H                     3.86763   0.91215   0.23945 
 

 GradGradGradGradGradGradGradGradGradGradGradGradGradGradGradGradGradGrad
 Berny optimization.
 Initialization pass.
                           ----------------------------
                           !    Initial Parameters    !
                           ! (Angstroms and Degrees)  !
 --------------------------                            --------------------------
 ! Name  Definition              Value          Derivative Info.                !
 --------------------------------------------------------------------------------
 ! R1    R(1,2)                  1.3752         estimate D2E/DX2                !
 ! R2    R(1,15)                 0.9703         estimate D2E/DX2                !
 ! R3    R(2,3)                  1.3588         estimate D2E/DX2                !
 ! R4    R(2,14)                 1.4934         estimate D2E/DX2                !
 ! R5    R(3,4)                  1.5121         estimate D2E/DX2                !
 ! R6    R(3,16)                 1.0862         estimate D2E/DX2                !
 ! R7    R(4,5)                  1.372          estimate D2E/DX2                !
 ! R8    R(4,9)                  1.3813         estimate D2E/DX2                !
 ! R9    R(5,6)                  1.4626         estimate D2E/DX2                !
 ! R10   R(5,10)                 1.3655         estimate D2E/DX2                !
 ! R11   R(6,7)                  1.3447         estimate D2E/DX2                !
 ! R12   R(6,17)                 1.0875         estimate D2E/DX2                !
 ! R13   R(7,8)                  1.5005         estimate D2E/DX2                !
 ! R14   R(7,18)                 1.0864         estimate D2E/DX2                !
 ! R15   R(8,9)                  1.4431         estimate D2E/DX2                !
 ! R16   R(8,19)                 1.0943         estimate D2E/DX2                !
 ! R17   R(8,20)                 1.0896         estimate D2E/DX2                !
 ! R18   R(9,21)                 1.0121         estimate D2E/DX2                !
 ! R19   R(10,11)                1.2742         estimate D2E/DX2                !
 ! R20   R(11,12)                1.4421         estimate D2E/DX2                !
 ! R21   R(11,13)                1.3848         estimate D2E/DX2                !
 ! R22   R(12,13)                1.3687         estimate D2E/DX2                !
 ! R23   R(12,22)                1.101          estimate D2E/DX2                !
 ! R24   R(13,14)                1.572          estimate D2E/DX2                !
 ! R25   R(14,23)                1.0953         estimate D2E/DX2                !
 ! R26   R(14,24)                1.1069         estimate D2E/DX2                !
 ! A1    A(2,1,15)             109.2029         estimate D2E/DX2                !
 ! A2    A(1,2,3)              128.4864         estimate D2E/DX2                !
 ! A3    A(1,2,14)             113.8339         estimate D2E/DX2                !
 ! A4    A(3,2,14)             111.4534         estimate D2E/DX2                !
 ! A5    A(2,3,4)              120.8593         estimate D2E/DX2                !
 ! A6    A(2,3,16)             117.1958         estimate D2E/DX2                !
 ! A7    A(4,3,16)             117.746          estimate D2E/DX2                !
 ! A8    A(3,4,5)              125.4384         estimate D2E/DX2                !
 ! A9    A(3,4,9)              114.8684         estimate D2E/DX2                !
 ! A10   A(5,4,9)              118.4697         estimate D2E/DX2                !
 ! A11   A(4,5,6)              120.1279         estimate D2E/DX2                !
 ! A12   A(4,5,10)             123.2745         estimate D2E/DX2                !
 ! A13   A(6,5,10)             116.4207         estimate D2E/DX2                !
 ! A14   A(5,6,7)              119.5825         estimate D2E/DX2                !
 ! A15   A(5,6,17)             119.9483         estimate D2E/DX2                !
 ! A16   A(7,6,17)             120.3155         estimate D2E/DX2                !
 ! A17   A(6,7,8)              122.8851         estimate D2E/DX2                !
 ! A18   A(6,7,18)             120.6812         estimate D2E/DX2                !
 ! A19   A(8,7,18)             116.3861         estimate D2E/DX2                !
 ! A20   A(7,8,9)              111.8426         estimate D2E/DX2                !
 ! A21   A(7,8,19)             109.1283         estimate D2E/DX2                !
 ! A22   A(7,8,20)             109.1048         estimate D2E/DX2                !
 ! A23   A(9,8,19)             109.5415         estimate D2E/DX2                !
 ! A24   A(9,8,20)             107.0797         estimate D2E/DX2                !
 ! A25   A(19,8,20)            110.1219         estimate D2E/DX2                !
 ! A26   A(4,9,8)              124.3993         estimate D2E/DX2                !
 ! A27   A(4,9,21)             116.0647         estimate D2E/DX2                !
 ! A28   A(8,9,21)             118.3376         estimate D2E/DX2                !
 ! A29   A(5,10,11)            106.8063         estimate D2E/DX2                !
 ! A30   A(10,11,12)           144.49           estimate D2E/DX2                !
 ! A31   A(10,11,13)           152.9838         estimate D2E/DX2                !
 ! A32   A(11,12,22)            95.2807         estimate D2E/DX2                !
 ! A33   A(13,12,22)           147.7692         estimate D2E/DX2                !
 ! A34   A(11,13,14)           126.9309         estimate D2E/DX2                !
 ! A35   A(12,13,14)           138.7742         estimate D2E/DX2                !
 ! A36   A(2,14,13)            106.5147         estimate D2E/DX2                !
 ! A37   A(2,14,23)            113.8356         estimate D2E/DX2                !
 ! A38   A(2,14,24)            102.3576         estimate D2E/DX2                !
 ! A39   A(13,14,23)           116.5309         estimate D2E/DX2                !
 ! A40   A(13,14,24)           117.6335         estimate D2E/DX2                !
 ! A41   A(23,14,24)            99.2941         estimate D2E/DX2                !
 ! D1    D(15,1,2,3)           -51.2094         estimate D2E/DX2                !
 ! D2    D(15,1,2,14)           98.3364         estimate D2E/DX2                !
 ! D3    D(1,2,3,4)            178.7436         estimate D2E/DX2                !
 ! D4    D(1,2,3,16)            22.2857         estimate D2E/DX2                !
 ! D5    D(14,2,3,4)            28.6206         estimate D2E/DX2                !
 ! D6    D(14,2,3,16)         -127.8373         estimate D2E/DX2                !
 ! D7    D(1,2,14,13)          -94.5078         estimate D2E/DX2                !
 ! D8    D(1,2,14,23)           35.3088         estimate D2E/DX2                !
 ! D9    D(1,2,14,24)          141.4223         estimate D2E/DX2                !
 ! D10   D(3,2,14,13)           60.2609         estimate D2E/DX2                !
 ! D11   D(3,2,14,23)         -169.9226         estimate D2E/DX2                !
 ! D12   D(3,2,14,24)          -63.8091         estimate D2E/DX2                !
 ! D13   D(2,3,4,5)            -98.9823         estimate D2E/DX2                !
 ! D14   D(2,3,4,9)             68.1157         estimate D2E/DX2                !
 ! D15   D(16,3,4,5)            57.3506         estimate D2E/DX2                !
 ! D16   D(16,3,4,9)          -135.5514         estimate D2E/DX2                !
 ! D17   D(3,4,5,6)            178.2424         estimate D2E/DX2                !
 ! D18   D(3,4,5,10)             3.2518         estimate D2E/DX2                !
 ! D19   D(9,4,5,6)             11.5659         estimate D2E/DX2                !
 ! D20   D(9,4,5,10)          -163.4247         estimate D2E/DX2                !
 ! D21   D(3,4,9,8)            171.1765         estimate D2E/DX2                !
 ! D22   D(3,4,9,21)             3.9363         estimate D2E/DX2                !
 ! D23   D(5,4,9,8)            -20.7668         estimate D2E/DX2                !
 ! D24   D(5,4,9,21)           171.9929         estimate D2E/DX2                !
 ! D25   D(4,5,6,7)              0.3847         estimate D2E/DX2                !
 ! D26   D(4,5,6,17)           175.8947         estimate D2E/DX2                !
 ! D27   D(10,5,6,7)           175.7089         estimate D2E/DX2                !
 ! D28   D(10,5,6,17)           -8.7811         estimate D2E/DX2                !
 ! D29   D(4,5,10,11)           50.5021         estimate D2E/DX2                !
 ! D30   D(6,5,10,11)         -124.6604         estimate D2E/DX2                !
 ! D31   D(5,6,7,8)             -4.4019         estimate D2E/DX2                !
 ! D32   D(5,6,7,18)           172.9963         estimate D2E/DX2                !
 ! D33   D(17,6,7,8)          -179.8951         estimate D2E/DX2                !
 ! D34   D(17,6,7,18)           -2.4969         estimate D2E/DX2                !
 ! D35   D(6,7,8,9)             -3.0984         estimate D2E/DX2                !
 ! D36   D(6,7,8,19)          -124.4604         estimate D2E/DX2                !
 ! D37   D(6,7,8,20)           115.1762         estimate D2E/DX2                !
 ! D38   D(18,7,8,9)           179.3993         estimate D2E/DX2                !
 ! D39   D(18,7,8,19)           58.0374         estimate D2E/DX2                !
 ! D40   D(18,7,8,20)          -62.326          estimate D2E/DX2                !
 ! D41   D(7,8,9,4)             16.0263         estimate D2E/DX2                !
 ! D42   D(7,8,9,21)          -177.0009         estimate D2E/DX2                !
 ! D43   D(19,8,9,4)           137.1492         estimate D2E/DX2                !
 ! D44   D(19,8,9,21)          -55.878          estimate D2E/DX2                !
 ! D45   D(20,8,9,4)          -103.4482         estimate D2E/DX2                !
 ! D46   D(20,8,9,21)           63.5246         estimate D2E/DX2                !
 ! D47   D(5,10,11,12)        -137.9606         estimate D2E/DX2                !
 ! D48   D(5,10,11,13)          -0.834          estimate D2E/DX2                !
 ! D49   D(10,11,12,22)        -42.0439         estimate D2E/DX2                !
 ! D50   D(10,11,13,14)        -19.792          estimate D2E/DX2                !
 ! D51   D(11,12,13,22)         41.1559         estimate D2E/DX2                !
 ! D52   D(22,12,13,14)       -157.539          estimate D2E/DX2                !
 ! D53   D(11,13,14,2)         -59.3653         estimate D2E/DX2                !
 ! D54   D(11,13,14,23)        172.3814         estimate D2E/DX2                !
 ! D55   D(11,13,14,24)         54.6628         estimate D2E/DX2                !
 ! D56   D(12,13,14,2)          30.6855         estimate D2E/DX2                !
 ! D57   D(12,13,14,23)        -97.5678         estimate D2E/DX2                !
 ! D58   D(12,13,14,24)        144.7136         estimate D2E/DX2                !
 --------------------------------------------------------------------------------
 Trust Radius=3.00D-01 FncErr=1.00D-07 GrdErr=1.00D-06 EigMax=2.50D+02 EigMin=1.00D-04
 Number of steps in this run=    135 maximum allowed number of steps=    144.
 GradGradGradGradGradGradGradGradGradGradGradGradGradGradGradGradGradGrad

                          Input orientation:                          
 ---------------------------------------------------------------------
 Center     Atomic      Atomic             Coordinates (Angstroms)
 Number     Number       Type             X           Y           Z
 ---------------------------------------------------------------------
      1          8           0        1.001410   -0.448200    0.044770
      2          6           0        2.359840   -0.401910   -0.164060
      3          6           0        3.149590   -1.309060   -0.796220
      4          6           0        4.634120   -1.068750   -0.953500
      5          6           0        5.246520   -0.584880   -2.081870
      6          6           0        6.691740   -0.360440   -2.093890
      7          6           0        7.415910   -0.638610   -0.995500
      8          6           0        6.797480   -1.086110    0.296310
      9          7           0        5.356410   -1.105670    0.223280
     10          7           0        4.562010   -0.196430   -3.197750
     11          6           0        3.646860    0.600690   -2.809710
     12          6           0        2.262580    0.969040   -2.976450
     13          6           0        2.947950    1.297380   -1.838150
     14          6           0        2.902860    0.982720   -0.298620
     15          1           0        0.554760   -0.625120   -0.798260
     16          1           0        2.668300   -1.979610   -1.502230
     17          1           0        7.183900   -0.040680   -3.009430
     18          1           0        8.500860   -0.587060   -1.019070
     19          1           0        7.114240   -0.411970    1.098000
     20          1           0        7.120770   -2.103840    0.512740
     21          1           0        4.836380   -1.348970    1.056830
     22          1           0        2.266590    0.883940   -4.074130
     23          1           0        2.399430    1.719280    0.336740
     24          1           0        3.867630    0.912150    0.239450
 ---------------------------------------------------------------------
                    Distance matrix (angstroms):
                    1          2          3          4          5
     1  O    0.000000
     2  C    1.375167   0.000000
     3  C    2.462320   1.358769   0.000000
     4  C    3.818142   2.498047   1.512057   0.000000
     5  C    4.749972   3.470504   2.564069   1.372000   0.000000
     6  C    6.079591   4.742502   3.889814   2.456826   1.462593
     7  C    6.501094   5.129441   4.323274   2.815163   2.426796
     8  C    5.836491   4.513615   3.814503   2.498490   2.883132
     9  N    4.407965   3.102377   2.439427   1.381259   2.365801
    10  N    4.822364   3.754337   3.000037   2.408900   1.365517
    11  C    4.030711   3.108230   2.819320   2.684628   2.119962
    12  C    3.567477   3.130256   3.275657   3.724126   3.481212
    13  C    3.222027   2.456835   2.814215   3.037161   2.980894
    14  C    2.404363   1.493378   2.358122   2.763089   3.336179
    15  H    0.970307   1.926226   2.683453   4.106347   4.864348
    16  H    2.741705   2.091646   1.086153   2.234999   2.988055
    17  H    6.907778   5.612323   4.773127   3.432951   2.215844
    18  H    7.575803   6.203019   5.404353   3.897179   3.423489
    19  H    6.203007   4.919067   4.484561   3.284967   3.691863
    20  H    6.356627   5.101086   4.256210   3.066708   3.542888
    21  H    4.067265   2.919032   2.506122   2.039818   3.256299
    22  H    4.510057   4.117129   4.041489   4.376817   3.873824
    23  H    2.595703   2.179866   3.319214   3.798904   4.389163
    24  H    3.178627   2.040344   2.553814   2.436104   3.087226
                    6          7          8          9         10
     6  C    0.000000
     7  C    1.344716   0.000000
     8  C    2.500167   1.500495   0.000000
     9  N    2.776284   2.438260   1.443052   0.000000
    10  N    2.404403   3.631828   4.242324   3.627842   0.000000
    11  C    3.272226   4.362678   4.734877   3.877274   1.274157
    12  C    4.707854   5.750262   5.958181   4.910649   2.587406
    13  C    4.102406   4.941739   5.005579   3.978043   2.585570
    14  C    4.402577   4.845820   4.449951   3.263994   3.542334
    15  H    6.277837   6.863998   6.354695   4.932577   4.690350
    16  H    4.377196   4.959320   4.591646   3.311660   3.104941
    17  H    1.087512   2.113590   3.488576   3.863203   2.633255
    18  H    2.116485   1.086430   2.209248   3.420520   4.518161
    19  H    3.220143   2.127231   1.094307   2.082384   5.001380
    20  H    3.165127   2.123392   1.089556   2.047705   4.894201
    21  H    3.787689   3.372039   2.119764   1.012142   4.416455
    22  H    5.005176   6.189638   6.596272   5.654491   2.684063
    23  H    5.353235   5.700840   5.216770   4.091081   4.565010
    24  H    3.878087   4.064511   3.546871   2.507653   3.677697
                   11         12         13         14         15
    11  C    0.000000
    12  C    1.442122   0.000000
    13  C    1.384840   1.368673   0.000000
    14  C    2.646707   2.753347   1.572004   0.000000
    15  H    3.887110   3.194136   3.241101   2.889353   0.000000
    16  H    3.053691   3.321516   3.306011   3.206103   2.607157
    17  H    3.600263   5.023944   4.594080   5.169443   7.012584
    18  H    5.308339   6.720783   5.920880   5.858401   7.949259
    19  H    5.321504   6.484361   5.375949   4.650960   6.831399
    20  H    5.515542   6.724511   5.874301   5.289227   6.856954
    21  H    4.490686   5.316480   4.353188   3.318512   4.722032
    22  H    1.893181   1.100981   2.373771   3.830023   3.992361
    23  H    3.564754   3.399826   2.282328   1.095283   3.191746
    24  H    3.072967   3.594640   2.304482   1.106924   3.796729
                   16         17         18         19         20
    16  H    0.000000
    17  H    5.140209   0.000000
    18  H    6.015928   2.448356   0.000000
    19  H    5.383779   4.124765   2.536801   0.000000
    20  H    4.888765   4.082438   2.559631   1.790250   0.000000
    21  H    3.412780   4.874109   4.279986   2.463394   2.466637
    22  H    3.869878   5.115510   7.096714   7.206249   7.316370
    23  H    4.139552   6.097989   6.662197   5.229835   6.077687
    24  H    3.582474   4.739278   5.029744   3.609831   4.444525
                   21         22         23         24
    21  H    0.000000
    22  H    6.157634   0.000000
    23  H    3.983894   4.491237   0.000000
    24  H    2.592152   4.601206   1.678254   0.000000
 Stoichiometry    C11H10N2O
 Framework group  C1[X(C11H10N2O)]
 Deg. of freedom    66
 Full point group                 C1      NOp   1
 Largest Abelian subgroup         C1      NOp   1
 Largest concise Abelian subgroup C1      NOp   1
                         Standard orientation:                         
 ---------------------------------------------------------------------
 Center     Atomic      Atomic             Coordinates (Angstroms)
 Number     Number       Type             X           Y           Z
 ---------------------------------------------------------------------
      1          8           0       -3.018507   -1.617613   -0.296664
      2          6           0       -1.715256   -1.232395   -0.086354
      3          6           0       -0.785978   -0.856774   -1.003743
      4          6           0        0.601570   -0.436112   -0.574710
      5          6           0        1.032455    0.858878   -0.434282
      6          6           0        2.393141    1.133980    0.026187
      7          6           0        3.219998    0.110295    0.303023
      8          6           0        2.784531   -1.324796    0.254371
      9          7           0        1.379294   -1.449464   -0.049218
     10          7           0        0.219689    1.942069   -0.609625
     11          6           0       -0.821894    1.739116    0.095633
     12          6           0       -2.260019    1.843015    0.122432
     13          6           0       -1.598650    0.986985    0.960925
     14          6           0       -1.489654   -0.558484    1.227086
     15          1           0       -3.463077   -0.952867   -0.846178
     16          1           0       -1.151014   -0.494552   -1.960441
     17          1           0        2.753737    2.158912    0.072731
     18          1           0        4.265718    0.289896    0.536567
     19          1           0        2.993665   -1.795913    1.219679
     20          1           0        3.329764   -1.836231   -0.538276
     21          1           0        0.970588   -2.375345   -0.060839
     22          1           0       -2.298914    2.834284   -0.355095
     23          1           0       -2.103001   -0.959162    2.041277
     24          1           0       -0.503762   -0.958597    1.532386
 ---------------------------------------------------------------------
 Rotational constants (GHZ):           1.2988237           0.6429140           0.4878752
 Standard basis: 6-31G(2df,p) (6D, 7F)
 There are   484 symmetry adapted cartesian basis functions of A   symmetry.
 There are   442 symmetry adapted basis functions of A   symmetry.
   442 basis functions,   686 primitive gaussians,   484 cartesian basis functions
    49 alpha electrons       49 beta electrons
       nuclear repulsion energy       861.1129045568 Hartrees.
 NAtoms=   24 NActive=   24 NUniq=   24 SFac= 1.00D+00 NAtFMM=   60 NAOKFM=F Big=F
 Integral buffers will be    131072 words long.
 Raffenetti 2 integral format.
 Two-electron integral symmetry is turned on.
 One-electron integrals computed using PRISM.
 PrsmSu:  requested number of processors reduced to:  12 ShMem   1 Linda.
 NBasis=   442 RedAO= T EigKep=  1.81D-04  NBF=   442
 NBsUse=   442 1.00D-06 EigRej= -1.00D+00 NBFU=   442
 ExpMin= 1.61D-01 ExpMax= 5.48D+03 ExpMxC= 8.25D+02 IAcc=3 IRadAn=         5 AccDes= 0.00D+00
 Harris functional with IExCor=  402 and IRadAn=       5 diagonalized for initial guess.
 HarFok:  IExCor=  402 AccDes= 0.00D+00 IRadAn=         5 IDoV= 1 UseB2=F ITyADJ=14
 ICtDFT=  3500011 ScaDFX=  1.000000  1.000000  1.000000  1.000000
 FoFCou: FMM=F IPFlag=           0 FMFlag=      100000 FMFlg1=           0
         NFxFlg=           0 DoJE=T BraDBF=F KetDBF=T FulRan=T
         wScrn=  0.000000 ICntrl=       500 IOpCl=  0 I1Cent=   200000004 NGrid=           0
         NMat0=    1 NMatS0=      1 NMatT0=    0 NMatD0=    1 NMtDS0=    0 NMtDT0=    0
 Petite list used in FoFCou.
 Requested convergence on RMS density matrix=1.00D-08 within 128 cycles.
 Requested convergence on MAX density matrix=1.00D-06.
 Requested convergence on             energy=1.00D-06.
 No special actions if energy rises.
 Integral accuracy reduced to 1.0D-05 until final iterations.
 Problem detected with inexpensive integrals.
 Switching to full accuracy and repeating last cycle.
 EnCoef did     4 forward-backward iterations
 SCF Done:  E(RB3LYP) =  -609.641132533     A.U. after   22 cycles
            NFock= 22  Conv=0.57D-08     -V/T= 2.0071

 **********************************************************************

            Population analysis using the SCF density.

 **********************************************************************

 Orbital symmetries:
       Occupied  (A) (A) (A) (A) (A) (A) (A) (A) (A) (A) (A) (A)
                 (A) (A) (A) (A) (A) (A) (A) (A) (A) (A) (A) (A)
                 (A) (A) (A) (A) (A) (A) (A) (A) (A) (A) (A) (A)
                 (A) (A) (A) (A) (A) (A) (A) (A) (A) (A) (A) (A)
                 (A)
       Virtual   (A) (A) (A) (A) (A) (A) (A) (A) (A) (A) (A) (A)
                 (A) (A) (A) (A) (A) (A) (A) (A) (A) (A) (A) (A)
                 (A) (A) (A) (A) (A) (A) (A) (A) (A) (A) (A) (A)
                 (A) (A) (A) (A) (A) (A) (A) (A) (A) (A) (A) (A)
                 (A) (A) (A) (A) (A) (A) (A) (A) (A) (A) (A) (A)
                 (A) (A) (A) (A) (A) (A) (A) (A) (A) (A) (A) (A)
                 (A) (A) (A) (A) (A) (A) (A) (A) (A) (A) (A) (A)
                 (A) (A) (A) (A) (A) (A) (A) (A) (A) (A) (A) (A)
                 (A) (A) (A) (A) (A) (A) (A) (A) (A) (A) (A) (A)
                 (A) (A) (A) (A) (A) (A) (A) (A) (A) (A) (A) (A)
                 (A) (A) (A) (A) (A) (A) (A) (A) (A) (A) (A) (A)
                 (A) (A) (A) (A) (A) (A) (A) (A) (A) (A) (A) (A)
                 (A) (A) (A) (A) (A) (A) (A) (A) (A) (A) (A) (A)
                 (A) (A) (A) (A) (A) (A) (A) (A) (A) (A) (A) (A)
                 (A) (A) (A) (A) (A) (A) (A) (A) (A) (A) (A) (A)
                 (A) (A) (A) (A) (A) (A) (A) (A) (A) (A) (A) (A)
                 (A) (A) (A) (A) (A) (A) (A) (A) (A) (A) (A) (A)
                 (A) (A) (A) (A) (A) (A) (A) (A) (A) (A) (A) (A)
                 (A) (A) (A) (A) (A) (A) (A) (A) (A) (A) (A) (A)
                 (A) (A) (A) (A) (A) (A) (A) (A) (A) (A) (A) (A)
                 (A) (A) (A) (A) (A) (A) (A) (A) (A) (A) (A) (A)
                 (A) (A) (A) (A) (A) (A) (A) (A) (A) (A) (A) (A)
                 (A) (A) (A) (A) (A) (A) (A) (A) (A) (A) (A) (A)
                 (A) (A) (A) (A) (A) (A) (A) (A) (A) (A) (A) (A)
                 (A) (A) (A) (A) (A) (A) (A) (A) (A) (A) (A) (A)
                 (A) (A) (A) (A) (A) (A) (A) (A) (A) (A) (A) (A)
                 (A) (A) (A) (A) (A) (A) (A) (A) (A) (A) (A) (A)
                 (A) (A) (A) (A) (A) (A) (A) (A) (A) (A) (A) (A)
                 (A) (A) (A) (A) (A) (A) (A) (A) (A) (A) (A) (A)
                 (A) (A) (A) (A) (A) (A) (A) (A) (A) (A) (A) (A)
                 (A) (A) (A) (A) (A) (A) (A) (A) (A) (A) (A) (A)
                 (A) (A) (A) (A) (A) (A) (A) (A) (A) (A) (A) (A)
                 (A) (A) (A) (A) (A) (A) (A) (A) (A)
 The electronic state is 1-A.
 Alpha  occ. eigenvalues --  -19.16584 -14.33144 -14.29925 -10.25731 -10.24866
 Alpha  occ. eigenvalues --  -10.23788 -10.23075 -10.21393 -10.21295 -10.21264
 Alpha  occ. eigenvalues --  -10.19392 -10.18045 -10.17108 -10.16974  -1.05120
 Alpha  occ. eigenvalues --   -0.96284  -0.93088  -0.89007  -0.81167  -0.77332
 Alpha  occ. eigenvalues --   -0.73904  -0.70077  -0.64252  -0.61360  -0.60325
 Alpha  occ. eigenvalues --   -0.57613  -0.53607  -0.50903  -0.50662  -0.48719
 Alpha  occ. eigenvalues --   -0.47612  -0.46298  -0.44808  -0.44115  -0.43264
 Alpha  occ. eigenvalues --   -0.42630  -0.40524  -0.39091  -0.37417  -0.36811
 Alpha  occ. eigenvalues --   -0.35895  -0.33740  -0.31348  -0.29660  -0.27061
 Alpha  occ. eigenvalues --   -0.24955  -0.23768  -0.22362  -0.14643
 Alpha virt. eigenvalues --   -0.07396  -0.01933  -0.00509   0.02629   0.05584
 Alpha virt. eigenvalues --    0.07974   0.08726   0.11981   0.13227   0.13971
 Alpha virt. eigenvalues --    0.14207   0.15217   0.15866   0.18083   0.18471
 Alpha virt. eigenvalues --    0.19451   0.19871   0.21915   0.22184   0.23897
 Alpha virt. eigenvalues --    0.24524   0.26159   0.28345   0.29162   0.33383
 Alpha virt. eigenvalues --    0.35477   0.36308   0.38225   0.38539   0.40979
 Alpha virt. eigenvalues --    0.41926   0.43507   0.44521   0.46182   0.46892
 Alpha virt. eigenvalues --    0.47890   0.48228   0.49520   0.50218   0.50698
 Alpha virt. eigenvalues --    0.52054   0.52556   0.53372   0.53673   0.54559
 Alpha virt. eigenvalues --    0.55465   0.56070   0.57657   0.58823   0.59828
 Alpha virt. eigenvalues --    0.61135   0.62347   0.62875   0.64289   0.64936
 Alpha virt. eigenvalues --    0.65653   0.67766   0.68972   0.69292   0.70235
 Alpha virt. eigenvalues --    0.71220   0.71393   0.71988   0.73710   0.74740
 Alpha virt. eigenvalues --    0.75378   0.76438   0.77570   0.78495   0.78953
 Alpha virt. eigenvalues --    0.79779   0.80707   0.81143   0.81472   0.82620
 Alpha virt. eigenvalues --    0.83209   0.83506   0.86046   0.86530   0.87280
 Alpha virt. eigenvalues --    0.88510   0.89043   0.91052   0.92689   0.93459
 Alpha virt. eigenvalues --    0.95098   0.95551   0.98019   0.99336   1.00399
 Alpha virt. eigenvalues --    1.01105   1.01992   1.03908   1.05165   1.08283
 Alpha virt. eigenvalues --    1.11261   1.12398   1.12946   1.14065   1.15883
 Alpha virt. eigenvalues --    1.18580   1.20816   1.22517   1.23412   1.24261
 Alpha virt. eigenvalues --    1.26090   1.27124   1.28904   1.29690   1.31162
 Alpha virt. eigenvalues --    1.33530   1.34925   1.35507   1.36694   1.37542
 Alpha virt. eigenvalues --    1.38671   1.40351   1.41896   1.43368   1.44493
 Alpha virt. eigenvalues --    1.45364   1.46969   1.47514   1.48546   1.50823
 Alpha virt. eigenvalues --    1.51553   1.53955   1.55408   1.57221   1.58641
 Alpha virt. eigenvalues --    1.60189   1.61044   1.62287   1.63587   1.65997
 Alpha virt. eigenvalues --    1.66823   1.69548   1.69844   1.70957   1.74630
 Alpha virt. eigenvalues --    1.74747   1.76962   1.79091   1.81414   1.82065
 Alpha virt. eigenvalues --    1.83247   1.84894   1.86879   1.87589   1.89745
 Alpha virt. eigenvalues --    1.92566   1.94185   1.97097   1.99077   1.99384
 Alpha virt. eigenvalues --    2.00925   2.04597   2.07221   2.09784   2.11187
 Alpha virt. eigenvalues --    2.12460   2.13646   2.17127   2.18694   2.21176
 Alpha virt. eigenvalues --    2.22800   2.26955   2.28740   2.29865   2.35364
 Alpha virt. eigenvalues --    2.37067   2.39989   2.40070   2.42986   2.44158
 Alpha virt. eigenvalues --    2.45049   2.47744   2.50514   2.52427   2.56020
 Alpha virt. eigenvalues --    2.56188   2.59722   2.61532   2.62447   2.66215
 Alpha virt. eigenvalues --    2.67558   2.69875   2.73136   2.74401   2.75555
 Alpha virt. eigenvalues --    2.78603   2.79852   2.81129   2.81580   2.83923
 Alpha virt. eigenvalues --    2.85472   2.87597   2.88852   2.89477   2.91665
 Alpha virt. eigenvalues --    2.92904   2.94894   2.95655   2.97795   2.98504
 Alpha virt. eigenvalues --    2.99341   3.00091   3.01852   3.03866   3.04330
 Alpha virt. eigenvalues --    3.07336   3.07706   3.09202   3.10603   3.13112
 Alpha virt. eigenvalues --    3.13519   3.14996   3.17321   3.18645   3.21429
 Alpha virt. eigenvalues --    3.23402   3.25454   3.25879   3.27567   3.28472
 Alpha virt. eigenvalues --    3.29233   3.30851   3.32694   3.33383   3.34553
 Alpha virt. eigenvalues --    3.35618   3.36927   3.38340   3.39476   3.40429
 Alpha virt. eigenvalues --    3.40944   3.42731   3.44508   3.46025   3.47657
 Alpha virt. eigenvalues --    3.50278   3.51621   3.53974   3.54966   3.56108
 Alpha virt. eigenvalues --    3.57835   3.59541   3.60439   3.62552   3.64057
 Alpha virt. eigenvalues --    3.65625   3.68833   3.69493   3.70170   3.71716
 Alpha virt. eigenvalues --    3.75567   3.76631   3.77861   3.79843   3.84177
 Alpha virt. eigenvalues --    3.85526   3.87947   3.88444   3.92845   3.93534
 Alpha virt. eigenvalues --    3.94741   3.96961   3.98685   4.01512   4.03058
 Alpha virt. eigenvalues --    4.05218   4.08783   4.10483   4.11854   4.12665
 Alpha virt. eigenvalues --    4.14981   4.16555   4.18102   4.19836   4.23242
 Alpha virt. eigenvalues --    4.26767   4.27916   4.30894   4.31859   4.33613
 Alpha virt. eigenvalues --    4.33760   4.36546   4.37385   4.39445   4.40842
 Alpha virt. eigenvalues --    4.42098   4.43006   4.43923   4.46581   4.47028
 Alpha virt. eigenvalues --    4.47329   4.48545   4.50757   4.52539   4.53321
 Alpha virt. eigenvalues --    4.54301   4.55082   4.55930   4.56914   4.58952
 Alpha virt. eigenvalues --    4.60391   4.60819   4.61373   4.62699   4.64793
 Alpha virt. eigenvalues --    4.66587   4.67750   4.69489   4.70692   4.73085
 Alpha virt. eigenvalues --    4.73554   4.75362   4.76481   4.77901   4.79152
 Alpha virt. eigenvalues --    4.80754   4.82521   4.83560   4.84980   4.85951
 Alpha virt. eigenvalues --    4.87977   4.88649   4.91240   4.91829   4.92872
 Alpha virt. eigenvalues --    4.95228   4.95812   4.98667   4.99977   5.01519
 Alpha virt. eigenvalues --    5.03062   5.06195   5.08248   5.08686   5.13647
 Alpha virt. eigenvalues --    5.16902   5.17679   5.20371   5.24614   5.25594
 Alpha virt. eigenvalues --    5.28389   5.30338   5.33342   5.34357   5.37403
 Alpha virt. eigenvalues --    5.42183   5.42637   5.43181   5.46034   5.47924
 Alpha virt. eigenvalues --    5.49883   5.53471   5.54816   5.57462   5.59904
 Alpha virt. eigenvalues --    5.62553   5.69148   5.75152   5.77004   5.78608
 Alpha virt. eigenvalues --    5.83317   5.90357   5.97732   5.98156   6.03196
 Alpha virt. eigenvalues --    6.12218   6.18305   6.25330   6.53925   6.56780
 Alpha virt. eigenvalues --    7.15549   7.32593  10.07499  10.34920  10.87423
 Alpha virt. eigenvalues --   11.17491  11.26237  11.42253  11.49590  11.52917
 Alpha virt. eigenvalues --   11.63951  11.92620  12.31234  12.41247  12.57014
 Alpha virt. eigenvalues --   13.35825  19.06362  19.86771
          Condensed to atoms (all electrons):
               1          2          3          4          5          6
     1  O    7.764337   0.441875  -0.034583   0.002339  -0.000004   0.000000
     2  C    0.441875   4.563002   0.516893  -0.022169  -0.006317   0.000106
     3  C   -0.034583   0.516893   5.403800   0.292400  -0.041579   0.006884
     4  C    0.002339  -0.022169   0.292400   4.814332   0.518042  -0.008975
     5  C   -0.000004  -0.006317  -0.041579   0.518042   4.682888   0.361179
     6  C    0.000000   0.000106   0.006884  -0.008975   0.361179   4.878280
     7  C   -0.000000  -0.000066  -0.000233  -0.044493   0.047490   0.602960
     8  C    0.000000   0.000592   0.004535  -0.044432  -0.057247   0.026043
     9  N    0.000011  -0.002384  -0.039410   0.397775  -0.005269  -0.030178
    10  N    0.000005   0.004800  -0.019269  -0.044174   0.421030  -0.063747
    11  C    0.000225  -0.011025   0.021687  -0.010232  -0.067361   0.002468
    12  C    0.002725   0.002467  -0.012910   0.004491   0.001739  -0.000271
    13  C   -0.004255  -0.014902  -0.028313  -0.003249   0.002747   0.002126
    14  C   -0.057293   0.362788  -0.067161   0.006327   0.005175  -0.000182
    15  H    0.306859  -0.074183  -0.004051   0.000196   0.000018  -0.000000
    16  H   -0.003965  -0.051960   0.352664  -0.031210  -0.002470  -0.000031
    17  H   -0.000000  -0.000004  -0.000093   0.005567  -0.047944   0.369114
    18  H    0.000000   0.000000   0.000012   0.001071   0.003228  -0.021897
    19  H   -0.000000  -0.000061  -0.000169   0.001704   0.003566  -0.006221
    20  H    0.000000   0.000038  -0.000045   0.000054   0.003628  -0.004678
    21  H   -0.000092   0.006452   0.001481  -0.046984   0.006352   0.000528
    22  H    0.000018  -0.000281   0.000142   0.000027   0.000478  -0.000003
    23  H    0.000199  -0.022772   0.010595  -0.000175   0.000117   0.000002
    24  H    0.003039  -0.009426  -0.016478   0.000033  -0.009010   0.000452
               7          8          9         10         11         12
     1  O   -0.000000   0.000000   0.000011   0.000005   0.000225   0.002725
     2  C   -0.000066   0.000592  -0.002384   0.004800  -0.011025   0.002467
     3  C   -0.000233   0.004535  -0.039410  -0.019269   0.021687  -0.012910
     4  C   -0.044493  -0.044432   0.397775  -0.044174  -0.010232   0.004491
     5  C    0.047490  -0.057247  -0.005269   0.421030  -0.067361   0.001739
     6  C    0.602960   0.026043  -0.030178  -0.063747   0.002468  -0.000271
     7  C    4.875729   0.356595  -0.000302   0.003997   0.000374   0.000006
     8  C    0.356595   4.908180   0.377607   0.000511  -0.000170   0.000004
     9  N   -0.000302   0.377607   6.377181   0.003109   0.000340  -0.000041
    10  N    0.003997   0.000511   0.003109   6.557139   0.637642  -0.019119
    11  C    0.000374  -0.000170   0.000340   0.637642   4.549986   0.208044
    12  C    0.000006   0.000004  -0.000041  -0.019119   0.208044   5.321889
    13  C    0.000039  -0.000015  -0.000111  -0.083735   0.379099   0.456289
    14  C   -0.000051   0.000052  -0.015831  -0.003595  -0.054935  -0.016163
    15  H   -0.000000   0.000000  -0.000004  -0.000023   0.000143   0.003148
    16  H    0.000029  -0.000187   0.000891   0.001720   0.004401  -0.001803
    17  H   -0.055466   0.007334   0.000005  -0.000834   0.001732  -0.000015
    18  H    0.362169  -0.059142   0.002324  -0.000152  -0.000007  -0.000000
    19  H   -0.016873   0.351576  -0.030056   0.000000   0.000004   0.000000
    20  H   -0.036275   0.354277  -0.046506   0.000018  -0.000010  -0.000000
    21  H    0.002701  -0.036137   0.348119  -0.000136   0.000020   0.000007
    22  H   -0.000000  -0.000000   0.000000  -0.002359  -0.005681   0.339605
    23  H    0.000002  -0.000010   0.000125  -0.000141   0.003911  -0.002116
    24  H    0.000045   0.000506   0.022212   0.001743  -0.005884   0.002689
              13         14         15         16         17         18
     1  O   -0.004255  -0.057293   0.306859  -0.003965  -0.000000   0.000000
     2  C   -0.014902   0.362788  -0.074183  -0.051960  -0.000004   0.000000
     3  C   -0.028313  -0.067161  -0.004051   0.352664  -0.000093   0.000012
     4  C   -0.003249   0.006327   0.000196  -0.031210   0.005567   0.001071
     5  C    0.002747   0.005175   0.000018  -0.002470  -0.047944   0.003228
     6  C    0.002126  -0.000182  -0.000000  -0.000031   0.369114  -0.021897
     7  C    0.000039  -0.000051  -0.000000   0.000029  -0.055466   0.362169
     8  C   -0.000015   0.000052   0.000000  -0.000187   0.007334  -0.059142
     9  N   -0.000111  -0.015831  -0.000004   0.000891   0.000005   0.002324
    10  N   -0.083735  -0.003595  -0.000023   0.001720  -0.000834  -0.000152
    11  C    0.379099  -0.054935   0.000143   0.004401   0.001732  -0.000007
    12  C    0.456289  -0.016163   0.003148  -0.001803  -0.000015  -0.000000
    13  C    4.976009   0.383149   0.001222   0.000465   0.000118   0.000001
    14  C    0.383149   5.121872   0.009283   0.007679  -0.000002  -0.000000
    15  H    0.001222   0.009283   0.453175   0.003711   0.000000   0.000000
    16  H    0.000465   0.007679   0.003711   0.612446   0.000005   0.000000
    17  H    0.000118  -0.000002   0.000000   0.000005   0.633812  -0.009207
    18  H    0.000001  -0.000000   0.000000   0.000000  -0.009207   0.635031
    19  H   -0.000004   0.000179  -0.000000   0.000003  -0.000172   0.000135
    20  H    0.000001  -0.000032  -0.000000  -0.000007  -0.000267   0.001455
    21  H    0.000236   0.000288   0.000030   0.000580   0.000026  -0.000167
    22  H   -0.011242   0.000651   0.000104   0.000151   0.000002   0.000000
    23  H   -0.029135   0.343540  -0.000278  -0.000224   0.000000   0.000000
    24  H   -0.011773   0.321718  -0.000307  -0.000242  -0.000004  -0.000003
              19         20         21         22         23         24
     1  O   -0.000000   0.000000  -0.000092   0.000018   0.000199   0.003039
     2  C   -0.000061   0.000038   0.006452  -0.000281  -0.022772  -0.009426
     3  C   -0.000169  -0.000045   0.001481   0.000142   0.010595  -0.016478
     4  C    0.001704   0.000054  -0.046984   0.000027  -0.000175   0.000033
     5  C    0.003566   0.003628   0.006352   0.000478   0.000117  -0.009010
     6  C   -0.006221  -0.004678   0.000528  -0.000003   0.000002   0.000452
     7  C   -0.016873  -0.036275   0.002701  -0.000000   0.000002   0.000045
     8  C    0.351576   0.354277  -0.036137  -0.000000  -0.000010   0.000506
     9  N   -0.030056  -0.046506   0.348119   0.000000   0.000125   0.022212
    10  N    0.000000   0.000018  -0.000136  -0.002359  -0.000141   0.001743
    11  C    0.000004  -0.000010   0.000020  -0.005681   0.003911  -0.005884
    12  C    0.000000  -0.000000   0.000007   0.339605  -0.002116   0.002689
    13  C   -0.000004   0.000001   0.000236  -0.011242  -0.029135  -0.011773
    14  C    0.000179  -0.000032   0.000288   0.000651   0.343540   0.321718
    15  H   -0.000000  -0.000000   0.000030   0.000104  -0.000278  -0.000307
    16  H    0.000003  -0.000007   0.000580   0.000151  -0.000224  -0.000242
    17  H   -0.000172  -0.000267   0.000026   0.000002   0.000000  -0.000004
    18  H    0.000135   0.001455  -0.000167   0.000000   0.000000  -0.000003
    19  H    0.658329  -0.062862  -0.000536   0.000000  -0.000000  -0.000667
    20  H   -0.062862   0.699041  -0.002934  -0.000000  -0.000000   0.000167
    21  H   -0.000536  -0.002934   0.489063   0.000000  -0.000065  -0.001095
    22  H    0.000000  -0.000000   0.000000   0.436996   0.000032  -0.000055
    23  H   -0.000000  -0.000000  -0.000065   0.000032   0.628182  -0.043824
    24  H   -0.000667   0.000167  -0.001095  -0.000055  -0.043824   0.593762
 Mulliken charges:
               1
     1  O   -0.421440
     2  C    0.316536
     3  C   -0.346798
     4  C    0.211736
     5  C    0.179527
     6  C   -0.113957
     7  C   -0.098378
     8  C   -0.190473
     9  N   -0.359606
    10  N   -0.394429
    11  C    0.345230
    12  C   -0.290664
    13  C   -0.014767
    14  C   -0.347453
    15  H    0.300955
    16  H    0.107353
    17  H    0.096295
    18  H    0.085150
    19  H    0.102126
    20  H    0.094938
    21  H    0.232263
    22  H    0.241415
    23  H    0.112036
    24  H    0.152404
 Sum of Mulliken charges =  -0.00000
 Mulliken charges with hydrogens summed into heavy atoms:
               1
     1  O   -0.120485
     2  C    0.316536
     3  C   -0.239445
     4  C    0.211736
     5  C    0.179527
     6  C   -0.017662
     7  C   -0.013228
     8  C    0.006592
     9  N   -0.127343
    10  N   -0.394429
    11  C    0.345230
    12  C   -0.049249
    13  C   -0.014767
    14  C   -0.083012
 Electronic spatial extent (au):  <R**2>=           2346.2890
 Charge=             -0.0000 electrons
 Dipole moment (field-independent basis, Debye):
    X=             -1.0434    Y=             -0.7468    Z=              0.6192  Tot=              1.4247
 Quadrupole moment (field-independent basis, Debye-Ang):
   XX=            -75.6007   YY=            -79.4822   ZZ=            -79.8071
   XY=             -8.3140   XZ=              4.5906   YZ=              0.3966
 Traceless Quadrupole moment (field-independent basis, Debye-Ang):
   XX=              2.6960   YY=             -1.1856   ZZ=             -1.5104
   XY=             -8.3140   XZ=              4.5906   YZ=              0.3966
 Octapole moment (field-independent basis, Debye-Ang**2):
  XXX=              0.3905  YYY=             -6.6434  ZZZ=             -1.1049  XYY=              1.5247
  XXY=              9.8367  XXZ=            -10.3611  XZZ=            -12.6296  YZZ=             -8.8234
  YYZ=              6.1667  XYZ=              3.3430
 Hexadecapole moment (field-independent basis, Debye-Ang**3):
 XXXX=          -1870.7886 YYYY=           -860.1235 ZZZZ=           -277.1050 XXXY=             -2.9096
 XXXZ=             71.5670 YYYX=            -52.4071 YYYZ=             -1.1420 ZZZX=             11.3196
 ZZZY=             -2.5604 XXYY=           -478.1984 XXZZ=           -360.9335 YYZZ=           -205.0003
 XXYZ=             -4.0586 YYXZ=              9.5599 ZZXY=              6.1982
 N-N= 8.611129045568D+02 E-N=-3.140649413297D+03  KE= 6.053329712464D+02
 PrsmSu:  requested number of processors reduced to:  13 ShMem   1 Linda.
 Calling FoFJK, ICntrl=      2127 FMM=F ISym2X=0 I1Cent= 0 IOpClX= 0 NMat=1 NMatS=1 NMatT=0.
 ***** Axes restored to original set *****
 -------------------------------------------------------------------
 Center     Atomic                   Forces (Hartrees/Bohr)
 Number     Number              X              Y              Z
 -------------------------------------------------------------------
      1        8           0.001451249   -0.009013886   -0.009150303
      2        6          -0.000425146    0.007135738   -0.030348055
      3        6           0.003650810    0.005561220   -0.009859225
      4        6          -0.009897027    0.011348553   -0.001268410
      5        6           0.037005059   -0.016379204    0.016947951
      6        6           0.003512351   -0.017725473    0.018143084
      7        6           0.001775775    0.006106456   -0.011602515
      8        6          -0.000603104   -0.002142382   -0.004963337
      9        7          -0.014798998    0.003408321    0.009737583
     10        7          -0.024296550    0.008289206   -0.025980802
     11        6           0.006215487   -0.005148003    0.004598380
     12        6           0.014474168    0.025574942   -0.042662491
     13        6           0.003228784   -0.033298771    0.043386912
     14        6           0.002811028    0.031580456    0.037366349
     15        1          -0.000247577   -0.004040198    0.005177824
     16        1           0.002500784   -0.017399843    0.009396191
     17        1          -0.005047430    0.000207554    0.000212160
     18        1          -0.000461094    0.002952284    0.002230538
     19        1           0.003196358   -0.002416109    0.006350347
     20        1           0.012921686   -0.006394010    0.008301636
     21        1           0.005040331   -0.004900635   -0.005186414
     22        1          -0.036795797    0.004075554    0.012643024
     23        1          -0.011602240    0.000526576   -0.008559670
     24        1           0.006391094    0.012091652   -0.024910757
 -------------------------------------------------------------------
 Cartesian Forces:  Max     0.043386912 RMS     0.015617995

 GradGradGradGradGradGradGradGradGradGradGradGradGradGradGradGradGradGrad
 Berny optimization.
 FormGI is forming the generalized inverse of G from B-inverse, IUseBI=4.
 Internal  Forces:  Max     0.046232448 RMS     0.010667590
 Search for a local minimum.
 Step number   1 out of a maximum of  135
 All quantities printed in internal units (Hartrees-Bohrs-Radians)
 Mixed Optimization -- RFO/linear search
 Second derivative matrix not updated -- first step.
 ITU=  0
     Eigenvalues ---    0.00965   0.01052   0.01287   0.01456   0.01585
     Eigenvalues ---    0.01690   0.01852   0.01923   0.02020   0.02084
     Eigenvalues ---    0.02129   0.02319   0.02434   0.02630   0.03238
     Eigenvalues ---    0.04399   0.04889   0.05808   0.06099   0.07027
     Eigenvalues ---    0.08033   0.09338   0.09878   0.10346   0.10749
     Eigenvalues ---    0.11045   0.14098   0.15251   0.15653   0.15950
     Eigenvalues ---    0.15987   0.16000   0.17601   0.20221   0.21843
     Eigenvalues ---    0.21898   0.22370   0.22887   0.23959   0.24400
     Eigenvalues ---    0.25341   0.30191   0.31597   0.32237   0.32703
     Eigenvalues ---    0.32928   0.33574   0.34209   0.34320   0.34864
     Eigenvalues ---    0.35102   0.35229   0.35261   0.35368   0.38386
     Eigenvalues ---    0.41229   0.45616   0.45980   0.47274   0.48309
     Eigenvalues ---    0.49996   0.50296   0.51641   0.53314   0.54676
     Eigenvalues ---    0.72184
 RFO step:  Lambda=-6.39653516D-02 EMin= 9.64580721D-03
 Linear search not attempted -- first point.
 Maximum step size (   0.300) exceeded in Quadratic search.
    -- Step size scaled by   0.755
 Iteration  1 RMS(Cart)=  0.08742414 RMS(Int)=  0.00282073
 Iteration  2 RMS(Cart)=  0.00391588 RMS(Int)=  0.00081467
 Iteration  3 RMS(Cart)=  0.00001138 RMS(Int)=  0.00081465
 Iteration  4 RMS(Cart)=  0.00000001 RMS(Int)=  0.00081465
 Variable       Old X    -DE/DX   Delta X   Delta X   Delta X     New X
                                 (Linear)    (Quad)   (Total)
    R1        2.59869  -0.00135   0.00000  -0.00181  -0.00181   2.59688
    R2        1.83362  -0.00365   0.00000  -0.00461  -0.00461   1.82900
    R3        2.56770   0.00427   0.00000   0.00364   0.00387   2.57157
    R4        2.82208   0.01943   0.00000   0.03999   0.04023   2.86230
    R5        2.85737  -0.00944   0.00000  -0.02966  -0.02979   2.82758
    R6        2.05253   0.00353   0.00000   0.00639   0.00639   2.05892
    R7        2.59270  -0.00914   0.00000  -0.01103  -0.01089   2.58181
    R8        2.61020   0.01017   0.00000   0.01367   0.01364   2.62384
    R9        2.76390  -0.00163   0.00000  -0.00348  -0.00349   2.76042
   R10        2.58045   0.04623   0.00000   0.06903   0.06932   2.64977
   R11        2.54115  -0.00343   0.00000  -0.00385  -0.00383   2.53732
   R12        2.05510  -0.00240   0.00000  -0.00437  -0.00437   2.05073
   R13        2.83552   0.00556   0.00000   0.01194   0.01197   2.84749
   R14        2.05305  -0.00037   0.00000  -0.00067  -0.00067   2.05239
   R15        2.72697   0.01529   0.00000   0.02578   0.02579   2.75276
   R16        2.06794   0.00409   0.00000   0.00758   0.00758   2.07553
   R17        2.05896   0.01146   0.00000   0.02097   0.02097   2.07993
   R18        1.91267  -0.00568   0.00000  -0.00825  -0.00825   1.90442
   R19        2.40781   0.01947   0.00000   0.02085   0.02070   2.42850
   R20        2.72522   0.01920   0.00000   0.04887   0.04858   2.77379
   R21        2.61697   0.01615   0.00000   0.01468   0.01420   2.63117
   R22        2.58642   0.01023   0.00000   0.00609   0.00658   2.59300
   R23        2.08055  -0.01305   0.00000  -0.02466  -0.02466   2.05589
   R24        2.97066  -0.02064   0.00000  -0.05912  -0.05943   2.91123
   R25        2.06978   0.00072   0.00000   0.00134   0.00134   2.07113
   R26        2.09178  -0.00731   0.00000  -0.01404  -0.01404   2.07775
    A1        1.90595   0.00460   0.00000   0.01550   0.01550   1.92145
    A2        2.24251  -0.01921   0.00000  -0.06219  -0.06463   2.17788
    A3        1.98678   0.00395   0.00000   0.02321   0.02301   2.00979
    A4        1.94523   0.01887   0.00000   0.06778   0.06876   2.01399
    A5        2.10939   0.00111   0.00000   0.01697   0.01639   2.12579
    A6        2.04545   0.00266   0.00000   0.01553   0.01495   2.06041
    A7        2.05506   0.00081   0.00000  -0.00601  -0.00735   2.04770
    A8        2.18931  -0.00427   0.00000  -0.02801  -0.02888   2.16044
    A9        2.00483   0.00098   0.00000   0.01552   0.01561   2.02044
   A10        2.06769   0.00410   0.00000   0.01978   0.01998   2.08766
   A11        2.09663  -0.00586   0.00000  -0.02364  -0.02380   2.07283
   A12        2.15155  -0.01635   0.00000  -0.02789  -0.02792   2.12363
   A13        2.03193   0.02191   0.00000   0.04974   0.04971   2.08163
   A14        2.08711   0.01056   0.00000   0.02609   0.02592   2.11302
   A15        2.09349  -0.00960   0.00000  -0.02700  -0.02714   2.06636
   A16        2.09990  -0.00066   0.00000   0.00305   0.00293   2.10283
   A17        2.14475  -0.00021   0.00000  -0.00014  -0.00016   2.14459
   A18        2.10628   0.00142   0.00000   0.00446   0.00448   2.11076
   A19        2.03132  -0.00121   0.00000  -0.00437  -0.00437   2.02695
   A20        1.95202  -0.00823   0.00000  -0.01689  -0.01689   1.93513
   A21        1.90465   0.00502   0.00000   0.01290   0.01286   1.91751
   A22        1.90424  -0.00124   0.00000  -0.00589  -0.00579   1.89845
   A23        1.91186   0.00037   0.00000  -0.00330  -0.00314   1.90872
   A24        1.86889   0.01064   0.00000   0.04450   0.04445   1.91334
   A25        1.92199  -0.00671   0.00000  -0.03190  -0.03189   1.89010
   A26        2.17118   0.00006   0.00000  -0.00072  -0.00100   2.17018
   A27        2.02571   0.00150   0.00000   0.00432   0.00436   2.03008
   A28        2.06538  -0.00204   0.00000  -0.00732  -0.00729   2.05810
   A29        1.86412   0.01609   0.00000   0.06598   0.06757   1.93169
   A30        2.52183   0.00702   0.00000   0.02480   0.02478   2.54661
   A31        2.67007  -0.00456   0.00000  -0.00981  -0.01049   2.65958
   A32        1.66296   0.03171   0.00000   0.11830   0.11688   1.77985
   A33        2.57906   0.03671   0.00000   0.12736   0.12719   2.70625
   A34        2.21536  -0.00195   0.00000   0.00367   0.00227   2.21764
   A35        2.42207   0.00918   0.00000   0.03614   0.03611   2.45818
   A36        1.85903  -0.01699   0.00000  -0.04409  -0.04250   1.81653
   A37        1.98681   0.01307   0.00000   0.03002   0.02829   2.01510
   A38        1.78648   0.01398   0.00000   0.06414   0.06144   1.84792
   A39        2.03385  -0.00469   0.00000  -0.01031  -0.01040   2.02345
   A40        2.05309  -0.00873   0.00000  -0.07641  -0.07624   1.97685
   A41        1.73301   0.00797   0.00000   0.05078   0.04880   1.78181
    D1       -0.89377  -0.00321   0.00000  -0.00695  -0.00593  -0.89971
    D2        1.71629   0.01162   0.00000   0.08242   0.08141   1.79770
    D3        3.11966   0.01710   0.00000   0.05819   0.05685  -3.10667
    D4        0.38896   0.00467   0.00000  -0.01103  -0.01293   0.37603
    D5        0.49952   0.00587   0.00000  -0.01973  -0.01947   0.48006
    D6       -2.23118  -0.00656   0.00000  -0.08894  -0.08925  -2.32043
    D7       -1.64947   0.00826   0.00000  -0.00425  -0.00644  -1.65591
    D8        0.61625  -0.00208   0.00000  -0.03155  -0.03418   0.58207
    D9        2.46828   0.01905   0.00000   0.07105   0.07069   2.53898
   D10        1.05175   0.00945   0.00000   0.03153   0.03256   1.08431
   D11       -2.96571  -0.00089   0.00000   0.00423   0.00481  -2.96090
   D12       -1.11368   0.02024   0.00000   0.10683   0.10969  -1.00399
   D13       -1.72757   0.00116   0.00000   0.02943   0.02874  -1.69883
   D14        1.18884   0.00597   0.00000   0.07049   0.06961   1.25845
   D15        1.00096   0.01408   0.00000   0.10394   0.10306   1.10402
   D16       -2.36582   0.01889   0.00000   0.14500   0.14393  -2.22189
   D17        3.11092   0.00356   0.00000   0.03055   0.03023   3.14115
   D18        0.05675   0.00673   0.00000   0.05340   0.05195   0.10871
   D19        0.20186  -0.00099   0.00000  -0.01106  -0.01129   0.19057
   D20       -2.85230   0.00218   0.00000   0.01179   0.01043  -2.84187
   D21        2.98759  -0.00257   0.00000  -0.01773  -0.01838   2.96922
   D22        0.06870   0.00020   0.00000   0.00268   0.00222   0.07092
   D23       -0.36245   0.00076   0.00000   0.01370   0.01395  -0.34850
   D24        3.00184   0.00353   0.00000   0.03411   0.03455   3.03639
   D25        0.00672  -0.00112   0.00000  -0.01029  -0.01030  -0.00358
   D26        3.06994   0.00315   0.00000   0.02107   0.02094   3.09088
   D27        3.06670  -0.00585   0.00000  -0.03513  -0.03517   3.03153
   D28       -0.15326  -0.00158   0.00000  -0.00378  -0.00393  -0.15719
   D29        0.88143  -0.00411   0.00000  -0.02657  -0.02651   0.85491
   D30       -2.17573   0.00016   0.00000  -0.00126  -0.00125  -2.17699
   D31       -0.07683   0.00367   0.00000   0.03108   0.03136  -0.04547
   D32        3.01935   0.00384   0.00000   0.02956   0.02990   3.04925
   D33       -3.13976  -0.00020   0.00000   0.00098   0.00081  -3.13895
   D34       -0.04358  -0.00004   0.00000  -0.00054  -0.00066  -0.04423
   D35       -0.05408  -0.00354   0.00000  -0.02662  -0.02643  -0.08051
   D36       -2.17224  -0.00207   0.00000  -0.02027  -0.02014  -2.19238
   D37        2.01020   0.00382   0.00000   0.01438   0.01446   2.02467
   D38        3.13111  -0.00376   0.00000  -0.02537  -0.02524   3.10587
   D39        1.01294  -0.00229   0.00000  -0.01902  -0.01895   0.99399
   D40       -1.08779   0.00360   0.00000   0.01562   0.01565  -1.07214
   D41        0.27971  -0.00022   0.00000  -0.00066  -0.00067   0.27904
   D42       -3.08925  -0.00263   0.00000  -0.02010  -0.02019  -3.10944
   D43        2.39371   0.00097   0.00000   0.00228   0.00239   2.39610
   D44       -0.97525  -0.00145   0.00000  -0.01716  -0.01713  -0.99238
   D45       -1.80551  -0.00068   0.00000  -0.01187  -0.01177  -1.81728
   D46        1.10871  -0.00310   0.00000  -0.03132  -0.03129   1.07742
   D47       -2.40787   0.00148   0.00000  -0.03623  -0.03500  -2.44286
   D48       -0.01456  -0.00079   0.00000  -0.02024  -0.02007  -0.03463
   D49       -0.73380   0.01280   0.00000   0.05758   0.05975  -0.67406
   D50       -0.34543   0.00990   0.00000   0.03096   0.03178  -0.31366
   D51        0.71831   0.00658   0.00000   0.02526   0.02561   0.74392
   D52       -2.74957  -0.00610   0.00000  -0.04838  -0.04913  -2.79871
   D53       -1.03612   0.00619   0.00000   0.04688   0.04613  -0.98999
   D54        3.00862   0.00682   0.00000   0.05240   0.05172   3.06034
   D55        0.95405   0.00694   0.00000   0.05390   0.05455   1.00859
   D56        0.53556   0.01495   0.00000   0.10725   0.10694   0.64250
   D57       -1.70288   0.01559   0.00000   0.11277   0.11253  -1.59035
   D58        2.52573   0.01571   0.00000   0.11427   0.11536   2.64109
         Item               Value     Threshold  Converged?
 Maximum Force            0.046232     0.000450     NO 
 RMS     Force            0.010668     0.000300     NO 
 Maximum Displacement     0.367920     0.001800     NO 
 RMS     Displacement     0.088249     0.001200     NO 
 Predicted change in Energy=-3.744870D-02
 GradGradGradGradGradGradGradGradGradGradGradGradGradGradGradGradGradGrad

                          Input orientation:                          
 ---------------------------------------------------------------------
 Center     Atomic      Atomic             Coordinates (Angstroms)
 Number     Number       Type             X           Y           Z
 ---------------------------------------------------------------------
      1          8           0        1.021672   -0.514749   -0.033004
      2          6           0        2.373770   -0.356302   -0.220551
      3          6           0        3.191957   -1.281522   -0.791828
      4          6           0        4.665414   -1.056870   -0.923504
      5          6           0        5.264774   -0.594592   -2.060901
      6          6           0        6.714394   -0.414772   -2.068277
      7          6           0        7.452498   -0.691803   -0.981412
      8          6           0        6.849543   -1.145262    0.322945
      9          7           0        5.394487   -1.127821    0.256025
     10          7           0        4.515609   -0.169521   -3.167347
     11          6           0        3.590706    0.645033   -2.803260
     12          6           0        2.195731    1.062080   -2.989364
     13          6           0        2.881942    1.355137   -1.837826
     14          6           0        2.845680    1.079352   -0.322591
     15          1           0        0.599669   -0.779382   -0.862851
     16          1           0        2.741419   -2.035503   -1.436510
     17          1           0        7.189813   -0.093150   -2.989250
     18          1           0        8.536793   -0.639232   -1.014588
     19          1           0        7.184504   -0.488681    1.137199
     20          1           0        7.197525   -2.167124    0.537749
     21          1           0        4.880907   -1.385834    1.083840
     22          1           0        2.071895    0.962242   -4.065603
     23          1           0        2.287937    1.802746    0.283069
     24          1           0        3.839503    1.103421    0.147120
 ---------------------------------------------------------------------
                    Distance matrix (angstroms):
                    1          2          3          4          5
     1  O    0.000000
     2  C    1.374209   0.000000
     3  C    2.423612   1.360816   0.000000
     4  C    3.789954   2.497313   1.496290   0.000000
     5  C    4.703473   3.435342   2.525666   1.366237   0.000000
     6  C    6.046439   4.717894   3.845535   2.433333   1.460749
     7  C    6.502796   5.146353   4.305336   2.811487   2.441491
     8  C    5.872676   4.577159   3.826123   2.516320   2.915038
     9  N    4.425032   3.153902   2.443923   1.388477   2.381030
    10  N    4.706473   3.647735   2.937974   2.417574   1.402198
    11  C    3.952132   3.025556   2.813623   2.754079   2.211396
    12  C    3.550334   3.116060   3.363644   3.854486   3.609104
    13  C    3.196007   2.408909   2.853453   3.136006   3.086923
    14  C    2.439677   1.514666   2.431834   2.869838   3.416991
    15  H    0.967866   1.933644   2.641429   4.075655   4.820029
    16  H    2.690735   2.105573   1.089535   2.218706   2.972106
    17  H    6.852963   5.561404   4.714207   3.401272   2.195234
    18  H    7.579977   6.220401   5.387896   3.894905   3.435530
    19  H    6.273003   5.000418   4.504462   3.303809   3.731545
    20  H    6.418510   5.207947   4.312383   3.127221   3.600189
    21  H    4.110940   3.007841   2.526175   2.045503   3.265396
    22  H    4.421122   4.076041   4.123908   4.547080   4.078853
    23  H    2.659720   2.218668   3.389007   3.909683   4.483635
    24  H    3.254396   2.101035   2.643651   2.548573   3.128898
                    6          7          8          9         10
     6  C    0.000000
     7  C    1.342690   0.000000
     8  C    2.503961   1.506827   0.000000
     9  N    2.766400   2.440650   1.456698   0.000000
    10  N    2.470376   3.698162   4.310621   3.662000   0.000000
    11  C    3.379469   4.474337   4.857811   3.969365   1.285109
    12  C    4.842294   5.894198   6.123864   5.055715   2.632556
    13  C    4.227691   5.080687   5.163601   4.106357   2.600208
    14  C    4.499642   4.979337   4.625639   3.420938   3.527178
    15  H    6.243065   6.854414   6.371884   4.935947   4.584454
    16  H    4.337099   4.920052   4.556851   3.275260   3.102489
    17  H    1.085198   2.111587   3.491899   3.850396   2.681216
    18  H    2.117021   1.086076   2.211758   3.424509   4.585294
    19  H    3.240609   2.145132   1.098321   2.095025   5.074839
    20  H    3.177345   2.132940   1.100651   2.100111   4.991075
    21  H    3.773655   3.370463   2.124232   1.007776   4.436829
    22  H    5.238156   6.418643   6.821058   5.838188   2.838924
    23  H    5.480852   5.873191   5.431445   4.270785   4.556066
    24  H    3.934195   4.189289   3.761360   2.721814   3.614304
                   11         12         13         14         15
    11  C    0.000000
    12  C    1.467828   0.000000
    13  C    1.392357   1.372155   0.000000
    14  C    2.626293   2.744889   1.540555   0.000000
    15  H    3.839329   3.234262   3.273457   2.965019   0.000000
    16  H    3.126431   3.507727   3.417198   3.309684   2.548336
    17  H    3.678733   5.125955   4.688397   5.230423   6.958627
    18  H    5.414098   6.855893   6.052484   5.985077   7.939811
    19  H    5.452331   6.657420   5.546394   4.838916   6.888016
    20  H    5.663895   6.919988   6.055901   5.497121   6.886162
    21  H    4.571496   5.458337   4.477154   3.492468   4.741982
    22  H    2.000230   1.087930   2.402818   3.823950   3.931707
    23  H    3.544422   3.356473   2.247530   1.095993   3.291013
    24  H    2.996123   3.541359   2.218173   1.099496   3.880917
                   16         17         18         19         20
    16  H    0.000000
    17  H    5.096268   0.000000
    18  H    5.976115   2.451908   0.000000
    19  H    5.362616   4.145366   2.545886   0.000000
    20  H    4.875644   4.091595   2.556920   1.782324   0.000000
    21  H    3.369220   4.857174   4.280924   2.472709   2.505065
    22  H    4.043126   5.335304   7.325866   7.437278   7.566760
    23  H    4.230219   6.191194   6.833401   5.473258   6.318923
    24  H    3.683275   4.742697   5.143047   3.834590   4.703761
                   21         22         23         24
    21  H    0.000000
    22  H    6.318288   0.000000
    23  H    4.187096   4.434418   0.000000
    24  H    2.856284   4.570711   1.707307   0.000000
 Stoichiometry    C11H10N2O
 Framework group  C1[X(C11H10N2O)]
 Deg. of freedom    66
 Full point group                 C1      NOp   1
 Largest Abelian subgroup         C1      NOp   1
 Largest concise Abelian subgroup C1      NOp   1
                         Standard orientation:                         
 ---------------------------------------------------------------------
 Center     Atomic      Atomic             Coordinates (Angstroms)
 Number     Number       Type             X           Y           Z
 ---------------------------------------------------------------------
      1          8           0       -2.907569   -1.711831   -0.381502
      2          6           0       -1.656943   -1.242887   -0.058277
      3          6           0       -0.697488   -0.903953   -0.961820
      4          6           0        0.659699   -0.441025   -0.534472
      5          6           0        1.021052    0.873594   -0.446127
      6          6           0        2.377633    1.202292   -0.015506
      7          6           0        3.259156    0.237942    0.293953
      8          6           0        2.907847   -1.227269    0.277633
      9          7           0        1.491619   -1.418364   -0.004767
     10          7           0        0.091408    1.906797   -0.631629
     11          6           0       -0.963942    1.699363    0.071728
     12          6           0       -2.429384    1.770936    0.115031
     13          6           0       -1.729031    0.941627    0.954413
     14          6           0       -1.555817   -0.552762    1.286236
     15          1           0       -3.329368   -1.120388   -1.021069
     16          1           0       -1.011835   -0.662120   -1.976605
     17          1           0        2.673340    2.246190    0.006617
     18          1           0        4.290971    0.479909    0.531376
     19          1           0        3.149839   -1.679927    1.248637
     20          1           0        3.509896   -1.727272   -0.496297
     21          1           0        1.135021   -2.360907   -0.012738
     22          1           0       -2.625825    2.700174   -0.415554
     23          1           0       -2.211896   -0.948992    2.069666
     24          1           0       -0.557452   -0.798201    1.676001
 ---------------------------------------------------------------------
 Rotational constants (GHZ):           1.3028405           0.6218482           0.4784491
 Standard basis: 6-31G(2df,p) (6D, 7F)
 There are   484 symmetry adapted cartesian basis functions of A   symmetry.
 There are   442 symmetry adapted basis functions of A   symmetry.
   442 basis functions,   686 primitive gaussians,   484 cartesian basis functions
    49 alpha electrons       49 beta electrons
       nuclear repulsion energy       854.7735106568 Hartrees.
 NAtoms=   24 NActive=   24 NUniq=   24 SFac= 1.00D+00 NAtFMM=   60 NAOKFM=F Big=F
 Integral buffers will be    131072 words long.
 Raffenetti 2 integral format.
 Two-electron integral symmetry is turned on.
 One-electron integrals computed using PRISM.
 PrsmSu:  requested number of processors reduced to:  12 ShMem   1 Linda.
 NBasis=   442 RedAO= T EigKep=  1.88D-04  NBF=   442
 NBsUse=   442 1.00D-06 EigRej= -1.00D+00 NBFU=   442
 Initial guess from the checkpoint file:  "OC1dCC2dCqCdCCN2rNdC2CdC2C1.chk"
 B after Tr=     0.000000    0.000000    0.000000
         Rot=    0.999719    0.008229    0.004817   -0.021706 Ang=   2.72 deg.
 ExpMin= 1.61D-01 ExpMax= 5.48D+03 ExpMxC= 8.25D+02 IAcc=2 IRadAn=         4 AccDes= 0.00D+00
 Harris functional with IExCor=  402 and IRadAn=       4 diagonalized for initial guess.
 HarFok:  IExCor=  402 AccDes= 0.00D+00 IRadAn=         4 IDoV= 1 UseB2=F ITyADJ=14
 ICtDFT=  3500011 ScaDFX=  1.000000  1.000000  1.000000  1.000000
 FoFCou: FMM=F IPFlag=           0 FMFlag=      100000 FMFlg1=           0
         NFxFlg=           0 DoJE=T BraDBF=F KetDBF=T FulRan=T
         wScrn=  0.000000 ICntrl=       500 IOpCl=  0 I1Cent=   200000004 NGrid=           0
         NMat0=    1 NMatS0=      1 NMatT0=    0 NMatD0=    1 NMtDS0=    0 NMtDT0=    0
 Petite list used in FoFCou.
 Requested convergence on RMS density matrix=1.00D-08 within 128 cycles.
 Requested convergence on MAX density matrix=1.00D-06.
 Requested convergence on             energy=1.00D-06.
 No special actions if energy rises.
 Integral accuracy reduced to 1.0D-05 until final iterations.
 Initial convergence to 1.0D-05 achieved.  Increase integral accuracy.
 SCF Done:  E(RB3LYP) =  -609.679232696     A.U. after   14 cycles
            NFock= 14  Conv=0.47D-08     -V/T= 2.0076
 PrsmSu:  requested number of processors reduced to:  13 ShMem   1 Linda.
 Calling FoFJK, ICntrl=      2127 FMM=F ISym2X=0 I1Cent= 0 IOpClX= 0 NMat=1 NMatS=1 NMatT=0.
 ***** Axes restored to original set *****
 -------------------------------------------------------------------
 Center     Atomic                   Forces (Hartrees/Bohr)
 Number     Number              X              Y              Z
 -------------------------------------------------------------------
      1        8           0.000594674    0.001153899   -0.005544591
      2        6           0.002820922   -0.001984436   -0.024695540
      3        6          -0.000422541    0.012878765   -0.002695157
      4        6          -0.004681753    0.011733762    0.001311092
      5        6           0.015992451   -0.001494911    0.005451391
      6        6          -0.001141409   -0.010304173    0.006887628
      7        6          -0.000369826    0.003626012   -0.005295949
      8        6          -0.002510340   -0.002005928   -0.005910700
      9        7          -0.005278565    0.001206441    0.003163191
     10        7          -0.015985968    0.007103116   -0.008878440
     11        6           0.005120470   -0.011834307    0.001125059
     12        6           0.042515903    0.015551198   -0.029196593
     13        6          -0.003383161   -0.032765934    0.025108993
     14        6          -0.001243035    0.020499373    0.028560896
     15        1           0.000885929   -0.003524151    0.003521112
     16        1           0.001521486   -0.011858809    0.011464325
     17        1          -0.001751482    0.000633466   -0.000687403
     18        1          -0.000471715    0.002298072    0.001011005
     19        1           0.001695157   -0.002050945    0.003233622
     20        1           0.005103455   -0.002027485    0.005287587
     21        1           0.001972591   -0.005167637   -0.002605427
     22        1          -0.034361750    0.006522822    0.009894012
     23        1          -0.009476447   -0.004139225   -0.005218334
     24        1           0.002854953    0.005951017   -0.015291778
 -------------------------------------------------------------------
 Cartesian Forces:  Max     0.042515903 RMS     0.011856107

 GradGradGradGradGradGradGradGradGradGradGradGradGradGradGradGradGradGrad
 Berny optimization.
 Using GEDIIS/GDIIS optimizer.
 FormGI is forming the generalized inverse of G from B-inverse, IUseBI=4.
 Internal  Forces:  Max     0.036385316 RMS     0.006174169
 Search for a local minimum.
 Step number   2 out of a maximum of  135
 All quantities printed in internal units (Hartrees-Bohrs-Radians)
 Mixed Optimization -- RFO/linear search
 Update second derivatives using D2CorX and points    1    2
 DE= -3.81D-02 DEPred=-3.74D-02 R= 1.02D+00
 TightC=F SS=  1.41D+00  RLast= 4.81D-01 DXNew= 5.0454D-01 1.4440D+00
 Trust test= 1.02D+00 RLast= 4.81D-01 DXMaxT set to 5.05D-01
 ITU=  1  0
 Use linear search instead of GDIIS.
     Eigenvalues ---    0.00997   0.01056   0.01290   0.01458   0.01590
     Eigenvalues ---    0.01628   0.01862   0.01906   0.02016   0.02076
     Eigenvalues ---    0.02121   0.02177   0.02410   0.02594   0.03141
     Eigenvalues ---    0.04477   0.04906   0.05232   0.06107   0.06993
     Eigenvalues ---    0.07976   0.08813   0.09830   0.09853   0.10327
     Eigenvalues ---    0.10950   0.11978   0.15361   0.15593   0.15979
     Eigenvalues ---    0.15994   0.16024   0.18059   0.20037   0.21836
     Eigenvalues ---    0.22294   0.23181   0.23295   0.24037   0.25116
     Eigenvalues ---    0.26141   0.30197   0.31565   0.32612   0.32858
     Eigenvalues ---    0.33360   0.34171   0.34267   0.34487   0.35047
     Eigenvalues ---    0.35193   0.35228   0.35299   0.35681   0.39074
     Eigenvalues ---    0.40764   0.45628   0.45970   0.47600   0.48348
     Eigenvalues ---    0.49817   0.50036   0.53293   0.54264   0.54715
     Eigenvalues ---    0.74955
 RFO step:  Lambda=-3.72363442D-02 EMin= 9.97302621D-03
 Quartic linear search produced a step of  1.41210.
 Iteration  1 RMS(Cart)=  0.11190668 RMS(Int)=  0.02694481
 Iteration  2 RMS(Cart)=  0.03419872 RMS(Int)=  0.00592094
 Iteration  3 RMS(Cart)=  0.00197613 RMS(Int)=  0.00529770
 Iteration  4 RMS(Cart)=  0.00004673 RMS(Int)=  0.00529749
 Iteration  5 RMS(Cart)=  0.00000086 RMS(Int)=  0.00529749
 Variable       Old X    -DE/DX   Delta X   Delta X   Delta X     New X
                                 (Linear)    (Quad)   (Total)
    R1        2.59688  -0.00146  -0.00256  -0.00326  -0.00581   2.59106
    R2        1.82900  -0.00244  -0.00652  -0.00281  -0.00932   1.81968
    R3        2.57157  -0.00839   0.00546  -0.03616  -0.03154   2.54003
    R4        2.86230   0.00145   0.05681  -0.04314   0.01354   2.87584
    R5        2.82758  -0.00507  -0.04207   0.00076  -0.04191   2.78567
    R6        2.05892   0.00079   0.00903  -0.00447   0.00455   2.06348
    R7        2.58181  -0.00213  -0.01538   0.00839  -0.00774   2.57408
    R8        2.62384   0.00144   0.01926  -0.01248   0.00703   2.63087
    R9        2.76042  -0.00411  -0.00492  -0.01726  -0.02232   2.73809
   R10        2.64977   0.01544   0.09788  -0.02507   0.07260   2.72237
   R11        2.53732  -0.00274  -0.00541  -0.00448  -0.01013   2.52719
   R12        2.05073   0.00000  -0.00617   0.00598  -0.00019   2.05054
   R13        2.84749   0.00244   0.01690  -0.00157   0.01520   2.86269
   R14        2.05239  -0.00039  -0.00094  -0.00118  -0.00213   2.05026
   R15        2.75276   0.00409   0.03642  -0.01437   0.02220   2.77496
   R16        2.07553   0.00169   0.01071  -0.00110   0.00961   2.08514
   R17        2.07993   0.00453   0.02961  -0.00413   0.02548   2.10541
   R18        1.90442  -0.00182  -0.01165   0.00336  -0.00829   1.89613
   R19        2.42850  -0.00361   0.02923  -0.03495  -0.00491   2.42359
   R20        2.77379  -0.00023   0.06860  -0.03988   0.02547   2.79926
   R21        2.63117   0.01278   0.02006   0.02187   0.03901   2.67018
   R22        2.59300  -0.00007   0.00929  -0.02297  -0.00610   2.58690
   R23        2.05589  -0.00647  -0.03483  -0.00248  -0.03730   2.01859
   R24        2.91123  -0.01008  -0.08392  -0.00024  -0.08336   2.82786
   R25        2.07113  -0.00079   0.00189  -0.00620  -0.00431   2.06682
   R26        2.07775  -0.00382  -0.01982  -0.00252  -0.02235   2.05540
    A1        1.92145   0.00166   0.02188  -0.00519   0.01669   1.93814
    A2        2.17788  -0.00620  -0.09126   0.03252  -0.06626   2.11162
    A3        2.00979   0.00206   0.03250   0.00175   0.03085   2.04064
    A4        2.01399   0.00646   0.09710  -0.00987   0.08422   2.09821
    A5        2.12579   0.00005   0.02315   0.00890   0.02567   2.15146
    A6        2.06041   0.00204   0.02112   0.00619   0.02423   2.08464
    A7        2.04770  -0.00008  -0.01038  -0.00059  -0.01548   2.03222
    A8        2.16044  -0.00050  -0.04078   0.02193  -0.02440   2.13604
    A9        2.02044  -0.00108   0.02204  -0.01371   0.00737   2.02781
   A10        2.08766   0.00217   0.02821   0.00238   0.02996   2.11763
   A11        2.07283  -0.00232  -0.03361   0.00787  -0.02539   2.04744
   A12        2.12363  -0.00306  -0.03942   0.02861  -0.01207   2.11156
[...]
 30252,0.00035892,-0.00042338,-0.00001630,0.00018417,0.00202132,0.00024
 432,0.00236918,0.00131424,-0.00072389,0.00062208,-0.00133865,0.0005475
 9,-0.00014515,0.00057788,-0.00037115,-0.00010994,0.00020426,-0.0006140
 3,0.00094865,-0.00348519,0.00222374,0.00194454,-0.00073696,-0.00072629
 ,0.00056375,0.06632918,-0.00265890,0.00285979,-0.00370857,-0.00339776,
 -0.02407883,0.01295589,-0.02800587,-0.25504604,0.09243095,-0.00182936,
 -0.00400277,0.00597192,-0.00149195,-0.00030196,-0.00199503,0.00081202,
 0.00038458,0.00022191,-0.00027126,-0.00017641,-0.00033249,-0.00037830,
 0.00033633,0.00000675,0.00120571,0.00118803,0.00017779,0.00063786,0.00
 007850,0.00073089,-0.00053761,0.00012469,-0.00014292,0.00021629,-0.000
 26368,0.00021307,0.00033372,-0.00016907,-0.00023579,0.00429715,0.00173
 748,0.00197400,0.00296605,-0.00006256,-0.00037886,0.02902736,0.2777833
 1,-0.00165917,-0.00402884,-0.00520886,0.00585218,0.00200225,0.00406961
 ,0.00892117,0.09649922,-0.07040712,0.00934439,0.01240520,-0.00642479,0
 .00005509,-0.00059448,0.00433729,0.00036161,-0.00085892,-0.00023543,-0
 .00001919,0.00039971,-0.00009950,0.00056482,-0.00020040,-0.00016834,-0
 .00168049,-0.00142314,-0.00024462,-0.00170810,0.00085965,-0.00150172,0
 .00169428,-0.00035928,-0.00019695,-0.00023061,-0.00007528,0.00021269,-
 0.00001788,-0.00081961,0.00008259,0.00213418,0.00168140,0.00655897,-0.
 00067852,0.00051459,0.00060521,-0.02158177,-0.10706772,0.06752438,-0.0
 0072407,-0.00008364,-0.00001277,0.00045735,-0.00045793,0.00005574,-0.0
 0010648,0.00038661,0.00132880,-0.00568464,0.00014108,-0.00237737,-0.01
 134726,-0.01568526,0.02483291,-0.10172495,-0.05914318,0.08730409,0.010
 54786,0.01123044,-0.01538440,-0.00238656,0.00147051,-0.00208144,0.0004
 0763,-0.00021964,-0.00009570,0.00349300,0.00042175,0.00112343,-0.00104
 585,0.00096526,-0.00030593,0.00018697,-0.00008412,-0.00015255,0.000198
 35,-0.00059277,0.00009325,0.00004802,-0.00000831,0.00013851,0.00007625
 ,0.00009281,-0.00001899,-0.00024804,-0.00008906,0.00014878,0.10609212,
 -0.00010960,-0.00004331,0.00002202,-0.00015346,0.00011338,-0.00003563,
 0.00059077,0.00010096,-0.00025548,-0.00135770,0.00091028,0.00092867,0.
 00304175,0.00248129,0.00165160,-0.06051102,-0.11343098,0.11316702,-0.0
 0684438,-0.00390435,0.01197807,0.00310073,0.00816991,0.00679443,0.0001
 3709,-0.00005258,-0.00045395,0.00040975,-0.00048252,-0.00060156,0.0003
 1936,-0.00018339,-0.00025169,-0.00008878,0.00007965,-0.00001526,0.0000
 7168,0.00000693,-0.00005437,0.00001829,-0.00003703,0.00001949,0.000014
 08,0.00001649,0.00000455,0.00006371,0.00001327,0.00006794,0.06144684,0
 .11136106,0.00011601,-0.00002850,-0.00006124,-0.00032824,0.00021466,-0
 .00001342,0.00037958,0.00005733,0.00002962,-0.00088888,0.00051235,0.00
 104694,-0.00004151,0.00192605,-0.00022104,0.08697130,0.11413808,-0.212
 22799,0.01138386,0.01142764,-0.01168009,-0.00272164,0.00530853,0.00270
 506,-0.00010521,-0.00057121,0.00052151,-0.00101712,-0.00095220,0.00038
 555,-0.00017536,-0.00012030,0.00005045,0.00010346,-0.00003931,0.000149
 11,-0.00002560,-0.00004796,-0.00010858,0.00005748,-0.00000618,0.000038
 84,-0.00003383,-0.00000662,0.00000855,0.00006566,0.00001332,-0.0000046
 2,-0.09408336,-0.12882309,0.22162436,-0.00016664,-0.00007698,0.0000792
 4,0.00015211,0.00001273,-0.00006371,-0.00014533,0.00009251,-0.00003681
 ,0.00085775,-0.00018084,0.00062384,0.00230406,0.00124462,-0.00277194,-
 0.01547583,-0.00273443,0.00357456,-0.33618692,-0.00687773,0.01177789,-
 0.00733978,0.00247411,-0.00271815,-0.00030674,-0.00161511,0.00163468,-
 0.00129862,0.00045877,-0.00009350,0.00026001,-0.00021497,-0.00028471,-
 0.00012795,0.00012936,0.00000180,-0.00011968,0.00005990,-0.00000906,0.
 00002230,-0.00000841,0.00001401,0.00002125,0.00002926,-0.00001979,0.00
 003880,0.00000820,0.00002593,0.00105319,0.00019381,-0.00021010,0.35681
 537,-0.00013647,-0.00004793,0.00014302,0.00021427,0.00002271,-0.000166
 03,-0.00005359,-0.00069292,-0.00070954,-0.00012258,-0.00083899,0.00075
 775,-0.00103940,0.00647726,0.00703532,0.01631386,0.00469958,-0.0007256
 6,-0.00963244,-0.04067158,0.01368027,-0.01267159,0.00400439,-0.0023028
 0,-0.00192242,0.00085990,0.00235445,0.00151988,0.00007470,0.00006628,-
 0.00017844,0.00030114,0.00030379,0.00005675,-0.00020847,-0.00013874,0.
 00014447,-0.00016784,-0.00003302,0.00004861,-0.00000879,0.00009896,-0.
 00000008,0.00002808,-0.00001433,0.00007774,0.00000181,0.00015459,-0.00
 022953,-0.00460964,-0.00358357,0.00738032,0.03173437,-0.00019907,-0.00
 009356,0.00007346,0.00015701,0.00007121,-0.00001550,0.00040212,-0.0006
 2823,-0.00020335,-0.00169841,0.00028378,-0.00213628,-0.00141844,0.0067
 4868,0.00178890,-0.02417605,0.00036718,0.00448657,0.01439654,0.0114989
 6,-0.04634741,0.02092006,-0.00080802,0.00075865,0.00291166,0.00456143,
 -0.00241633,-0.00064164,-0.00008590,0.00004904,-0.00018886,-0.00001183
 ,-0.00009229,-0.00001898,0.00007198,-0.00011077,0.00008615,-0.00004245
 ,-0.00003389,0.00002765,-0.00006188,0.00002285,0.00000341,0.00002468,-
 0.00001635,-0.00011206,-0.00015543,0.00019886,0.00035074,-0.00401401,-
 0.00126206,-0.01225777,-0.01640206,0.04495551,-0.00055962,-0.00001973,
 0.00046997,0.00023888,-0.00036810,-0.00023148,-0.00126621,0.00081772,-
 0.00133264,-0.00318699,-0.00254689,0.00521816,0.00042450,0.00021766,0.
 00001168,-0.00221241,-0.00155753,0.00219461,0.01091225,0.00122893,0.01
 446260,-0.11017191,-0.00751713,-0.10567443,-0.02627641,0.01000930,-0.0
 2904127,-0.00005957,0.00027742,-0.00033609,0.00027752,-0.00009819,-0.0
 0001996,-0.00008339,0.00005539,-0.00001307,-0.00008055,-0.00001037,0.0
 0001783,0.00003100,-0.00001239,0.00003311,0.00003579,0.00006541,-0.000
 08920,0.00006026,0.00002027,-0.00003201,0.00037323,-0.00110486,-0.0000
 9075,0.00078777,0.00044815,-0.00051341,0.13063439,0.00035836,0.0000564
 4,-0.00024483,-0.00019013,0.00015296,0.00012878,0.00043301,-0.00021998
 ,0.00077715,0.00236337,0.00093687,-0.00042979,0.00053082,0.00021787,-0
 .00033132,-0.00280155,-0.00015212,0.00174352,0.01033765,-0.00109396,0.
 01829287,-0.00934260,-0.04827944,-0.01706636,0.01123398,-0.00216593,0.
 01381762,0.00003458,-0.00000976,0.00015278,-0.00009123,0.00005841,0.00
 000322,0.00002988,-0.00004610,0.00002535,0.00003259,-0.00001178,-0.000
 02391,-0.00002712,0.00002763,-0.00001171,-0.00001750,-0.00004783,0.000
 03072,-0.00000885,-0.00000286,-0.00006996,0.00038459,-0.00112160,0.000
 09336,0.00010145,0.00065057,-0.00106974,0.00250878,0.05435400,-0.00024
 167,-0.00008618,0.00002320,0.00030539,-0.00002096,-0.00003428,0.000206
 37,-0.00008966,0.00014753,0.00157470,-0.00085886,0.00004607,0.00018038
 ,-0.00058248,0.00049565,0.00440056,0.00073579,-0.00236302,-0.01208014,
 0.00096347,-0.01936904,-0.11243036,-0.01211001,-0.23479713,0.00535859,
 0.00057956,0.01122204,-0.00026277,-0.00009301,0.00003434,0.00026132,-0
 .00018198,-0.00001381,-0.00005627,0.00006628,-0.00000517,-0.00007897,0
 .00005883,0.00001745,0.00001661,-0.00000454,-0.00002041,0.00004282,0.0
 0001922,-0.00002041,-0.00005404,-0.00001452,0.00003696,-0.00060154,0.0
 0150039,0.00011952,0.00037941,0.00022725,0.00103031,0.11927166,0.01179
 797,0.25224158,0.00053460,0.00018256,-0.00013190,-0.00009019,-0.000187
 10,0.00001463,-0.00101571,0.00020409,0.00054544,0.00680254,-0.00158210
 ,0.00851838,0.00160845,-0.00121696,-0.00324140,-0.00258028,-0.00122854
 ,0.00011848,0.00415875,-0.01183972,-0.00260656,-0.05363128,-0.02059859
 ,-0.00722789,-0.01319460,0.03696909,0.00843366,-0.00074626,0.00070793,
 -0.00063991,0.00104065,-0.00040120,-0.00041023,-0.00024377,0.00004318,
 0.00019420,-0.00033312,0.00001937,-0.00001391,-0.00006858,0.00014265,-
 0.00004359,-0.00002233,-0.00004856,0.00002084,-0.00003091,0.00026795,-
 0.00018474,0.00013712,0.00094692,0.00063405,-0.00050805,0.00085405,0.0
 0067214,-0.00001698,-0.01548262,-0.00543830,0.05731994,0.00061308,0.00
 020868,-0.00016071,-0.00052049,-0.00000367,0.00010018,-0.00008371,-0.0
 0053212,0.00054354,-0.00123371,-0.00061087,0.00117109,0.00415973,0.000
 34737,-0.00131450,-0.00550510,0.00172779,-0.00188168,-0.00590153,-0.02
 011944,0.00637107,-0.01632937,-0.23299471,-0.05821507,0.01506042,-0.01
 105053,-0.00847457,0.00050951,-0.00046854,0.00039045,-0.00106647,0.000
 55118,0.00030559,0.00043164,-0.00023653,-0.00001700,0.00023207,-0.0002
 3108,0.00003222,-0.00005801,0.00001169,0.00000087,-0.00009850,-0.00008
 096,0.00002186,-0.00003567,0.00020314,-0.00028987,-0.00002151,0.000604
 79,0.00048389,-0.00053656,-0.00144289,0.00049028,-0.00203237,-0.003420
 45,-0.00248984,0.01190611,0.26708165,-0.00010019,0.00000175,-0.0000121
 6,0.00006949,-0.00005821,0.00001576,0.00017357,-0.00016610,0.00005824,
 -0.00174686,0.00047606,-0.00224331,-0.00046796,-0.00062992,0.00095475,
 0.00368521,0.00178280,0.00016763,0.00082456,0.02543854,0.00538752,-0.0
 0795179,-0.05380834,-0.06866410,0.00783702,-0.00504776,0.00406243,0.00
 058681,-0.00057423,0.00052193,-0.00077979,0.00026899,0.00027532,0.0002
 2280,-0.00007058,-0.00009897,0.00021350,-0.00003846,0.00004397,0.00001
 901,-0.00002630,0.00001664,0.00001335,-0.00000208,0.00000421,-0.000038
 86,-0.00003071,0.00008992,-0.00022036,-0.00151799,-0.00106837,0.000596
 41,-0.00029852,-0.00042880,-0.00435543,-0.02730787,-0.00899214,0.00122
 627,0.06247408,0.07020971,0.00098542,0.00020777,-0.00009679,-0.0018200
 7,0.00084305,0.00030043,0.00126972,0.00127317,-0.00204996,0.01090130,0
 .00870282,-0.01919870,-0.00308861,0.00117408,-0.00337597,-0.00049984,0
 .00014818,-0.00049593,-0.00591556,0.00383515,-0.00040759,-0.01274521,-
 0.01713619,0.02330585,-0.15372702,-0.07188642,0.15336917,-0.00014198,0
 .00106788,-0.00087174,0.00138649,-0.00068675,-0.00042267,-0.00042576,0
 .00010054,0.00015444,-0.00021418,0.00017496,-0.00008169,-0.00010683,-0
 .00003935,-0.00029143,-0.00022047,-0.00015886,-0.00001521,-0.00070330,
 -0.00091118,-0.00085929,0.00011227,-0.00018702,-0.00008397,-0.00057867
 ,-0.00110444,0.00130066,0.00018333,-0.00041286,-0.00072530,0.00097750,
 0.00038171,0.00015101,0.16436904,-0.00024451,-0.00022543,0.00001859,0.
 00111440,-0.00069724,-0.00035031,-0.00073351,0.00144327,-0.00152319,-0
 .00818924,-0.00835157,-0.00212656,-0.00102709,-0.00101126,0.00139139,0
 .00241800,-0.00035306,0.00056244,0.00144961,-0.00032953,-0.00053689,0.
 01042889,0.00436044,-0.01488634,-0.07963100,-0.09710726,0.16973364,0.0
 0063851,0.00158386,0.00250839,-0.00104372,0.00084397,-0.00046714,0.000
 06954,-0.00032626,-0.00002087,0.00013392,-0.00001309,0.00007179,0.0002
 4455,0.00010989,0.00016364,-0.00004038,0.00014376,0.00008599,-0.000347
 47,-0.00001335,0.00000187,-0.00002957,0.00001294,0.00000125,0.00004957
 ,-0.00019723,-0.00077811,-0.00043322,0.00014874,0.00057397,0.00038393,
 0.00044130,-0.00087071,0.07474555,0.09966007,0.00071516,0.00013873,-0.
 00060554,-0.00080832,-0.00045961,0.00089538,0.00252773,-0.00016189,0.0
 0060708,0.01383697,0.01359100,-0.02619720,-0.00698354,0.00077030,-0.00
 019263,0.00121526,-0.00029879,0.00106403,0.00038273,-0.00013362,0.0002
 6007,0.00137563,0.00232876,-0.00109107,0.13815833,0.13885623,-0.257821
 68,0.00089359,0.00074238,-0.00034060,0.00051276,-0.00023928,-0.0000185
 5,-0.00009094,-0.00007951,-0.00002273,0.00016081,0.00016023,-0.0000000
 5,0.00004671,-0.00009173,-0.00014012,-0.00012781,-0.00001804,0.0001940
 5,-0.00130126,-0.00100766,0.00052278,0.00006507,-0.00010059,-0.0000163
 8,-0.00028517,-0.00039631,-0.00029046,0.00008299,-0.00032383,0.0002044
 4,-0.00056254,0.00048700,-0.00023511,-0.14980513,-0.15354115,0.2831168
 8,0.00036793,0.00002782,-0.00016001,-0.00030749,0.00010259,0.00038015,
 -0.00005616,-0.00018812,-0.00002493,-0.00039270,0.00029109,0.00031622,
 0.00104165,0.00111002,-0.00035156,0.00025966,0.00010262,-0.00011511,-0
 .00014248,-0.00003664,-0.00007428,0.00016174,-0.00001001,0.00004190,-0
 .00018239,0.00000935,-0.00046392,-0.00622842,0.00037413,0.00008650,0.0
 1233679,-0.00330071,-0.00588947,-0.13875741,0.06645623,-0.13317599,0.0
 0447049,0.00410511,0.00274947,0.00205934,-0.00215966,-0.00075743,-0.00
 002753,-0.00008059,0.00002481,0.00002192,0.00000542,-0.00006745,0.0000
 6206,-0.00001681,0.00006823,-0.00003083,0.00001133,-0.00002710,-0.0000
 1560,0.00001400,-0.00002395,-0.00002092,0.00009502,0.00001359,-0.00003
 045,0.00001743,-0.00005152,0.12560770,-0.00010280,0.00005541,-0.000214
 92,0.00024509,0.00014984,-0.00071266,0.00056665,0.00001593,-0.00040812
 ,-0.00053148,0.00041888,0.00000974,0.00059543,0.00189129,-0.00085773,0
 .00016135,-0.00019159,0.00013755,-0.00002530,0.00000536,-0.00012914,-0
 .00009614,0.00003888,0.00003990,0.00012005,-0.00012018,0.00018200,0.00
 046262,-0.00495229,0.00062766,0.00029755,0.01044117,0.00609965,0.06168
 882,-0.07173428,0.07808575,0.00708557,0.00712849,0.00323969,-0.0039269
 9,-0.00006654,-0.00089600,0.00008356,-0.00004294,-0.00003369,-0.000043
 20,-0.00004346,0.00009130,0.00003010,-0.00001294,-0.00000623,0.0000046
 8,-0.00000428,0.00001735,-0.00000389,0.00000454,0.00000249,0.00003751,
 0.00000083,-0.00002241,0.00004178,-0.00007428,-0.00000470,-0.06662129,
 0.05767785,-0.00006225,0.00008608,-0.00006884,0.00012250,-0.00013165,-
 0.00004032,-0.00005335,0.00015378,-0.00004689,0.00021464,0.00003835,-0
 .00012559,0.00048105,-0.00030202,0.00045807,-0.00000894,-0.00005482,0.
 00007261,-0.00000356,-0.00001404,0.00000229,-0.00007123,-0.00000092,0.
 00002681,0.00007313,0.00004179,0.00022845,-0.00015228,-0.00032618,0.00
 258774,0.00172880,0.00086429,-0.00497030,-0.12424534,0.07713850,-0.227
 28960,-0.01545727,0.00800799,-0.00075927,-0.00055456,0.00018264,0.0011
 5975,0.00002449,-0.00001067,0.00000823,-0.00003756,-0.00003673,-0.0000
 4931,-0.00000154,0.00000425,0.00000358,0.00003123,-0.00001105,0.000002
 34,0.00000078,-0.00000150,-0.00000399,0.00002269,-0.00001017,-0.000018
 14,0.00003610,0.00000051,0.00000293,0.13781048,-0.08553398,0.22927187,
 0.00120594,-0.00232681,0.00068434,-0.00438128,0.00047117,-0.00028100,0
 .00037448,-0.00023223,-0.00002466,0.00007933,0.00016058,0.00015359,0.0
 0040522,-0.00027331,-0.00002758,0.00005905,0.00001236,-0.00004711,-0.0
 0002661,-0.00000751,-0.00001821,0.00011146,-0.00001216,-0.00000272,-0.
 00019121,0.00003855,-0.00028546,-0.00117166,0.00071386,0.00068278,0.00
 328096,-0.00160759,-0.00214865,0.00100667,-0.00008831,0.00167488,-0.00
 972973,0.00275200,0.00413966,-0.29359869,0.07203519,0.01360129,0.00024
 798,-0.00041717,0.00021243,0.00019200,0.00008020,0.00007372,0.00001840
 ,-0.00000026,0.00001714,-0.00001657,0.00001254,-0.00000218,-0.00000885
 ,0.00000586,-0.00001526,-0.00002395,0.00005010,0.00001597,-0.00002967,
 0.00003483,-0.00000121,-0.00007278,-0.00035413,0.00015045,0.31753859,0
 .00028715,0.00133086,-0.00060752,0.03269495,-0.00955517,-0.00210827,-0
 .00255667,-0.00465277,0.00230189,-0.00061512,0.00011362,0.00030010,0.0
 0037518,-0.00009847,-0.00001065,-0.00004202,-0.00001905,-0.00003478,0.
 00005804,0.00000226,0.00001224,-0.00002119,0.00004883,-0.00000257,0.00
 012988,0.00012508,-0.00008665,-0.00046248,0.00030156,0.00006543,0.0012
 9965,0.00083063,0.00043926,-0.00021625,0.00014624,0.00003024,-0.003330
 42,0.00088123,-0.00215866,0.06573108,-0.06716961,-0.00229485,-0.000190
 68,0.00062297,-0.00027890,0.00119294,-0.00107421,-0.00017554,0.0000296
 8,0.00000234,-0.00000097,0.00000103,0.00000927,0.00000223,0.00001606,-
 0.00000878,0.00000677,-0.00001394,-0.00001345,0.00000479,-0.00002726,-
 0.00000544,-0.00009538,-0.00020591,-0.00050994,-0.00004931,-0.07589982
 ,0.07297756,-0.00044467,0.00031508,-0.00008177,-0.01098397,0.00138902,
 -0.00046158,0.00095960,0.00232676,-0.00061336,0.00042189,-0.00010710,-
 0.00068198,-0.00079478,0.00063612,-0.00036719,0.00010598,0.00002149,0.
 00013420,-0.00005112,0.00000206,-0.00001854,-0.00012009,-0.00004826,0.
 00001548,0.00018139,-0.00005725,0.00060597,0.00202126,-0.00148883,-0.0
 0117881,-0.00260664,0.00217864,0.00017750,-0.00200919,-0.00031502,-0.0
 0052518,0.03700306,-0.01138025,-0.00416863,0.01508650,-0.00342028,-0.0
 4818034,0.00004283,-0.00011465,0.00001905,-0.00038172,0.00062277,0.000
 66188,-0.00006024,-0.00000902,-0.00002165,0.00000965,-0.00002499,-0.00
 000111,-0.00001179,0.00000414,0.00000206,0.00004369,-0.00002018,-0.000
 02643,0.00008167,-0.00008202,0.00004731,-0.00046231,0.00075600,-0.0004
 2863,-0.01954484,0.00282982,0.05332504,0.00034285,-0.00071921,0.000340
 93,0.00144792,0.00217499,0.00318544,-0.00088491,0.00126666,-0.00009645
 ,0.00120700,0.00048150,-0.00056325,-0.00010952,-0.00047323,0.00006722,
 -0.00000218,-0.00015186,0.00009066,0.00006631,0.00006475,-0.00005746,0
 .00005801,0.00008578,-0.00007212,-0.00041190,0.00008003,-0.00010203,-0
 .00047053,0.00018928,0.00000821,0.00080199,-0.00147192,0.00034095,-0.0
 0114035,-0.00098394,0.00151342,0.00759195,0.00882331,0.00541567,-0.121
 70930,-0.08315126,-0.08158109,0.00008386,-0.00019940,0.00025469,-0.000
 08498,-0.00030695,-0.00045692,0.00000404,0.00001912,0.00000878,-0.0000
 1100,0.00000901,0.00002583,-0.00002045,0.00000551,0.00001079,-0.000052
 62,-0.00001638,0.00001267,0.00006257,-0.00000902,0.00004371,-0.0001241
 2,0.00028447,-0.00004847,-0.01526908,-0.01823388,-0.01848616,0.1286244
 5,0.00070468,-0.00187144,0.00011910,-0.01463567,-0.02291238,-0.0160941
 4,-0.00103965,0.00071101,0.00161589,-0.00010111,-0.00015792,-0.0003155
 6,0.00027804,0.00004228,-0.00019599,0.00007679,0.00005626,-0.00004900,
 0.00001363,0.00001716,-0.00001901,0.00014435,0.00006648,0.00000721,0.0
 0013870,0.00007747,-0.00015914,-0.00018092,0.00028660,0.00022947,0.000
 46099,-0.00021495,-0.00029550,-0.00087214,-0.00079134,0.00128859,0.002
 97129,0.00260000,0.00019563,-0.08480510,-0.13072551,-0.09342865,-0.000
 16643,-0.00038558,0.00095303,0.00015340,0.00052427,0.00128531,0.000044
 86,0.00000505,0.00000967,0.00000473,0.00002679,0.00001349,0.00003959,-
 0.00002742,0.00000003,-0.00006602,0.00002681,0.00002316,-0.00014631,-0
 .00004323,-0.00012254,-0.00010241,-0.00007575,-0.00003514,0.00485206,0
 .00571444,0.00598596,0.09223266,0.14705091,-0.00011207,0.00103516,-0.0
 0083393,0.00652667,0.00677555,0.00848532,-0.00003437,0.00035299,0.0001
 7919,-0.00013243,0.00020276,0.00026956,-0.00048225,0.00008135,-0.00074
 339,0.00018865,-0.00001627,0.00009071,-0.00007514,-0.00002631,-0.00002
 930,-0.00012225,-0.00007331,-0.00001910,0.00010161,-0.00002463,0.00026
 373,0.00112623,-0.00095862,0.00020708,-0.00014963,0.00296688,0.0004272
 4,0.00279783,0.00134349,-0.00024646,-0.01717927,-0.01869875,-0.0263877
 2,-0.08380368,-0.09339251,-0.13014544,0.00001187,0.00015138,-0.0007145
 0,-0.00002662,-0.00021282,-0.00035987,-0.00004512,-0.00000578,0.000002
 34,0.00000203,-0.00001506,-0.00001190,-0.00002185,0.00001335,-0.000001
 75,0.00005650,0.00000145,-0.00002052,0.00008204,0.00006982,0.00005715,
 0.00015368,-0.00046951,-0.00002377,0.00099260,0.00191127,0.00176670,0.
 09014498,0.09898812,0.14778865\\0.00002928,-0.00000047,-0.00001592,-0.
 00004008,-0.00000506,0.00003370,0.00001631,0.00001335,-0.00001048,-0.0
 0001505,-0.00000860,0.00001993,0.00001194,0.00001378,-0.00004751,-0.00
 000965,-0.00000120,0.00000427,0.00000338,-0.00000730,-0.00000780,0.000
 00294,0.00001974,0.00001409,-0.00000446,-0.00002920,-0.00001807,0.0000
 0941,0.00001965,0.00004498,-0.00000573,-0.00003383,-0.00002646,-0.0000
 0663,-0.00002971,0.00003795,0.00005788,0.00001948,0.00002712,-0.000025
 64,-0.00000385,-0.00002632,-0.00000012,0.00000156,0.00000731,-0.000004
 43,-0.00000345,-0.00000377,-0.00000112,0.00000142,0.00000055,0.0000020
 6,-0.00000211,-0.00000213,0.00000551,0.00000016,0.00000505,-0.00000366
 ,0.00000435,-0.00000108,-0.00000046,0.00000819,0.00000370,-0.00002516,
 0.00002352,-0.00004216,0.00000306,0.00000309,-0.00000199,0.00000043,-0
 .00000349,0.00000503\\\@


 THIS CURIOUS WORLD WHICH WE INHABIT IS MORE WONDERFUL THAN IT IS CONVENIENT;
 MORE BEAUTIFUL THAN IT IS USEFUL;
 IT IS MORE TO BE ADMIRED THAN IT IS TO BE USED.

                                                                 -- THOREAU
 Job cpu time:       0 days  5 hours 59 minutes 16.7 seconds.
 Elapsed time:       0 days  1 hours 29 minutes 50.9 seconds.
 File lengths (MBytes):  RWF=    348 Int=      0 D2E=      0 Chk=     17 Scr=      1
 Normal termination of Gaussian 16 at Wed May 17 23:47:39 2023.
### All Done ###
