### Starting Gaussian ###
 Entering Gaussian System, Link 0=g16
 Initial command:
 /cluster/software/gaussian/gaussian-16-A.03/avx2/g16/l1.exe "/local/scratch/linjian/Gau-20136.inp" -scrdir="/local/scratch/linjian/"
 Entering Link 1 = /cluster/software/gaussian/gaussian-16-A.03/avx2/g16/l1.exe PID=     20138.
  
 Copyright (c) 1988,1990,1992,1993,1995,1998,2003,2009,2016,
            Gaussian, Inc.  All Rights Reserved.
  
 This is part of the Gaussian(R) 16 program.  It is based on
 the Gaussian(R) 09 system (copyright 2009, Gaussian, Inc.),
 the Gaussian(R) 03 system (copyright 2003, Gaussian, Inc.),
 the Gaussian(R) 98 system (copyright 1998, Gaussian, Inc.),
 the Gaussian(R) 94 system (copyright 1995, Gaussian, Inc.),
 the Gaussian 92(TM) system (copyright 1992, Gaussian, Inc.),
 the Gaussian 90(TM) system (copyright 1990, Gaussian, Inc.),
 the Gaussian 88(TM) system (copyright 1988, Gaussian, Inc.),
 the Gaussian 86(TM) system (copyright 1986, Carnegie Mellon
 University), and the Gaussian 82(TM) system (copyright 1983,
 Carnegie Mellon University). Gaussian is a federally registered
 trademark of Gaussian, Inc.
  
 This software contains proprietary and confidential information,
 including trade secrets, belonging to Gaussian, Inc.
  
 This software is provided under written license and may be
 used, copied, transmitted, or stored only in accord with that
 written license.
  
 The following legend is applicable only to US Government
 contracts under FAR:
  
                    RESTRICTED RIGHTS LEGEND
  
 Use, reproduction and disclosure by the US Government is
 subject to restrictions as set forth in subparagraphs (a)
 and (c) of the Commercial Computer Software - Restricted
 Rights clause in FAR 52.227-19.
  
 Gaussian, Inc.
 340 Quinnipiac St., Bldg. 40, Wallingford CT 06492
  
  
 ---------------------------------------------------------------
 Warning -- This program may not be used in any manner that
 competes with the business of Gaussian, Inc. or will provide
 assistance to any competitor of Gaussian, Inc.  The licensee
 of this program is prohibited from giving any competitor of
 Gaussian, Inc. access to this program.  By using this program,
 the user acknowledges that Gaussian, Inc. is engaged in the
 business of creating and licensing software in the field of
 computational chemistry and represents and warrants to the
 licensee that it is not a competitor of Gaussian, Inc. and that
 it will not use this program in any manner prohibited above.
 ---------------------------------------------------------------
  

 Cite this work as:
 Gaussian 16, Revision A.03,
 M. J. Frisch, G. W. Trucks, H. B. Schlegel, G. E. Scuseria, 
 M. A. Robb, J. R. Cheeseman, G. Scalmani, V. Barone, 
 G. A. Petersson, H. Nakatsuji, X. Li, M. Caricato, A. V. Marenich, 
 J. Bloino, B. G. Janesko, R. Gomperts, B. Mennucci, H. P. Hratchian, 
 J. V. Ortiz, A. F. Izmaylov, J. L. Sonnenberg, D. Williams-Young, 
 F. Ding, F. Lipparini, F. Egidi, J. Goings, B. Peng, A. Petrone, 
 T. Henderson, D. Ranasinghe, V. G. Zakrzewski, J. Gao, N. Rega, 
 G. Zheng, W. Liang, M. Hada, M. Ehara, K. Toyota, R. Fukuda, 
 J. Hasegawa, M. Ishida, T. Nakajima, Y. Honda, O. Kitao, H. Nakai, 
 T. Vreven, K. Throssell, J. A. Montgomery, Jr., J. E. Peralta, 
 F. Ogliaro, M. J. Bearpark, J. J. Heyd, E. N. Brothers, K. N. Kudin, 
 V. N. Staroverov, T. A. Keith, R. Kobayashi, J. Normand, 
 K. Raghavachari, A. P. Rendell, J. C. Burant, S. S. Iyengar, 
 J. Tomasi, M. Cossi, J. M. Millam, M. Klene, C. Adamo, R. Cammi, 
 J. W. Ochterski, R. L. Martin, K. Morokuma, O. Farkas, 
 J. B. Foresman, and D. J. Fox, Gaussian, Inc., Wallingford CT, 2016.
 
 ******************************************
 Gaussian 16:  ES64L-G16RevA.03 25-Dec-2016
                16-May-2023 
 ******************************************
 %chk=OCCdC1CdCCqdSrSS[SH]dC[SH]dC1.chk
 %NProcShared=20
 Will use up to   20 processors via shared memory.
 -----------------------------
 # opt freq b3lyp/6-31g(2df,p)
 -----------------------------
 1/18=20,19=15,26=3,38=1/1,3;
 2/9=110,12=2,17=6,18=5,40=1/2;
 3/5=1,6=6,7=104,11=2,25=1,30=1,71=1,74=-5/1,2,3;
 4//1;
 5/5=2,38=5/2;
 6/7=2,8=2,9=2,10=2,28=1/1;
 7//1,2,3,16;
 1/18=20,19=15,26=3/3(2);
 2/9=110/2;
 99//99;
 2/9=110/2;
 3/5=1,6=6,7=104,11=2,25=1,30=1,71=1,74=-5/1,2,3;
 4/5=5,16=3,69=1/1;
 5/5=2,38=5/2;
 7//1,2,3,16;
 1/18=20,19=15,26=3/3(-5);
 2/9=110/2;
 6/7=2,8=2,9=2,10=2,19=2,28=1/1;
 99/9=1/99;
 -------------------
 Title Card Required
 -------------------
 Symbolic Z-matrix:
 Charge =  0 Multiplicity = 1
 O                     1.18245  -0.03754  -0.15718 
 C                     2.87431  -0.00359  -0.20211 
 C                     4.0901   -0.78324  -1.54047 
 C                     5.72275  -1.03204  -2.23982 
 C                     4.85005  -2.18587  -2.60142 
 C                     5.9208   -2.90197  -2.63959 
 C                     6.16873  -3.50113  -3.91413 
 S                     5.06809  -3.92414  -5.04854 
 S                     7.56997  -4.40773  -3.65014 
 S                     8.18033  -5.21493  -5.40048 
 S                     10.06977  -5.29113  -4.64653 
 C                     10.00144  -4.28828  -6.19996 
 S                     9.26224  -2.5213   -4.7549 
 C                     7.51416  -1.4429   -3.23188 
 H                     0.79664   0.54405   0.59475 
 H                     2.90322  -0.3535    0.86552 
 H                     2.87086   1.07653  -0.21931 
 H                     2.97086  -1.33791  -1.7512 
 H                     3.90424  -2.37394  -3.13939 
 H                     6.72726  -2.66145  -1.908 
 H                     11.39977  -5.49287  -4.67133 
 H                     10.06186  -5.50028  -7.03655 
 H                     10.65184  -2.97779  -5.55404 
 H                     7.96522  -1.12515  -2.05994 
 
 Add virtual bond connecting atoms H22        and C12        Dist= 2.79D+00.
 Add virtual bond connecting atoms H23        and C12        Dist= 3.02D+00.
 Add virtual bond connecting atoms H23        and S13        Dist= 3.15D+00.
 Add virtual bond connecting atoms C2         and O1         Dist= 3.20D+00.
 Add virtual bond connecting atoms C4         and C14        Dist= 3.95D+00.
 Add virtual bond connecting atoms H20        and C14        Dist= 3.71D+00.
 Add virtual bond connecting atoms H20        and H24        Dist= 3.74D+00.
 Add virtual bond connecting atoms C3         and C2         Dist= 3.72D+00.
 Add virtual bond connecting atoms H18        and C2         Dist= 3.87D+00.

 GradGradGradGradGradGradGradGradGradGradGradGradGradGradGradGradGradGrad
 Berny optimization.
 Initialization pass.
                           ----------------------------
                           !    Initial Parameters    !
                           ! (Angstroms and Degrees)  !
 --------------------------                            --------------------------
 ! Name  Definition              Value          Derivative Info.                !
 --------------------------------------------------------------------------------
 ! R1    R(1,2)                  1.6928         estimate D2E/DX2                !
 ! R2    R(1,15)                 1.0259         estimate D2E/DX2                !
 ! R3    R(2,3)                  1.9691         estimate D2E/DX2                !
 ! R4    R(2,16)                 1.1239         estimate D2E/DX2                !
 ! R5    R(2,17)                 1.0803         estimate D2E/DX2                !
 ! R6    R(2,18)                 2.0468         estimate D2E/DX2                !
 ! R7    R(3,4)                  1.7935         estimate D2E/DX2                !
 ! R8    R(3,18)                 1.2668         estimate D2E/DX2                !
 ! R9    R(4,5)                  1.4912         estimate D2E/DX2                !
 ! R10   R(4,14)                 2.0886         estimate D2E/DX2                !
 ! R11   R(5,6)                  1.2887         estimate D2E/DX2                !
 ! R12   R(5,19)                 1.1042         estimate D2E/DX2                !
 ! R13   R(6,7)                  1.43           estimate D2E/DX2                !
 ! R14   R(6,20)                 1.1151         estimate D2E/DX2                !
 ! R15   R(7,8)                  1.6362         estimate D2E/DX2                !
 ! R16   R(7,9)                  1.6897         estimate D2E/DX2                !
 ! R17   R(9,10)                 2.0218         estimate D2E/DX2                !
 ! R18   R(10,11)                2.0357         estimate D2E/DX2                !
 ! R19   R(11,12)                1.8503         estimate D2E/DX2                !
 ! R20   R(11,21)                1.3454         estimate D2E/DX2                !
 ! R21   R(12,22)                1.4739         estimate D2E/DX2                !
 ! R22   R(12,23)                1.5993         estimate D2E/DX2                !
 ! R23   R(13,23)                1.6667         estimate D2E/DX2                !
 ! R24   R(14,20)                1.9639         estimate D2E/DX2                !
 ! R25   R(14,24)                1.2953         estimate D2E/DX2                !
 ! R26   R(20,24)                1.9789         estimate D2E/DX2                !
 ! A1    A(2,1,15)             112.578          estimate D2E/DX2                !
 ! A2    A(1,2,3)              128.8441         estimate D2E/DX2                !
 ! A3    A(1,2,16)              89.6706         estimate D2E/DX2                !
 ! A4    A(1,2,17)              90.9903         estimate D2E/DX2                !
 ! A5    A(1,2,18)              93.1046         estimate D2E/DX2                !
 ! A6    A(3,2,16)             120.4321         estimate D2E/DX2                !
 ! A7    A(3,2,17)             112.7709         estimate D2E/DX2                !
 ! A8    A(16,2,17)            109.0569         estimate D2E/DX2                !
 ! A9    A(16,2,18)            120.9825         estimate D2E/DX2                !
 ! A10   A(17,2,18)            129.7857         estimate D2E/DX2                !
 ! A11   A(2,3,4)              151.8906         estimate D2E/DX2                !
 ! A12   A(4,3,18)             132.7413         estimate D2E/DX2                !
 ! A13   A(3,4,5)               70.6791         estimate D2E/DX2                !
 ! A14   A(5,4,14)             103.5664         estimate D2E/DX2                !
 ! A15   A(4,5,6)               87.1848         estimate D2E/DX2                !
 ! A16   A(4,5,19)             138.6935         estimate D2E/DX2                !
 ! A17   A(6,5,19)             127.056          estimate D2E/DX2                !
 ! A18   A(5,6,7)              113.7831         estimate D2E/DX2                !
 ! A19   A(5,6,20)             117.4913         estimate D2E/DX2                !
 ! A20   A(7,6,20)             123.3487         estimate D2E/DX2                !
 ! A21   A(6,7,8)              127.5628         estimate D2E/DX2                !
 ! A22   A(6,7,9)              103.258          estimate D2E/DX2                !
 ! A23   A(8,7,9)              121.8327         estimate D2E/DX2                !
 ! A24   A(7,9,10)             109.2265         estimate D2E/DX2                !
 ! A25   A(9,10,11)             88.5393         estimate D2E/DX2                !
 ! A26   A(10,11,12)            68.5615         estimate D2E/DX2                !
 ! A27   A(10,11,21)           156.3865         estimate D2E/DX2                !
 ! A28   A(12,11,21)            95.8716         estimate D2E/DX2                !
 ! A29   A(11,12,22)            91.681          estimate D2E/DX2                !
 ! A30   A(11,12,23)            95.1651         estimate D2E/DX2                !
 ! A31   A(22,12,23)           152.4227         estimate D2E/DX2                !
 ! A32   A(4,14,20)             57.1921         estimate D2E/DX2                !
 ! A33   A(4,14,24)             79.6693         estimate D2E/DX2                !
 ! A34   A(6,20,14)             88.9312         estimate D2E/DX2                !
 ! A35   A(6,20,24)            124.7169         estimate D2E/DX2                !
 ! A36   A(12,23,13)            94.5318         estimate D2E/DX2                !
 ! A37   L(3,4,14,5,-1)        174.2456         estimate D2E/DX2                !
 ! A38   L(3,4,14,5,-2)        176.5702         estimate D2E/DX2                !
 ! D1    D(15,1,2,3)          -173.1503         estimate D2E/DX2                !
 ! D2    D(15,1,2,16)           56.6303         estimate D2E/DX2                !
 ! D3    D(15,1,2,17)          -52.4239         estimate D2E/DX2                !
 ! D4    D(15,1,2,18)          177.6431         estimate D2E/DX2                !
 ! D5    D(1,2,3,4)            172.9248         estimate D2E/DX2                !
 ! D6    D(16,2,3,4)           -69.3968         estimate D2E/DX2                !
 ! D7    D(17,2,3,4)            61.6957         estimate D2E/DX2                !
 ! D8    D(2,3,4,5)            154.6086         estimate D2E/DX2                !
 ! D9    D(18,3,4,5)           -14.2806         estimate D2E/DX2                !
 ! D10   D(2,3,14,20)           95.5224         estimate D2E/DX2                !
 ! D11   D(2,3,14,24)           22.8579         estimate D2E/DX2                !
 ! D12   D(18,3,14,20)         -74.8517         estimate D2E/DX2                !
 ! D13   D(18,3,14,24)        -147.5162         estimate D2E/DX2                !
 ! D14   D(3,4,5,6)           -151.5551         estimate D2E/DX2                !
 ! D15   D(3,4,5,19)            59.3469         estimate D2E/DX2                !
 ! D16   D(14,4,5,6)            31.8747         estimate D2E/DX2                !
 ! D17   D(14,4,5,19)         -117.2233         estimate D2E/DX2                !
 ! D18   D(5,4,14,20)          -58.7351         estimate D2E/DX2                !
 ! D19   D(5,4,14,24)         -133.2324         estimate D2E/DX2                !
 ! D20   D(4,5,6,7)           -120.1216         estimate D2E/DX2                !
 ! D21   D(4,5,6,20)            34.9113         estimate D2E/DX2                !
 ! D22   D(19,5,6,7)            34.7411         estimate D2E/DX2                !
 ! D23   D(19,5,6,20)         -170.226          estimate D2E/DX2                !
 ! D24   D(5,6,7,8)            -27.9837         estimate D2E/DX2                !
 ! D25   D(5,6,7,9)           -177.8448         estimate D2E/DX2                !
 ! D26   D(20,6,7,8)           178.6474         estimate D2E/DX2                !
 ! D27   D(20,6,7,9)            28.7863         estimate D2E/DX2                !
 ! D28   D(5,6,20,14)          -91.0796         estimate D2E/DX2                !
 ! D29   D(5,6,20,24)          -76.3368         estimate D2E/DX2                !
 ! D30   D(7,6,20,14)           61.3789         estimate D2E/DX2                !
 ! D31   D(7,6,20,24)           76.1217         estimate D2E/DX2                !
 ! D32   D(6,7,9,10)          -175.1005         estimate D2E/DX2                !
 ! D33   D(8,7,9,10)            32.8343         estimate D2E/DX2                !
 ! D34   D(7,9,10,11)          155.0788         estimate D2E/DX2                !
 ! D35   D(9,10,11,12)        -121.7738         estimate D2E/DX2                !
 ! D36   D(9,10,11,21)        -173.1766         estimate D2E/DX2                !
 ! D37   D(10,11,12,22)        -81.9269         estimate D2E/DX2                !
 ! D38   D(10,11,12,23)        124.8157         estimate D2E/DX2                !
 ! D39   D(21,11,12,22)         79.7296         estimate D2E/DX2                !
 ! D40   D(21,11,12,23)        -73.5278         estimate D2E/DX2                !
 ! D41   D(11,12,23,13)        -76.58           estimate D2E/DX2                !
 ! D42   D(22,12,23,13)        179.7283         estimate D2E/DX2                !
 ! D43   D(4,14,20,6)           70.8            estimate D2E/DX2                !
 --------------------------------------------------------------------------------
 Trust Radius=3.00D-01 FncErr=1.00D-07 GrdErr=1.00D-06 EigMax=2.50D+02 EigMin=1.00D-04
 Number of steps in this run=    117 maximum allowed number of steps=    144.
 GradGradGradGradGradGradGradGradGradGradGradGradGradGradGradGradGradGrad

                          Input orientation:                          
 ---------------------------------------------------------------------
 Center     Atomic      Atomic             Coordinates (Angstroms)
 Number     Number       Type             X           Y           Z
 ---------------------------------------------------------------------
      1          8           0        1.182450   -0.037540   -0.157180
      2          6           0        2.874310   -0.003590   -0.202110
      3          6           0        4.090100   -0.783240   -1.540470
      4          6           0        5.722750   -1.032040   -2.239820
      5          6           0        4.850050   -2.185870   -2.601420
      6          6           0        5.920800   -2.901970   -2.639590
      7          6           0        6.168730   -3.501130   -3.914130
      8         16           0        5.068090   -3.924140   -5.048540
      9         16           0        7.569970   -4.407730   -3.650140
     10         16           0        8.180330   -5.214930   -5.400480
     11         16           0       10.069770   -5.291130   -4.646530
     12          6           0       10.001440   -4.288280   -6.199960
     13         16           0        9.262240   -2.521300   -4.754900
     14          6           0        7.514160   -1.442900   -3.231880
     15          1           0        0.796640    0.544050    0.594750
     16          1           0        2.903220   -0.353500    0.865520
     17          1           0        2.870860    1.076530   -0.219310
     18          1           0        2.970860   -1.337910   -1.751200
     19          1           0        3.904240   -2.373940   -3.139390
     20          1           0        6.727260   -2.661450   -1.908000
     21          1           0       11.399770   -5.492870   -4.671330
     22          1           0       10.061860   -5.500280   -7.036550
     23          1           0       10.651840   -2.977790   -5.554040
     24          1           0        7.965220   -1.125150   -2.059940
 ---------------------------------------------------------------------
                    Distance matrix (angstroms):
                    1          2          3          4          5
     1  O    0.000000
     2  C    1.692797   0.000000
     3  C    3.305146   1.969062   0.000000
     4  C    5.093206   3.650148   1.793471   0.000000
     5  C    4.903154   3.797708   1.915857   1.491202   0.000000
     6  C    6.067889   4.860351   3.008080   1.922415   1.288705
     7  C    7.139616   6.071662   4.164360   3.016391   2.278603
     8  S    7.357259   6.608424   4.809186   4.084327   3.009571
     9  S    8.491157   7.303053   5.449507   4.098354   3.665302
    10  S   10.162081   9.073862   7.160275   5.790168   5.301010
    11  S   11.257839   9.974246   8.107104   6.544363   6.408634
    12  C   11.504719  10.253231   8.303017   6.677799   6.626193
    13  S    9.622427   8.238471   6.332807   4.590372   4.921119
    14  C    7.177699   5.725323   3.875591   2.088573   2.836718
    15  H    1.025912   2.291639   4.143397   5.897915   5.839358
    16  H    2.026523   1.123880   2.717011   4.248918   4.378059
    17  H    2.023794   1.080262   2.586649   4.081887   4.498321
    18  H    2.725853   2.046805   1.266793   2.811620   2.230082
    19  H    4.664813   3.912407   2.263054   2.432468   1.104237
    20  H    6.379278   4.981918   3.258430   1.942710   2.056921
    21  H   12.431082  11.081046   9.241979   7.618386   7.623622
    22  H   12.490444  11.339491   9.387187   7.861403   7.603858
    23  H   11.288955   9.898434   7.998827   6.250274   6.557886
    24  H    7.128068   5.534148   3.924705   2.251599   3.335058
                    6          7          8          9         10
     6  C    0.000000
     7  C    1.430005   0.000000
     8  S    2.752269   1.636225   0.000000
     9  S    2.451181   1.689701   2.906679   0.000000
    10  S    4.251796   3.031976   3.387630   2.021831   0.000000
    11  S    5.191324   4.354150   5.200680   2.832347   2.035738
    12  C    5.590144   4.531478   5.079007   3.525322   2.194149
    13  S    3.972992   3.352128   4.432277   2.764578   2.973709
    14  C    2.240198   2.551854   3.929385   2.994708   4.401684
    15  H    6.970870   8.096470   8.369990   9.403043  11.118791
    16  H    5.280747   6.589096   7.239630   7.655490   9.525972
    17  H    5.566718   6.744080   7.290815   7.995582   9.727151
    18  H    3.455093   4.425399   4.686087   5.846502   7.448967
    19  H    2.143625   2.645505   2.720757   4.223120   5.609697
    20  H    1.115102   2.245345   3.769645   2.606666   4.563890
    21  H    6.392170   5.648377   6.534017   4.109468   3.312658
    22  H    6.575169   5.376111   5.601262   4.344071   2.509642
    23  H    5.557203   4.802235   5.685892   3.894546   3.337175
    24  H    2.769971   3.508658   5.015918   3.668827   5.285053
                   11         12         13         14         15
    11  S    0.000000
    12  C    1.850276   0.000000
    13  S    2.887180   2.399340   0.000000
    14  C    4.831278   4.805439   2.557014   0.000000
    15  H   12.145422  12.419655  10.472894   7.982239   0.000000
    16  H   10.301569  10.760494   8.759316   6.263884   2.305774
    17  H   10.581667  10.742185   8.623555   6.081393   2.290986
    18  H    8.625857   8.827525   7.071357   4.779645   3.711130
    19  H    6.985358   7.085735   5.598192   3.729197   5.667067
    20  H    5.058373   5.638063   3.814526   1.963857   7.191053
    21  H    1.345442   2.396471   3.661454   5.794156  13.289182
    22  H    2.399167   1.473933   3.836618   6.117894  13.439307
    23  H    2.552239   1.599255   1.666732   4.194443  12.138202
    24  H    5.336194   5.593867   3.300652   1.295324   7.824458
                   16         17         18         19         20
    16  H    0.000000
    17  H    1.795241   0.000000
    18  H    2.796580   2.861155   0.000000
    19  H    4.596033   4.636862   1.967645   0.000000
    20  H    5.257597   5.629919   3.985836   3.093287   0.000000
    21  H   11.369309  11.649884   9.840598   8.261812   6.122522
    22  H   11.839687  11.892841   9.774586   7.929574   6.743926
    23  H   10.398979  10.268423   8.726297   7.192029   5.366191
    24  H    5.897254   5.847035   5.008415   4.383634   1.978850
                   21         22         23         24
    21  H    0.000000
    22  H    2.717411   0.000000
    23  H    2.768430   2.984773   0.000000
    24  H    6.139419   6.950130   4.781102   0.000000
 Stoichiometry    C8H10OS5
 Framework group  C1[X(C8H10OS5)]
 Deg. of freedom    66
 Full point group                 C1      NOp   1
 Largest Abelian subgroup         C1      NOp   1
 Largest concise Abelian subgroup C1      NOp   1
                         Standard orientation:                         
 ---------------------------------------------------------------------
 Center     Atomic      Atomic             Coordinates (Angstroms)
 Number     Number       Type             X           Y           Z
 ---------------------------------------------------------------------
      1          8           0        7.323603    0.366721    0.176449
      2          6           0        6.067503   -0.756250    0.339878
      3          6           0        4.157220   -0.543387   -0.087577
      4          6           0        2.496578   -1.193663   -0.277172
      5          6           0        2.423998    0.265920    0.019529
      6          6           0        1.276930    0.034477    0.559372
      7          6           0        0.197739    0.746237   -0.051906
      8         16           0        0.265726    2.182044   -0.833614
      9         16           0       -1.137824    0.303140    0.883521
     10         16           0       -2.811989    1.092139    0.069610
     11         16           0       -3.881319   -0.397149    0.954362
     12          6           0       -4.106482   -0.402091   -0.882156
     13         16           0       -2.032020   -1.607492   -0.903316
     14          6           0        0.501315   -1.732014   -0.579232
     15          1           0        8.244772   -0.041915    0.368697
     16          1           0        6.395419   -0.959685    1.395430
     17          1           0        6.570525   -1.443729   -0.324433
     18          1           0        4.621721    0.634951   -0.064703
     19          1           0        2.775414    1.218913   -0.413658
     20          1           0        1.146446   -0.934559    1.095464
     21          1           0       -4.971289   -1.136705    1.228655
     22          1           0       -5.124854    0.660568   -0.803721
     23          1           0       -3.658901   -1.924897   -1.077986
     24          1           0        0.881926   -2.684991    0.211232
 ---------------------------------------------------------------------
 Rotational constants (GHZ):           1.0026993           0.1596285           0.1481605
 Standard basis: 6-31G(2df,p) (6D, 7F)
 There are   504 symmetry adapted cartesian basis functions of A   symmetry.
 There are   462 symmetry adapted basis functions of A   symmetry.
   462 basis functions,   806 primitive gaussians,   504 cartesian basis functions
    73 alpha electrons       73 beta electrons
       nuclear repulsion energy      1450.2064373468 Hartrees.
 NAtoms=   24 NActive=   24 NUniq=   24 SFac= 1.00D+00 NAtFMM=   60 NAOKFM=F Big=F
 Integral buffers will be    131072 words long.
 Raffenetti 2 integral format.
 Two-electron integral symmetry is turned on.
 One-electron integrals computed using PRISM.
 PrsmSu:  requested number of processors reduced to:  12 ShMem   1 Linda.
 NBasis=   462 RedAO= T EigKep=  3.64D-04  NBF=   462
 NBsUse=   462 1.00D-06 EigRej= -1.00D+00 NBFU=   462
 ExpMin= 1.17D-01 ExpMax= 2.19D+04 ExpMxC= 3.30D+03 IAcc=3 IRadAn=         5 AccDes= 0.00D+00
 Harris functional with IExCor=  402 and IRadAn=       5 diagonalized for initial guess.
 HarFok:  IExCor=  402 AccDes= 0.00D+00 IRadAn=         5 IDoV= 1 UseB2=F ITyADJ=14
 ICtDFT=  3500011 ScaDFX=  1.000000  1.000000  1.000000  1.000000
 FoFCou: FMM=F IPFlag=           0 FMFlag=      100000 FMFlg1=           0
         NFxFlg=           0 DoJE=T BraDBF=F KetDBF=T FulRan=T
         wScrn=  0.000000 ICntrl=       500 IOpCl=  0 I1Cent=   200000004 NGrid=           0
         NMat0=    1 NMatS0=      1 NMatT0=    0 NMatD0=    1 NMtDS0=    0 NMtDT0=    0
 Petite list used in FoFCou.
 Requested convergence on RMS density matrix=1.00D-08 within 128 cycles.
 Requested convergence on MAX density matrix=1.00D-06.
 Requested convergence on             energy=1.00D-06.
 No special actions if energy rises.
 Integral accuracy reduced to 1.0D-05 until final iterations.
 Rare condition: small coef for last iteration:  0.000D+00
 EnCoef did   100 forward-backward iterations
 EnCoef did   100 forward-backward iterations
 EnCoef did   100 forward-backward iterations
 EnCoef did     2 forward-backward iterations
 EnCoef did     7 forward-backward iterations
 EnCoef did   100 forward-backward iterations
 EnCoef did   100 forward-backward iterations
 Initial convergence to 1.0D-05 achieved.  Increase integral accuracy.
 SCF Done:  E(RB3LYP) =  -2375.93192908     A.U. after   34 cycles
            NFock= 34  Conv=0.64D-08     -V/T= 2.0036

 **********************************************************************

            Population analysis using the SCF density.

 **********************************************************************

 Orbital symmetries:
       Occupied  (A) (A) (A) (A) (A) (A) (A) (A) (A) (A) (A) (A)
                 (A) (A) (A) (A) (A) (A) (A) (A) (A) (A) (A) (A)
                 (A) (A) (A) (A) (A) (A) (A) (A) (A) (A) (A) (A)
                 (A) (A) (A) (A) (A) (A) (A) (A) (A) (A) (A) (A)
                 (A) (A) (A) (A) (A) (A) (A) (A) (A) (A) (A) (A)
                 (A) (A) (A) (A) (A) (A) (A) (A) (A) (A) (A) (A)
                 (A)
       Virtual   (A) (A) (A) (A) (A) (A) (A) (A) (A) (A) (A) (A)
                 (A) (A) (A) (A) (A) (A) (A) (A) (A) (A) (A) (A)
                 (A) (A) (A) (A) (A) (A) (A) (A) (A) (A) (A) (A)
                 (A) (A) (A) (A) (A) (A) (A) (A) (A) (A) (A) (A)
                 (A) (A) (A) (A) (A) (A) (A) (A) (A) (A) (A) (A)
                 (A) (A) (A) (A) (A) (A) (A) (A) (A) (A) (A) (A)
                 (A) (A) (A) (A) (A) (A) (A) (A) (A) (A) (A) (A)
                 (A) (A) (A) (A) (A) (A) (A) (A) (A) (A) (A) (A)
                 (A) (A) (A) (A) (A) (A) (A) (A) (A) (A) (A) (A)
                 (A) (A) (A) (A) (A) (A) (A) (A) (A) (A) (A) (A)
                 (A) (A) (A) (A) (A) (A) (A) (A) (A) (A) (A) (A)
                 (A) (A) (A) (A) (A) (A) (A) (A) (A) (A) (A) (A)
                 (A) (A) (A) (A) (A) (A) (A) (A) (A) (A) (A) (A)
                 (A) (A) (A) (A) (A) (A) (A) (A) (A) (A) (A) (A)
                 (A) (A) (A) (A) (A) (A) (A) (A) (A) (A) (A) (A)
                 (A) (A) (A) (A) (A) (A) (A) (A) (A) (A) (A) (A)
                 (A) (A) (A) (A) (A) (A) (A) (A) (A) (A) (A) (A)
                 (A) (A) (A) (A) (A) (A) (A) (A) (A) (A) (A) (A)
                 (A) (A) (A) (A) (A) (A) (A) (A) (A) (A) (A) (A)
                 (A) (A) (A) (A) (A) (A) (A) (A) (A) (A) (A) (A)
                 (A) (A) (A) (A) (A) (A) (A) (A) (A) (A) (A) (A)
                 (A) (A) (A) (A) (A) (A) (A) (A) (A) (A) (A) (A)
                 (A) (A) (A) (A) (A) (A) (A) (A) (A) (A) (A) (A)
                 (A) (A) (A) (A) (A) (A) (A) (A) (A) (A) (A) (A)
                 (A) (A) (A) (A) (A) (A) (A) (A) (A) (A) (A) (A)
                 (A) (A) (A) (A) (A) (A) (A) (A) (A) (A) (A) (A)
                 (A) (A) (A) (A) (A) (A) (A) (A) (A) (A) (A) (A)
                 (A) (A) (A) (A) (A) (A) (A) (A) (A) (A) (A) (A)
                 (A) (A) (A) (A) (A) (A) (A) (A) (A) (A) (A) (A)
                 (A) (A) (A) (A) (A) (A) (A) (A) (A) (A) (A) (A)
                 (A) (A) (A) (A) (A) (A) (A) (A) (A) (A) (A) (A)
                 (A) (A) (A) (A) (A) (A) (A) (A) (A) (A) (A) (A)
                 (A) (A) (A) (A) (A)
 The electronic state is 1-A.
 Alpha  occ. eigenvalues --  -88.95936 -88.95167 -88.95012 -88.87914 -88.86281
 Alpha  occ. eigenvalues --  -19.11567 -10.31724 -10.30762 -10.30331 -10.29685
 Alpha  occ. eigenvalues --  -10.28684 -10.25533 -10.24919 -10.24183  -8.01900
 Alpha  occ. eigenvalues --   -8.01417  -8.01407  -7.94363  -7.92847  -5.98309
 Alpha  occ. eigenvalues --   -5.98013  -5.97900  -5.97752  -5.97574  -5.97356
 Alpha  occ. eigenvalues --   -5.97286  -5.97253  -5.97101  -5.90856  -5.90303
 Alpha  occ. eigenvalues --   -5.89977  -5.89236  -5.88965  -5.88427  -0.93950
 Alpha  occ. eigenvalues --   -0.92902  -0.91064  -0.85620  -0.77027  -0.72623
 Alpha  occ. eigenvalues --   -0.70166  -0.68826  -0.65962  -0.65386  -0.61936
 Alpha  occ. eigenvalues --   -0.59277  -0.56454  -0.53317  -0.50385  -0.48648
 Alpha  occ. eigenvalues --   -0.46644  -0.44753  -0.44486  -0.43402  -0.42078
 Alpha  occ. eigenvalues --   -0.41056  -0.40465  -0.36868  -0.36437  -0.36103
 Alpha  occ. eigenvalues --   -0.34494  -0.32040  -0.31095  -0.30373  -0.28244
 Alpha  occ. eigenvalues --   -0.27576  -0.26072  -0.25691  -0.24505  -0.23879
 Alpha  occ. eigenvalues --   -0.22412  -0.21985  -0.21222
 Alpha virt. eigenvalues --   -0.17649  -0.12295  -0.11580  -0.10915  -0.08526
 Alpha virt. eigenvalues --   -0.07770  -0.05143  -0.01727   0.00203   0.00986
 Alpha virt. eigenvalues --    0.01671   0.03155   0.04771   0.05704   0.06235
 Alpha virt. eigenvalues --    0.07146   0.08813   0.09534   0.12037   0.13719
 Alpha virt. eigenvalues --    0.13934   0.15382   0.16216   0.16932   0.17572
 Alpha virt. eigenvalues --    0.18340   0.20472   0.20860   0.21788   0.22875
 Alpha virt. eigenvalues --    0.23912   0.25471   0.26151   0.27200   0.27698
 Alpha virt. eigenvalues --    0.29410   0.31429   0.32428   0.33349   0.33613
 Alpha virt. eigenvalues --    0.34775   0.35982   0.36369   0.36919   0.37675
 Alpha virt. eigenvalues --    0.38574   0.39210   0.39596   0.40487   0.40790
 Alpha virt. eigenvalues --    0.42317   0.43597   0.44121   0.45270   0.45635
 Alpha virt. eigenvalues --    0.46927   0.47376   0.48548   0.49467   0.50309
 Alpha virt. eigenvalues --    0.50819   0.51256   0.52630   0.52894   0.53990
 Alpha virt. eigenvalues --    0.54628   0.55705   0.56430   0.57155   0.58532
 Alpha virt. eigenvalues --    0.59263   0.59578   0.60997   0.63022   0.63097
 Alpha virt. eigenvalues --    0.63554   0.64190   0.65441   0.65966   0.66825
 Alpha virt. eigenvalues --    0.67143   0.68405   0.68969   0.70315   0.70574
 Alpha virt. eigenvalues --    0.71097   0.71798   0.72235   0.73220   0.74633
 Alpha virt. eigenvalues --    0.75278   0.75359   0.76027   0.77675   0.78732
 Alpha virt. eigenvalues --    0.79057   0.79129   0.80148   0.81446   0.82518
 Alpha virt. eigenvalues --    0.83217   0.84184   0.85576   0.87008   0.87847
 Alpha virt. eigenvalues --    0.88781   0.89281   0.89899   0.90736   0.91728
 Alpha virt. eigenvalues --    0.92223   0.93979   0.96187   0.96977   0.97136
 Alpha virt. eigenvalues --    0.98448   1.00313   1.00623   1.02629   1.03775
 Alpha virt. eigenvalues --    1.04037   1.04656   1.07460   1.09891   1.10534
 Alpha virt. eigenvalues --    1.12205   1.12665   1.12880   1.14718   1.15645
 Alpha virt. eigenvalues --    1.18381   1.20319   1.23309   1.24052   1.27183
 Alpha virt. eigenvalues --    1.28539   1.29984   1.30765   1.32105   1.34812
 Alpha virt. eigenvalues --    1.35238   1.35488   1.36710   1.38308   1.39856
 Alpha virt. eigenvalues --    1.40530   1.42664   1.43377   1.45099   1.45439
 Alpha virt. eigenvalues --    1.46581   1.47599   1.48828   1.50833   1.51738
 Alpha virt. eigenvalues --    1.52081   1.54121   1.55206   1.56471   1.57403
 Alpha virt. eigenvalues --    1.58090   1.59378   1.61361   1.62056   1.64044
 Alpha virt. eigenvalues --    1.64928   1.65403   1.65860   1.66745   1.67686
 Alpha virt. eigenvalues --    1.69358   1.69700   1.69923   1.70658   1.71730
 Alpha virt. eigenvalues --    1.72172   1.73511   1.76017   1.76597   1.78309
 Alpha virt. eigenvalues --    1.78552   1.79326   1.80877   1.83142   1.85168
 Alpha virt. eigenvalues --    1.86462   1.87806   1.88838   1.89766   1.91241
 Alpha virt. eigenvalues --    1.92703   1.93430   1.95310   1.97071   1.97906
 Alpha virt. eigenvalues --    1.98435   2.01334   2.04527   2.04594   2.06213
 Alpha virt. eigenvalues --    2.06870   2.08683   2.09484   2.10694   2.11991
 Alpha virt. eigenvalues --    2.12806   2.13423   2.15066   2.16703   2.17854
 Alpha virt. eigenvalues --    2.18438   2.20189   2.20916   2.22640   2.22759
 Alpha virt. eigenvalues --    2.25141   2.26358   2.27698   2.29673   2.31190
 Alpha virt. eigenvalues --    2.31726   2.32789   2.33860   2.35288   2.37011
 Alpha virt. eigenvalues --    2.38973   2.39588   2.40348   2.41403   2.43833
 Alpha virt. eigenvalues --    2.45890   2.47021   2.48540   2.50029   2.50578
 Alpha virt. eigenvalues --    2.51160   2.51227   2.53293   2.54231   2.55884
 Alpha virt. eigenvalues --    2.58092   2.59157   2.60002   2.61055   2.62311
 Alpha virt. eigenvalues --    2.64110   2.64678   2.65055   2.66883   2.69557
 Alpha virt. eigenvalues --    2.70114   2.72307   2.74576   2.76027   2.76351
 Alpha virt. eigenvalues --    2.77206   2.78075   2.79697   2.80540   2.82362
 Alpha virt. eigenvalues --    2.83416   2.84104   2.87652   2.88435   2.89612
 Alpha virt. eigenvalues --    2.90979   2.93241   2.95122   2.97079   2.97445
 Alpha virt. eigenvalues --    3.00823   3.02307   3.03043   3.06721   3.07953
 Alpha virt. eigenvalues --    3.09827   3.11964   3.13658   3.13950   3.14917
 Alpha virt. eigenvalues --    3.17543   3.17964   3.20980   3.22667   3.26595
 Alpha virt. eigenvalues --    3.26928   3.28750   3.31330   3.34479   3.35454
 Alpha virt. eigenvalues --    3.37042   3.38577   3.40710   3.41008   3.41878
 Alpha virt. eigenvalues --    3.44136   3.46466   3.49052   3.49403   3.49953
 Alpha virt. eigenvalues --    3.53317   3.56140   3.58755   3.64852   3.67900
 Alpha virt. eigenvalues --    3.71839   3.73039   3.73708   3.76994   3.78126
 Alpha virt. eigenvalues --    3.82429   3.85192   3.86822   3.94498   3.95105
 Alpha virt. eigenvalues --    4.01689   4.05607   4.07844   4.11172   4.15476
 Alpha virt. eigenvalues --    4.18073   4.18800   4.21466   4.22091   4.24555
 Alpha virt. eigenvalues --    4.26903   4.27706   4.28423   4.29871   4.32490
 Alpha virt. eigenvalues --    4.35669   4.36695   4.38335   4.39380   4.42098
 Alpha virt. eigenvalues --    4.42375   4.43210   4.47047   4.48116   4.49350
 Alpha virt. eigenvalues --    4.51632   4.54047   4.55400   4.56148   4.59080
 Alpha virt. eigenvalues --    4.63688   4.64369   4.65104   4.66678   4.69297
 Alpha virt. eigenvalues --    4.70741   4.73791   4.74563   4.76981   4.81275
 Alpha virt. eigenvalues --    4.84644   4.89195   4.89754   4.93667   4.97207
 Alpha virt. eigenvalues --    4.99493   5.02956   5.10070   5.12178   5.13573
 Alpha virt. eigenvalues --    5.17142   5.21132   5.23747   5.30976   5.35230
 Alpha virt. eigenvalues --    5.37092   5.40316   5.44808   5.55266   5.57887
 Alpha virt. eigenvalues --    5.60177   5.70675   5.85699   6.04071   6.73080
 Alpha virt. eigenvalues --    9.99406  10.48140  10.64764  10.73913  11.14005
 Alpha virt. eigenvalues --   11.32512  11.65922  12.09036  12.98156
          Condensed to atoms (all electrons):
               1          2          3          4          5          6
     1  O    8.129479   0.206061  -0.003705   0.000014  -0.000013  -0.000000
     2  C    0.206061   5.194562   0.189154  -0.005736  -0.000520  -0.000615
     3  C   -0.003705   0.189154   5.407252   0.259067   0.038574  -0.002075
     4  C    0.000014  -0.005736   0.259067   5.567719   0.401639  -0.109360
     5  C   -0.000013  -0.000520   0.038574   0.401639   4.916083   0.457450
     6  C   -0.000000  -0.000615  -0.002075  -0.109360   0.457450   5.115306
     7  C   -0.000000   0.000005   0.000650   0.008865  -0.038841   0.400959
     8  S    0.000000  -0.000003   0.000522   0.001809  -0.004738  -0.076109
     9  S   -0.000000   0.000000  -0.000192   0.001337   0.003503  -0.053212
    10  S   -0.000000   0.000000  -0.000000   0.000007  -0.000132   0.004129
    11  S   -0.000000   0.000000  -0.000000   0.000007  -0.000004   0.000232
    12  C    0.000000  -0.000000   0.000000  -0.000001   0.000000  -0.000004
    13  S   -0.000000   0.000000  -0.000021   0.001636   0.000061  -0.003675
    14  C    0.000000  -0.000005  -0.000909   0.055372  -0.028670   0.038466
    15  H    0.261168  -0.022302   0.000693  -0.000000   0.000001   0.000000
    16  H   -0.027501   0.344930  -0.015575   0.000031  -0.000221   0.000019
    17  H   -0.025870   0.359565  -0.014329  -0.000041   0.000139   0.000006
    18  H    0.003743  -0.074905   0.293693  -0.013969  -0.009201   0.004775
    19  H   -0.000004   0.000569  -0.021276  -0.016751   0.366404  -0.024291
    20  H    0.000000  -0.000029   0.000287  -0.030063  -0.037972   0.356458
    21  H    0.000000   0.000000  -0.000000   0.000000  -0.000000  -0.000001
    22  H    0.000000   0.000000   0.000000   0.000000  -0.000000   0.000000
    23  H    0.000000   0.000000  -0.000000  -0.000001   0.000000   0.000000
    24  H   -0.000000  -0.000000  -0.000485  -0.004701   0.001120  -0.009091
               7          8          9         10         11         12
     1  O   -0.000000   0.000000  -0.000000  -0.000000  -0.000000   0.000000
     2  C    0.000005  -0.000003   0.000000   0.000000   0.000000  -0.000000
     3  C    0.000650   0.000522  -0.000192  -0.000000  -0.000000   0.000000
     4  C    0.008865   0.001809   0.001337   0.000007   0.000007  -0.000001
     5  C   -0.038841  -0.004738   0.003503  -0.000132  -0.000004   0.000000
     6  C    0.400959  -0.076109  -0.053212   0.004129   0.000232  -0.000004
     7  C    4.679438   0.499144   0.278315  -0.000891   0.000144   0.000008
     8  S    0.499144  15.973005  -0.103614   0.011472   0.001132   0.000134
     9  S    0.278315  -0.103614  15.777140   0.111984  -0.003038  -0.014327
    10  S   -0.000891   0.011472   0.111984  16.065881  -0.310493   0.097647
    11  S    0.000144   0.001132  -0.003038  -0.310493  16.066474   0.193666
    12  C    0.000008   0.000134  -0.014327   0.097647   0.193666   5.780730
    13  S   -0.004401   0.002044  -0.061050  -0.113510  -0.043049  -0.052926
    14  C    0.012600   0.000513  -0.015980  -0.001297  -0.000059   0.000312
    15  H    0.000000  -0.000000   0.000000   0.000000   0.000000  -0.000000
    16  H   -0.000000   0.000000  -0.000000  -0.000000  -0.000000   0.000000
    17  H    0.000000  -0.000000  -0.000000  -0.000000   0.000000   0.000000
    18  H    0.000037  -0.000057   0.000001  -0.000000   0.000000  -0.000000
    19  H   -0.011288   0.018394   0.000586  -0.000013   0.000000   0.000000
    20  H   -0.045780   0.004263  -0.004483   0.000197   0.000013   0.000002
    21  H   -0.000001   0.000003  -0.002135   0.052930   0.075177  -0.028396
    22  H   -0.000010  -0.000035   0.002327  -0.038444   0.030736   0.189906
    23  H    0.000030  -0.000018   0.005961   0.007995  -0.021397   0.078517
    24  H   -0.001243  -0.000151   0.000746   0.000035  -0.000018   0.000002
              13         14         15         16         17         18
     1  O   -0.000000   0.000000   0.261168  -0.027501  -0.025870   0.003743
     2  C    0.000000  -0.000005  -0.022302   0.344930   0.359565  -0.074905
     3  C   -0.000021  -0.000909   0.000693  -0.015575  -0.014329   0.293693
     4  C    0.001636   0.055372  -0.000000   0.000031  -0.000041  -0.013969
     5  C    0.000061  -0.028670   0.000001  -0.000221   0.000139  -0.009201
     6  C   -0.003675   0.038466   0.000000   0.000019   0.000006   0.004775
     7  C   -0.004401   0.012600   0.000000  -0.000000   0.000000   0.000037
     8  S    0.002044   0.000513  -0.000000   0.000000  -0.000000  -0.000057
     9  S   -0.061050  -0.015980   0.000000  -0.000000  -0.000000   0.000001
    10  S   -0.113510  -0.001297   0.000000  -0.000000  -0.000000  -0.000000
    11  S   -0.043049  -0.000059   0.000000  -0.000000   0.000000   0.000000
    12  C   -0.052926   0.000312  -0.000000   0.000000   0.000000  -0.000000
    13  S   16.328829   0.042151   0.000000  -0.000000  -0.000000   0.000001
    14  C    0.042151   5.839866   0.000000  -0.000000   0.000000  -0.000023
    15  H    0.000000   0.000000   0.468298  -0.000392  -0.000180  -0.000335
    16  H   -0.000000  -0.000000  -0.000392   0.580274  -0.028831   0.004312
    17  H   -0.000000   0.000000  -0.000180  -0.028831   0.545283   0.003551
    18  H    0.000001  -0.000023  -0.000335   0.004312   0.003551   0.599409
    19  H    0.000013   0.000371   0.000000  -0.000012  -0.000008  -0.007318
    20  H    0.000259  -0.002192  -0.000000   0.000004  -0.000000  -0.000108
    21  H    0.000601   0.000006   0.000000  -0.000000  -0.000000   0.000000
    22  H    0.008950  -0.000002   0.000000  -0.000000  -0.000000  -0.000000
    23  H    0.142245   0.000457   0.000000  -0.000000  -0.000000  -0.000000
    24  H    0.000187   0.209446   0.000000   0.000000  -0.000000   0.000007
              19         20         21         22         23         24
     1  O   -0.000004   0.000000   0.000000   0.000000   0.000000  -0.000000
     2  C    0.000569  -0.000029   0.000000   0.000000   0.000000  -0.000000
     3  C   -0.021276   0.000287  -0.000000   0.000000  -0.000000  -0.000485
     4  C   -0.016751  -0.030063   0.000000   0.000000  -0.000001  -0.004701
     5  C    0.366404  -0.037972  -0.000000  -0.000000   0.000000   0.001120
     6  C   -0.024291   0.356458  -0.000001   0.000000   0.000000  -0.009091
     7  C   -0.011288  -0.045780  -0.000001  -0.000010   0.000030  -0.001243
     8  S    0.018394   0.004263   0.000003  -0.000035  -0.000018  -0.000151
     9  S    0.000586  -0.004483  -0.002135   0.002327   0.005961   0.000746
    10  S   -0.000013   0.000197   0.052930  -0.038444   0.007995   0.000035
    11  S    0.000000   0.000013   0.075177   0.030736  -0.021397  -0.000018
    12  C    0.000000   0.000002  -0.028396   0.189906   0.078517   0.000002
    13  S    0.000013   0.000259   0.000601   0.008950   0.142245   0.000187
    14  C    0.000371  -0.002192   0.000006  -0.000002   0.000457   0.209446
    15  H    0.000000  -0.000000   0.000000   0.000000   0.000000   0.000000
    16  H   -0.000012   0.000004  -0.000000  -0.000000  -0.000000   0.000000
    17  H   -0.000008  -0.000000  -0.000000  -0.000000  -0.000000  -0.000000
    18  H   -0.007318  -0.000108   0.000000  -0.000000  -0.000000   0.000007
    19  H    0.478027   0.004263   0.000000  -0.000000  -0.000000  -0.000020
    20  H    0.004263   0.551898  -0.000000  -0.000000  -0.000003   0.013633
    21  H    0.000000  -0.000000   0.844077  -0.015529   0.001125  -0.000000
    22  H   -0.000000  -0.000000  -0.015529   0.716336  -0.000789  -0.000000
    23  H   -0.000000  -0.000003   0.001125  -0.000789   0.607342  -0.000046
    24  H   -0.000020   0.013633  -0.000000  -0.000000  -0.000046   0.645972
 Mulliken charges:
               1
     1  O   -0.543373
     2  C   -0.190730
     3  C   -0.131323
     4  C   -0.116880
     5  C   -0.064661
     6  C   -0.099366
     7  C    0.222261
     8  S   -0.327709
     9  S    0.076131
    10  S    0.112502
    11  S    0.010477
    12  C   -0.245271
    13  S   -0.248345
    14  C   -0.150422
    15  H    0.293049
    16  H    0.142962
    17  H    0.160715
    18  H    0.196389
    19  H    0.212354
    20  H    0.189355
    21  H    0.072143
    22  H    0.106553
    23  H    0.178582
    24  H    0.144606
 Sum of Mulliken charges =  -0.00000
 Mulliken charges with hydrogens summed into heavy atoms:
               1
     1  O   -0.250323
     2  C    0.112948
     3  C    0.065066
     4  C   -0.116880
     5  C    0.147693
     6  C    0.089989
     7  C    0.222261
     8  S   -0.327709
     9  S    0.076131
    10  S    0.112502
    11  S    0.082620
    12  C    0.039863
    13  S   -0.248345
    14  C   -0.005816
 Electronic spatial extent (au):  <R**2>=           7072.7417
 Charge=             -0.0000 electrons
 Dipole moment (field-independent basis, Debye):
    X=             -2.1141    Y=             -1.2850    Z=              3.6015  Tot=              4.3694
 Quadrupole moment (field-independent basis, Debye-Ang):
   XX=           -103.7024   YY=           -125.8255   ZZ=           -124.2972
   XY=             -8.8813   XZ=              1.5033   YZ=             -2.2478
 Traceless Quadrupole moment (field-independent basis, Debye-Ang):
   XX=             14.2393   YY=             -7.8838   ZZ=             -6.3555
   XY=             -8.8813   XZ=              1.5033   YZ=             -2.2478
 Octapole moment (field-independent basis, Debye-Ang**2):
  XXX=             -3.3155  YYY=              8.6337  ZZZ=             18.2673  XYY=              1.9365
  XXY=            -64.2089  XXZ=             44.0576  XZZ=              3.2648  YZZ=              5.1794
  YYZ=              9.4234  XYZ=             -1.0182
 Hexadecapole moment (field-independent basis, Debye-Ang**3):
 XXXX=          -6438.7493 YYYY=          -1146.5003 ZZZZ=           -485.4108 XXXY=           -551.0580
 XXXZ=            186.8834 YYYX=             16.2173 YYYZ=            -14.4964 ZZZX=            -22.5589
 ZZZY=            -13.0594 XXYY=          -1509.8670 XXZZ=          -1396.8555 YYZZ=           -276.6369
 XXYZ=            -35.2815 YYXZ=             -6.9477 ZZXY=             -2.0828
 N-N= 1.450206437347D+03 E-N=-8.526404196687D+03  KE= 2.367301662564D+03
 PrsmSu:  requested number of processors reduced to:  13 ShMem   1 Linda.
 Calling FoFJK, ICntrl=      2127 FMM=F ISym2X=0 I1Cent= 0 IOpClX= 0 NMat=1 NMatS=1 NMatT=0.
 ***** Axes restored to original set *****
 -------------------------------------------------------------------
 Center     Atomic                   Forces (Hartrees/Bohr)
 Number     Number              X              Y              Z
 -------------------------------------------------------------------
      1        8           0.013933316   -0.006581606   -0.011761720
      2        6          -0.032380159    0.010892122    0.066410825
      3        6          -0.058233733    0.001193735    0.006247907
      4        6          -0.140707602    0.045816590    0.006551680
      5        6          -0.071708874    0.091933746    0.017705236
      6        6           0.116208643   -0.093191104   -0.020342280
      7        6          -0.022880651   -0.040534630    0.014573100
      8       16          -0.011011804    0.011857529   -0.017395489
      9       16           0.039872353   -0.022598788    0.006287018
     10       16          -0.095926120   -0.013911655   -0.057455832
     11       16           0.084560362    0.019109289    0.009110411
     12        6          -0.017150082   -0.075409318    0.012086161
     13       16           0.040110671    0.021530393   -0.010220758
     14        6          -0.016147612    0.037243361    0.071370109
     15        1           0.038706996   -0.022778104   -0.030958047
     16        1           0.024934184    0.001474291   -0.020742533
     17        1           0.024925527    0.006680639   -0.008725189
     18        1           0.067142123    0.027497862   -0.022354051
     19        1           0.022051538    0.003289333    0.003496956
     20        1          -0.001570313   -0.031264020   -0.003528078
     21        1           0.036785768   -0.020091350    0.002623194
     22        1          -0.000670145    0.058848258    0.033472308
     23        1          -0.035269183    0.010325482    0.010365692
     24        1          -0.005575199   -0.021332055   -0.056816618
 -------------------------------------------------------------------
 Cartesian Forces:  Max     0.140707602 RMS     0.042787730

 GradGradGradGradGradGradGradGradGradGradGradGradGradGradGradGradGradGrad
 Berny optimization.
 FormGI is forming the generalized inverse of G from B-inverse, IUseBI=4.
 Internal  Forces:  Max     0.165035548 RMS     0.037397538
 Search for a local minimum.
 Step number   1 out of a maximum of  117
 All quantities printed in internal units (Hartrees-Bohrs-Radians)
 Mixed Optimization -- RFO/linear search
 Second derivative matrix not updated -- first step.
 ITU=  0
     Eigenvalues ---    0.00230   0.00230   0.00230   0.00230   0.00238
     Eigenvalues ---    0.00493   0.00825   0.01009   0.01296   0.01581
     Eigenvalues ---    0.01682   0.01692   0.01829   0.02012   0.02556
     Eigenvalues ---    0.02864   0.03009   0.03044   0.03600   0.04228
     Eigenvalues ---    0.05243   0.07498   0.07763   0.08088   0.08806
     Eigenvalues ---    0.09108   0.09296   0.10052   0.10130   0.11236
     Eigenvalues ---    0.11950   0.12035   0.12237   0.13698   0.14088
     Eigenvalues ---    0.14174   0.14809   0.16000   0.16000   0.18149
     Eigenvalues ---    0.18356   0.19203   0.19478   0.20303   0.21083
     Eigenvalues ---    0.21146   0.22312   0.22525   0.22955   0.25000
     Eigenvalues ---    0.25000   0.25000   0.25000   0.25992   0.27407
     Eigenvalues ---    0.30799   0.31174   0.32205   0.32330   0.33218
     Eigenvalues ---    0.35963   0.37159   0.40989   0.43408   0.44806
     Eigenvalues ---    0.65383
 RFO step:  Lambda=-2.90132862D-01 EMin= 2.30000000D-03
 Linear search not attempted -- first point.
 Maximum step size (   0.300) exceeded in Quadratic search.
    -- Step size scaled by   0.431
 Iteration  1 RMS(Cart)=  0.17034378 RMS(Int)=  0.00390536
 Iteration  2 RMS(Cart)=  0.00875115 RMS(Int)=  0.00031654
 Iteration  3 RMS(Cart)=  0.00001347 RMS(Int)=  0.00031646
 Iteration  4 RMS(Cart)=  0.00000000 RMS(Int)=  0.00031646
 Variable       Old X    -DE/DX   Delta X   Delta X   Delta X     New X
                                 (Linear)    (Quad)   (Total)
    R1        3.19892  -0.05316   0.00000  -0.04841  -0.04841   3.15051
    R2        1.93869  -0.05016   0.00000  -0.02988  -0.02988   1.90881
    R3        3.72099  -0.07254   0.00000  -0.07860  -0.07827   3.64272
    R4        2.12383  -0.01952   0.00000  -0.01399  -0.01399   2.10983
    R5        2.04140   0.00674   0.00000   0.00447   0.00447   2.04587
    R6        3.86790   0.03112   0.00000   0.03609   0.03562   3.90352
    R7        3.38917  -0.07794   0.00000  -0.07788  -0.07788   3.31129
    R8        2.39389  -0.08493   0.00000  -0.07253  -0.07225   2.32164
    R9        2.81796   0.00455   0.00000   0.00150   0.00158   2.81955
   R10        3.94683   0.00481   0.00000  -0.01140  -0.01138   3.93545
   R11        2.43530   0.16504   0.00000   0.07703   0.07694   2.51224
   R12        2.08670  -0.02115   0.00000  -0.01466  -0.01466   2.07204
   R13        2.70232   0.02144   0.00000   0.01321   0.01321   2.71553
   R14        2.10724  -0.02347   0.00000  -0.01412  -0.01429   2.09294
   R15        3.09202   0.01640   0.00000   0.00959   0.00959   3.10160
   R16        3.19307   0.05627   0.00000   0.03669   0.03669   3.22976
   R17        3.82071   0.00361   0.00000   0.00255   0.00255   3.82325
   R18        3.84699   0.12132   0.00000   0.08750   0.08750   3.93449
   R19        3.49652  -0.02960   0.00000  -0.02478  -0.02478   3.47174
   R20        2.54252   0.03933   0.00000   0.03084   0.03084   2.57336
   R21        2.78533  -0.06742   0.00000  -0.07085  -0.07085   2.71448
   R22        3.02215   0.02813   0.00000   0.03183   0.03183   3.05399
   R23        3.14967  -0.03245   0.00000  -0.03478  -0.03478   3.11489
   R24        3.71115   0.00199   0.00000   0.01286   0.01313   3.72429
   R25        2.44781  -0.05160   0.00000  -0.04964  -0.04954   2.39827
   R26        3.73949   0.00034   0.00000   0.00211   0.00186   3.74134
    A1        1.96486  -0.04156   0.00000  -0.03983  -0.03983   1.92503
    A2        2.24875  -0.04895   0.00000  -0.04160  -0.04196   2.20679
    A3        1.56505   0.04179   0.00000   0.03904   0.03900   1.60405
    A4        1.58808   0.03784   0.00000   0.03635   0.03645   1.62454
    A5        1.62498  -0.02734   0.00000  -0.02379  -0.02335   1.60163
    A6        2.10194  -0.01080   0.00000  -0.01256  -0.01229   2.08965
    A7        1.96822  -0.00897   0.00000  -0.00968  -0.00953   1.95870
    A8        1.90340   0.00501   0.00000   0.00427   0.00355   1.90696
    A9        2.11154  -0.00094   0.00000  -0.00022  -0.00062   2.11092
   A10        2.26519  -0.00788   0.00000  -0.00786  -0.00801   2.25718
   A11        2.65099  -0.05184   0.00000  -0.04707  -0.04798   2.60301
   A12        2.31677  -0.00317   0.00000  -0.00993  -0.01082   2.30596
   A13        1.23358   0.08825   0.00000   0.08411   0.08416   1.31775
   A14        1.80757  -0.03902   0.00000  -0.03361  -0.03384   1.77373
   A15        1.52166   0.03909   0.00000   0.04393   0.04391   1.56558
   A16        2.42066  -0.01938   0.00000  -0.01985  -0.01990   2.40076
   A17        2.21755  -0.01902   0.00000  -0.02079  -0.02072   2.19682
   A18        1.98589   0.04548   0.00000   0.03968   0.03966   2.02555
   A19        2.05061  -0.03053   0.00000  -0.02290  -0.02304   2.02756
   A20        2.15284  -0.01887   0.00000  -0.01991  -0.01970   2.13314
   A21        2.22639   0.00335   0.00000   0.00590   0.00547   2.23187
   A22        1.80219   0.00931   0.00000   0.01074   0.01032   1.81251
   A23        2.12638   0.00588   0.00000   0.00830   0.00787   2.13425
   A24        1.90636  -0.00348   0.00000  -0.00278  -0.00278   1.90358
   A25        1.54530   0.02876   0.00000   0.02297   0.02297   1.56827
   A26        1.19662  -0.01674   0.00000  -0.01204  -0.01135   1.18528
   A27        2.72946  -0.01881   0.00000  -0.02165  -0.02187   2.70759
   A28        1.67328   0.01895   0.00000   0.01995   0.02068   1.69395
   A29        1.60014  -0.02243   0.00000  -0.02087  -0.02064   1.57950
   A30        1.66094   0.03487   0.00000   0.03390   0.03411   1.69505
   A31        2.66028  -0.02660   0.00000  -0.03039  -0.03032   2.62996
   A32        0.99819   0.05382   0.00000   0.03900   0.03907   1.03726
   A33        1.39049   0.03980   0.00000   0.03899   0.03980   1.43030
   A34        1.55214  -0.03034   0.00000  -0.01731  -0.01641   1.53573
   A35        2.17672  -0.02852   0.00000  -0.01744  -0.01783   2.15889
   A36        1.64989   0.10234   0.00000   0.08174   0.08174   1.73163
   A37        3.04116   0.04923   0.00000   0.05050   0.05032   3.09148
   A38        3.08173   0.01407   0.00000   0.01779   0.01821   3.09995
    D1       -3.02204  -0.00228   0.00000  -0.00297  -0.00282  -3.02486
    D2        0.98838   0.00248   0.00000   0.00228   0.00294   0.99133
    D3       -0.91497  -0.00321   0.00000  -0.00262  -0.00325  -0.91822
    D4        3.10046   0.00333   0.00000   0.00378   0.00360   3.10406
    D5        3.01811   0.00144   0.00000   0.00175   0.00180   3.01991
    D6       -1.21120   0.00542   0.00000   0.00693   0.00712  -1.20408
    D7        1.07679  -0.00850   0.00000  -0.01086  -0.01080   1.06600
    D8        2.69843  -0.02340   0.00000  -0.02929  -0.02945   2.66898
    D9       -0.24924  -0.02073   0.00000  -0.03165  -0.03123  -0.28047
   D10        1.66718  -0.00070   0.00000  -0.00464  -0.00474   1.66245
   D11        0.39895  -0.00085   0.00000  -0.00147  -0.00093   0.39801
   D12       -1.30641  -0.00235   0.00000  -0.00508  -0.00577  -1.31218
   D13       -2.57464  -0.00250   0.00000  -0.00192  -0.00197  -2.57661
   D14       -2.64514   0.01340   0.00000   0.02053   0.02058  -2.62455
   D15        1.03580   0.00979   0.00000   0.01164   0.01191   1.04771
   D16        0.55632  -0.00067   0.00000   0.00274   0.00237   0.55869
   D17       -2.04593  -0.00428   0.00000  -0.00615  -0.00631  -2.05224
   D18       -1.02512   0.00597   0.00000   0.01306   0.01310  -1.01202
   D19       -2.32534   0.02274   0.00000   0.03300   0.03234  -2.29301
   D20       -2.09652   0.00941   0.00000   0.00434   0.00458  -2.09193
   D21        0.60932  -0.00348   0.00000  -0.00723  -0.00709   0.60222
   D22        0.60635   0.00863   0.00000   0.00809   0.00820   0.61455
   D23       -2.97100  -0.00426   0.00000  -0.00349  -0.00347  -2.97448
   D24       -0.48841   0.01400   0.00000   0.02354   0.02350  -0.46490
   D25       -3.10398  -0.02295   0.00000  -0.02604  -0.02618  -3.13016
   D26        3.11799   0.02962   0.00000   0.03541   0.03555  -3.12965
   D27        0.50241  -0.00733   0.00000  -0.01417  -0.01413   0.48828
   D28       -1.58964   0.04832   0.00000   0.04633   0.04589  -1.54375
   D29       -1.33233  -0.00341   0.00000  -0.00074  -0.00054  -1.33287
   D30        1.07126   0.05081   0.00000   0.04931   0.04922   1.12049
   D31        1.32857  -0.00093   0.00000   0.00225   0.00279   1.33136
   D32       -3.05608   0.03893   0.00000   0.05372   0.05382  -3.00226
   D33        0.57307   0.00575   0.00000   0.00877   0.00867   0.58174
   D34        2.70664   0.00777   0.00000   0.01117   0.01117   2.71781
   D35       -2.12535   0.04296   0.00000   0.06268   0.06236  -2.06299
   D36       -3.02250  -0.01125   0.00000  -0.01682  -0.01650  -3.03900
   D37       -1.42989   0.02014   0.00000   0.03121   0.03136  -1.39853
   D38        2.17844   0.04491   0.00000   0.05973   0.05988   2.23833
   D39        1.39154  -0.00912   0.00000  -0.00692  -0.00707   1.38447
   D40       -1.28330   0.01566   0.00000   0.02160   0.02145  -1.26185
   D41       -1.33657  -0.01072   0.00000  -0.01717  -0.01728  -1.35385
   D42        3.13685  -0.01526   0.00000  -0.02115  -0.02104   3.11581
   D43        1.23569   0.02973   0.00000   0.01991   0.02022   1.25591
         Item               Value     Threshold  Converged?
 Maximum Force            0.165036     0.000450     NO 
 RMS     Force            0.037398     0.000300     NO 
 Maximum Displacement     0.475559     0.001800     NO 
 RMS     Displacement     0.168993     0.001200     NO 
 Predicted change in Energy=-1.147692D-01
 GradGradGradGradGradGradGradGradGradGradGradGradGradGradGradGradGradGrad

                          Input orientation:                          
 ---------------------------------------------------------------------
 Center     Atomic      Atomic             Coordinates (Angstroms)
 Number     Number       Type             X           Y           Z
 ---------------------------------------------------------------------
      1          8           0        1.296846    0.083910   -0.032302
      2          6           0        2.958275    0.055224   -0.167637
      3          6           0        3.978391   -0.784734   -1.571076
      4          6           0        5.527864   -1.079672   -2.334333
      5          6           0        4.707325   -2.276964   -2.679860
      6          6           0        5.813094   -3.013700   -2.722928
      7          6           0        6.102002   -3.645510   -3.980826
      8         16           0        5.041816   -4.089691   -5.152392
      9         16           0        7.547501   -4.507509   -3.683233
     10         16           0        8.245453   -5.250833   -5.430684
     11         16           0       10.168206   -5.304506   -4.633791
     12          6           0       10.053984   -4.187560   -6.087943
     13         16           0        9.428041   -2.376790   -4.503245
     14          6           0        7.303077   -1.481124   -3.346491
     15          1           0        1.017910    0.681258    0.732990
     16          1           0        3.075376   -0.293358    0.886543
     17          1           0        3.032865    1.134879   -0.197141
     18          1           0        2.871673   -1.294164   -1.729233
     19          1           0        3.771653   -2.491033   -3.209912
     20          1           0        6.608694   -2.743205   -2.001476
     21          1           0       11.516584   -5.491157   -4.671724
     22          1           0       10.138252   -5.313860   -6.975471
     23          1           0       10.717339   -2.887297   -5.394358
     24          1           0        7.804739   -1.180703   -2.220117
 ---------------------------------------------------------------------
                    Distance matrix (angstroms):
                    1          2          3          4          5
     1  O    0.000000
     2  C    1.667179   0.000000
     3  C    3.211394   1.927642   0.000000
     4  C    4.955278   3.547583   1.752261   0.000000
     5  C    4.920840   3.848317   1.996873   1.492039   0.000000
     6  C    6.101734   4.908951   3.108246   1.993195   1.329421
     7  C    7.251824   6.174047   4.301240   3.102273   2.347457
     8  S    7.593357   6.809496   4.987930   4.151856   3.084035
     9  S    8.572113   7.364709   5.573043   4.201015   3.748157
    10  S   10.290051   9.154679   7.283573   5.862701   5.378594
    11  S   11.353843  10.032763   8.253628   6.683525   6.542558
    12  C   11.471866  10.168595   8.300250   6.650888   6.622096
    13  S    9.600037   8.159047   6.389910   4.647373   5.061605
    14  C    7.036192   5.598462   3.832832   2.082549   2.795655
    15  H    1.010101   2.228916   4.027692   5.731408   5.831845
    16  H    2.037100   1.116475   2.663977   4.123957   4.395131
    17  H    2.036043   1.082630   2.542956   3.961924   4.539646
    18  H    2.694205   2.065654   1.228559   2.732674   2.288932
    19  H    4.780399   4.049747   2.374865   2.417200   1.096477
    20  H    6.331347   4.951740   3.307469   2.011549   2.071905
    21  H   12.531905  11.148712   9.412162   7.796753   7.788746
    22  H   12.470524  11.257252   9.362925   7.792573   7.561083
    23  H   11.239458   9.807146   8.028181   6.289827   6.622784
    24  H    6.981293   5.406330   3.901152   2.281976   3.317699
                    6          7          8          9         10
     6  C    0.000000
     7  C    1.436997   0.000000
     8  S    2.766752   1.641297   0.000000
     9  S    2.482301   1.709114   2.934528   0.000000
    10  S    4.272361   3.045247   3.418916   2.023178   0.000000
    11  S    5.278843   4.439892   5.293826   2.899458   2.082041
    12  C    5.539532   4.511310   5.099673   3.488188   2.198482
    13  S    4.079586   3.597930   4.753355   2.957839   3.243266
    14  C    2.226582   2.555294   3.896049   3.054855   4.409380
    15  H    6.970644   8.172453   8.578549   9.437261  11.199016
    16  H    5.284282   6.639929   7.399172   7.657794   9.550580
    17  H    5.596425   6.825539   7.475729   8.023173   9.764136
    18  H    3.549112   4.586233   4.923669   6.000590   7.631087
    19  H    2.162826   2.712499   2.818199   4.306650   5.706418
    20  H    1.107538   2.233544   3.767811   2.611979   4.552652
    21  H    6.516548   5.762070   6.642121   4.206934   3.366612
    22  H    6.487052   5.295527   5.549402   4.266266   2.443978
    23  H    5.586067   4.886133   5.806536   3.949799   3.420211
    24  H    2.753062   3.474864   4.969325   3.643421   5.202684
                   11         12         13         14         15
    11  S    0.000000
    12  C    1.837164   0.000000
    13  S    3.022649   2.486354   0.000000
    14  C    4.948166   4.733692   2.579877   0.000000
    15  H   12.180297  12.324007  10.368227   7.798807   0.000000
    16  H   10.290477  10.607036   8.587598   6.099411   2.281803
    17  H   10.585963  10.598396   8.471872   5.915791   2.265163
    18  H    8.818089   8.885701   7.200916   4.720998   3.660775
    19  H    7.131546   7.115402   5.803488   3.675530   5.761338
    20  H    5.114633   5.536731   3.787060   1.970807   7.103600
    21  H    1.361764   2.417487   3.753622   5.965756  13.324106
    22  H    2.341890   1.436440   3.904187   5.991459  13.361978
    23  H    2.592857   1.616101   1.648330   4.222354  12.014904
    24  H    5.330811   5.390767   3.046048   1.269108   7.632090
                   16         17         18         19         20
    16  H    0.000000
    17  H    1.793332   0.000000
    18  H    2.808093   2.876375   0.000000
    19  H    4.700587   4.771775   2.105914   0.000000
    20  H    5.179453   5.575097   4.017358   3.093979   0.000000
    21  H   11.365096  11.657603  10.050249   8.433362   6.226463
    22  H   11.700466  11.748128   9.822634   7.917156   6.618661
    23  H   10.226330  10.111385   8.804868   7.291871   5.330420
    24  H    5.727616   5.676718   4.958728   4.354588   1.979834
                   21         22         23         24
    21  H    0.000000
    22  H    2.690444   0.000000
    23  H    2.817992   2.953551   0.000000
    24  H    6.194206   6.718754   4.633736   0.000000
 Stoichiometry    C8H10OS5
 Framework group  C1[X(C8H10OS5)]
 Deg. of freedom    66
 Full point group                 C1      NOp   1
 Largest Abelian subgroup         C1      NOp   1
 Largest concise Abelian subgroup C1      NOp   1
                         Standard orientation:                         
 ---------------------------------------------------------------------
 Center     Atomic      Atomic             Coordinates (Angstroms)
 Number     Number       Type             X           Y           Z
 ---------------------------------------------------------------------
      1          8           0        7.370211    0.157444    0.246871
      2          6           0        6.062333   -0.869538    0.366244
      3          6           0        4.240224   -0.463643   -0.114353
      4          6           0        2.589832   -1.004422   -0.347118
      5          6           0        2.464320    0.443253   -0.008494
      6          6           0        1.275572    0.205417    0.537098
      7          6           0        0.162826    0.904075   -0.044823
      8         16           0        0.178879    2.339490   -0.840551
      9         16           0       -1.174648    0.392459    0.888175
     10         16           0       -2.876220    1.080311    0.036845
     11         16           0       -3.945500   -0.459783    0.942187
     12          6           0       -4.023151   -0.549636   -0.891134
     13         16           0       -1.945657   -1.912438   -0.797591
     14          6           0        0.603262   -1.530246   -0.684843
     15          1           0        8.224655   -0.337067    0.460620
     16          1           0        6.312144   -1.124988    1.424004
     17          1           0        6.505588   -1.605061   -0.293013
     18          1           0        4.742298    0.656936   -0.074569
     19          1           0        2.802909    1.402321   -0.418140
     20          1           0        1.158592   -0.770825    1.046910
     21          1           0       -5.050259   -1.215217    1.193642
     22          1           0       -5.042798    0.461957   -0.910050
     23          1           0       -3.566676   -2.093191   -1.035533
     24          1           0        0.910875   -2.486612    0.090640
 ---------------------------------------------------------------------
 Rotational constants (GHZ):           0.9106333           0.1579755           0.1443340
 Standard basis: 6-31G(2df,p) (6D, 7F)
 There are   504 symmetry adapted cartesian basis functions of A   symmetry.
 There are   462 symmetry adapted basis functions of A   symmetry.
   462 basis functions,   806 primitive gaussians,   504 cartesian basis functions
    73 alpha electrons       73 beta electrons
       nuclear repulsion energy      1426.6462200173 Hartrees.
 NAtoms=   24 NActive=   24 NUniq=   24 SFac= 1.00D+00 NAtFMM=   60 NAOKFM=F Big=F
 Integral buffers will be    131072 words long.
 Raffenetti 2 integral format.
 Two-electron integral symmetry is turned on.
 One-electron integrals computed using PRISM.
 PrsmSu:  requested number of processors reduced to:  12 ShMem   1 Linda.
 NBasis=   462 RedAO= T EigKep=  4.30D-04  NBF=   462
 NBsUse=   462 1.00D-06 EigRej= -1.00D+00 NBFU=   462
 Initial guess from the checkpoint file:  "OCCdC1CdCCqdSrSS[SH]dC[SH]dC1.chk"
 B after Tr=     0.000000    0.000000   -0.000000
         Rot=    0.999963    0.007134    0.001696   -0.004491 Ang=   0.99 deg.
 ExpMin= 1.17D-01 ExpMax= 2.19D+04 ExpMxC= 3.30D+03 IAcc=2 IRadAn=         4 AccDes= 0.00D+00
 Harris functional with IExCor=  402 and IRadAn=       4 diagonalized for initial guess.
 HarFok:  IExCor=  402 AccDes= 0.00D+00 IRadAn=         4 IDoV= 1 UseB2=F ITyADJ=14
 ICtDFT=  3500011 ScaDFX=  1.000000  1.000000  1.000000  1.000000
 FoFCou: FMM=F IPFlag=           0 FMFlag=      100000 FMFlg1=           0
         NFxFlg=           0 DoJE=T BraDBF=F KetDBF=T FulRan=T
         wScrn=  0.000000 ICntrl=       500 IOpCl=  0 I1Cent=   200000004 NGrid=           0
         NMat0=    1 NMatS0=      1 NMatT0=    0 NMatD0=    1 NMtDS0=    0 NMtDT0=    0
 Petite list used in FoFCou.
 Requested convergence on RMS density matrix=1.00D-08 within 128 cycles.
 Requested convergence on MAX density matrix=1.00D-06.
 Requested convergence on             energy=1.00D-06.
 No special actions if energy rises.
 Integral accuracy reduced to 1.0D-05 until final iterations.
 Initial convergence to 1.0D-05 achieved.  Increase integral accuracy.
 SCF Done:  E(RB3LYP) =  -2376.04511672     A.U. after   25 cycles
            NFock= 25  Conv=0.62D-08     -V/T= 2.0038
 PrsmSu:  requested number of processors reduced to:  13 ShMem   1 Linda.
 Calling FoFJK, ICntrl=      2127 FMM=F ISym2X=0 I1Cent= 0 IOpClX= 0 NMat=1 NMatS=1 NMatT=0.
 ***** Axes restored to original set *****
 -------------------------------------------------------------------
 Center     Atomic                   Forces (Hartrees/Bohr)
 Number     Number              X              Y              Z
 -------------------------------------------------------------------
      1        8           0.023021240   -0.010451237   -0.016900282
      2        6          -0.024013067    0.013426846    0.050416213
      3        6          -0.043356600    0.008108221    0.015082738
      4        6          -0.148941264    0.032270388    0.013571493
      5        6          -0.014154119    0.069542362    0.008956885
      6        6           0.076322411   -0.059756310   -0.026466213
      7        6          -0.023798508   -0.037888775    0.017585946
      8       16          -0.007159394    0.013088640   -0.011544647
      9       16           0.031475132   -0.019551891    0.002635277
     10       16          -0.078667719    0.004973957   -0.043978974
     11       16           0.080198772    0.014444628    0.009629382
     12        6          -0.022936723   -0.082435763    0.006690834
     13       16           0.039676138    0.002721056   -0.023652938
     14        6          -0.020886377    0.034168201    0.074708725
     15        1           0.028915747   -0.019706718   -0.026719433
     16        1           0.022003636   -0.001539831   -0.019546095
     17        1           0.022539666    0.003612161   -0.008867162
     18        1           0.061792874    0.016334786   -0.027022278
     19        1           0.011747811    0.004290835    0.005735019
     20        1          -0.000303387   -0.027590523   -0.000665018
     21        1           0.027833374   -0.012480650    0.000203747
     22        1           0.003344029    0.060007443    0.035048131
     23        1          -0.035950676    0.013680326    0.016515540
     24        1          -0.008702994   -0.019268151   -0.051416893
 -------------------------------------------------------------------
 Cartesian Forces:  Max     0.148941264 RMS     0.037347140

 GradGradGradGradGradGradGradGradGradGradGradGradGradGradGradGradGradGrad
 Berny optimization.
 Using GEDIIS/GDIIS optimizer.
 FormGI is forming the generalized inverse of G from B-inverse, IUseBI=4.
 Internal  Forces:  Max     0.109227669 RMS     0.031547702
 Search for a local minimum.
 Step number   2 out of a maximum of  117
 All quantities printed in internal units (Hartrees-Bohrs-Radians)
 Mixed Optimization -- RFO/linear search
 Update second derivatives using D2CorX and points    1    2
 DE= -1.13D-01 DEPred=-1.15D-01 R= 9.86D-01
 TightC=F SS=  1.41D+00  RLast= 3.39D-01 DXNew= 5.0454D-01 1.0156D+00
 Trust test= 9.86D-01 RLast= 3.39D-01 DXMaxT set to 5.05D-01
 ITU=  1  0
 Use linear search instead of GDIIS.
 Linear search step of   0.600 exceeds DXMaxT=   0.505 but not scaled.
 Quartic linear search produced a step of  2.00000.
 Iteration  1 RMS(Cart)=  0.33522144 RMS(Int)=  0.01612941
 Iteration  2 RMS(Cart)=  0.03414960 RMS(Int)=  0.00190850
 Iteration  3 RMS(Cart)=  0.00017749 RMS(Int)=  0.00190601
 Iteration  4 RMS(Cart)=  0.00000021 RMS(Int)=  0.00190601
 Variable       Old X    -DE/DX   Delta X   Delta X   Delta X     New X
                                 (Linear)    (Quad)   (Total)
    R1        3.15051  -0.05582  -0.09682   0.00000  -0.09682   3.05369
    R2        1.90881  -0.03988  -0.05976   0.00000  -0.05976   1.84906
    R3        3.64272  -0.08295  -0.15655   0.00000  -0.15404   3.48868
    R4        2.10983  -0.01567  -0.02799   0.00000  -0.02799   2.08185
    R5        2.04587   0.00540   0.00895   0.00000   0.00895   2.05482
    R6        3.90352   0.03209   0.07124   0.00000   0.06779   3.97131
    R7        3.31129  -0.09336  -0.15575   0.00000  -0.15574   3.15556
    R8        2.32164  -0.07764  -0.14450   0.00000  -0.14222   2.17942
    R9        2.81955  -0.00987   0.00316   0.00000   0.00359   2.82314
   R10        3.93545  -0.00772  -0.02277   0.00000  -0.02247   3.91298
   R11        2.51224   0.10923   0.15388   0.00000   0.15315   2.66539
   R12        2.07204  -0.01364  -0.02933   0.00000  -0.02933   2.04272
   R13        2.71553   0.01392   0.02642   0.00000   0.02642   2.74195
   R14        2.09294  -0.01717  -0.02859   0.00000  -0.02962   2.06332
   R15        3.10160   0.00932   0.01917   0.00000   0.01917   3.12077
   R16        3.22976   0.04798   0.07337   0.00000   0.07337   3.30313
   R17        3.82325   0.00393   0.00509   0.00000   0.00509   3.82834
   R18        3.93449   0.10223   0.17500   0.00000   0.17500   4.10949
   R19        3.47174  -0.03007  -0.04956   0.00000  -0.04956   3.42218
   R20        2.57336   0.02926   0.06169   0.00000   0.06169   2.63505
   R21        2.71448  -0.06851  -0.14170   0.00000  -0.14170   2.57278
   R22        3.05399   0.01166   0.06367   0.00000   0.06367   3.11766
   R23        3.11489  -0.04298  -0.06955   0.00000  -0.06955   3.04534
   R24        3.72429   0.00038   0.02627   0.00000   0.02800   3.75228
   R25        2.39827  -0.04816  -0.09908   0.00000  -0.09829   2.29997
   R26        3.74134   0.00040   0.00372   0.00000   0.00193   3.74328
    A1        1.92503  -0.03560  -0.07965   0.00000  -0.07965   1.84538
    A2        2.20679  -0.04772  -0.08393   0.00000  -0.08613   2.12066
    A3        1.60405   0.03968   0.07801   0.00000   0.07752   1.68157
    A4        1.62454   0.03559   0.07291   0.00000   0.07312   1.69765
    A5        1.60163  -0.02697  -0.04671   0.00000  -0.04391   1.55772
    A6        2.08965  -0.01033  -0.02458   0.00000  -0.02277   2.06688
    A7        1.95870  -0.00697  -0.01906   0.00000  -0.01777   1.94092
    A8        1.90696   0.00364   0.00711   0.00000   0.00265   1.90960
    A9        2.11092  -0.00255  -0.00125   0.00000  -0.00369   2.10723
   A10        2.25718  -0.00683  -0.01603   0.00000  -0.01736   2.23981
   A11        2.60301  -0.04815  -0.09597   0.00000  -0.10187   2.50114
   A12        2.30596  -0.01432  -0.02163   0.00000  -0.02736   2.27859
   A13        1.31775   0.07286   0.16832   0.00000   0.16854   1.48628
   A14        1.77373  -0.03416  -0.06769   0.00000  -0.06890   1.70483
   A15        1.56558   0.04036   0.08783   0.00000   0.08760   1.65317
   A16        2.40076  -0.01980  -0.03980   0.00000  -0.04009   2.36067
   A17        2.19682  -0.01806  -0.04145   0.00000  -0.04096   2.15586
   A18        2.02555   0.02940   0.07932   0.00000   0.07920   2.10475
   A19        2.02756  -0.02759  -0.04609   0.00000  -0.04697   1.98059
   A20        2.13314  -0.00371  -0.03940   0.00000  -0.03798   2.09517
   A21        2.23187  -0.00747   0.01095   0.00000   0.00842   2.24029
   A22        1.81251   0.01562   0.02064   0.00000   0.01817   1.83069
   A23        2.13425   0.00501   0.01574   0.00000   0.01322   2.14747
   A24        1.90358  -0.00230  -0.00556   0.00000  -0.00556   1.89803
   A25        1.56827   0.04091   0.04594   0.00000   0.04594   1.61420
   A26        1.18528  -0.03216  -0.02269   0.00000  -0.01866   1.16662
   A27        2.70759  -0.01477  -0.04375   0.00000  -0.04509   2.66250
   A28        1.69395   0.02437   0.04136   0.00000   0.04571   1.73966
   A29        1.57950  -0.01187  -0.04128   0.00000  -0.03984   1.53966
   A30        1.69505   0.02460   0.06822   0.00000   0.06944   1.76450
   A31        2.62996  -0.02224  -0.06064   0.00000  -0.06014   2.56982
   A32        1.03726   0.04357   0.07813   0.00000   0.07827   1.11553
   A33        1.43030   0.03708   0.07961   0.00000   0.08448   1.51478
   A34        1.53573  -0.02271  -0.03282   0.00000  -0.02752   1.50821
   A35        2.15889  -0.02484  -0.03566   0.00000  -0.03782   2.12108
   A36        1.73163   0.04798   0.16348   0.00000   0.16348   1.89510
   A37        3.09148   0.03870   0.10063   0.00000   0.09963   3.19111
   A38        3.09995   0.01265   0.03643   0.00000   0.03835   3.13830
    D1       -3.02486  -0.00244  -0.00564   0.00000  -0.00492  -3.02978
    D2        0.99133   0.00432   0.00588   0.00000   0.00985   1.00118
    D3       -0.91822  -0.00399  -0.00651   0.00000  -0.01036  -0.92858
    D4        3.10406   0.00244   0.00721   0.00000   0.00637   3.11043
    D5        3.01991   0.00189   0.00360   0.00000   0.00383   3.02373
    D6       -1.20408   0.00484   0.01424   0.00000   0.01514  -1.18895
    D7        1.06600  -0.00765  -0.02159   0.00000  -0.02129   1.04471
[...]
 ---------------------------------------------------------------------
      1          8           0        7.267693   -0.488534    0.289945
      2          6           0        5.997888   -1.082318    0.120494
      3          6           0        4.988517    0.006714    0.033798
      4          6           0        3.700614   -0.222988   -0.135836
      5          6           0        2.642218    0.774864   -0.177043
      6          6           0        1.424474    0.336060    0.299457
      7          6           0        0.126091    0.981271    0.111605
      8         16           0       -0.140424    2.342665   -0.745567
      9         16           0       -1.091626    0.054968    1.061950
     10         16           0       -2.909924    0.947207    0.764335
     11         16           0       -4.819471   -1.282036    0.616679
     12          6           0       -3.734360   -0.151873   -0.359097
     13         16           0       -2.609761   -1.084788   -1.468013
     14          6           0        2.939777   -1.462661   -0.456434
     15          1           0        7.919495   -1.191521    0.338742
     16          1           0        5.749620   -1.740399    0.972995
     17          1           0        5.970619   -1.717067   -0.781922
     18          1           0        5.371999    1.019458    0.044331
     19          1           0        2.726762    1.713175   -0.712195
     20          1           0        1.451201   -0.545930    0.938626
     21          1           0       -5.598639   -1.670501   -0.421809
     22          1           0       -4.350104    0.504569   -0.932059
     23          1           0       -3.528275   -1.077290   -2.494067
     24          1           0        2.773771   -2.108918    0.436000
 ---------------------------------------------------------------------
 Rotational constants (GHZ):           0.9177938           0.1329495           0.1260596
 Standard basis: 6-31G(2df,p) (6D, 7F)
 There are   504 symmetry adapted cartesian basis functions of A   symmetry.
 There are   462 symmetry adapted basis functions of A   symmetry.
   462 basis functions,   806 primitive gaussians,   504 cartesian basis functions
    73 alpha electrons       73 beta electrons
       nuclear repulsion energy      1370.8193980775 Hartrees.
 NAtoms=   24 NActive=   24 NUniq=   24 SFac= 1.00D+00 NAtFMM=   60 NAOKFM=F Big=F
 Integral buffers will be    131072 words long.
 Raffenetti 2 integral format.
 Two-electron integral symmetry is turned on.
 One-electron integrals computed using PRISM.
 PrsmSu:  requested number of processors reduced to:  12 ShMem   1 Linda.
 NBasis=   462 RedAO= T EigKep=  5.09D-04  NBF=   462
 NBsUse=   462 1.00D-06 EigRej= -1.00D+00 NBFU=   462
 Lowest energy guess from the checkpoint file:  "OCCdC1CdCCqdSrSS[SH]dC[SH]dC1.chk"
 B after Tr=    -0.000000   -0.000000    0.000000
         Rot=    0.998688   -0.050991   -0.002483    0.003908 Ang=  -5.87 deg.
 B after Tr=    -0.000000   -0.000000    0.000000
         Rot=    0.996975    0.077599    0.004275    0.000749 Ang=   8.92 deg.
 Requested convergence on RMS density matrix=1.00D-08 within 128 cycles.
 Requested convergence on MAX density matrix=1.00D-06.
 Requested convergence on             energy=1.00D-06.
 No special actions if energy rises.
 Integral accuracy reduced to 1.0D-05 until final iterations.
 Initial convergence to 1.0D-05 achieved.  Increase integral accuracy.
 SCF Done:  E(RB3LYP) =  -2376.85476905     A.U. after   15 cycles
            NFock= 15  Conv=0.34D-08     -V/T= 2.0036
 PrsmSu:  requested number of processors reduced to:  13 ShMem   1 Linda.
 Calling FoFJK, ICntrl=      2127 FMM=F ISym2X=0 I1Cent= 0 IOpClX= 0 NMat=1 NMatS=1 NMatT=0.
 ***** Axes restored to original set *****
 -------------------------------------------------------------------
 Center     Atomic                   Forces (Hartrees/Bohr)
 Number     Number              X              Y              Z
 -------------------------------------------------------------------
      1        8          -0.002873355    0.000549616    0.000714778
      2        6          -0.001877695    0.003154906    0.004458909
      3        6          -0.019332952    0.010937033    0.005010727
      4        6           0.041043136   -0.009774282   -0.006244023
      5        6           0.019101835   -0.009520681   -0.001281525
      6        6          -0.012713511    0.005009139   -0.001920428
      7        6          -0.004774403    0.000094441    0.000241760
      8       16           0.001014098    0.000046824   -0.000372756
      9       16          -0.001976984   -0.001035329    0.004441444
     10       16          -0.021921977   -0.010654182    0.007203893
     11       16           0.004093850   -0.005840781   -0.003668458
     12        6           0.019334318    0.012943713    0.014184725
     13       16           0.005365679    0.005174687   -0.019445595
     14        6          -0.015724106    0.002076546    0.000655506
     15        1          -0.001087740    0.000895515    0.001155574
     16        1           0.001704232    0.000059350    0.000704588
     17        1           0.000588978   -0.000188538   -0.000980651
     18        1          -0.002002945   -0.001962852    0.000473482
     19        1          -0.001642622   -0.000054979   -0.001908235
     20        1           0.002837271   -0.001034332   -0.001401269
     21        1          -0.002138181   -0.000040046    0.002890999
     22        1           0.003645193    0.000849328   -0.016204357
     23        1          -0.007438720   -0.000326382    0.011691527
     24        1          -0.003223399   -0.001358714   -0.000400616
 -------------------------------------------------------------------
 Cartesian Forces:  Max     0.041043136 RMS     0.008930673

 GradGradGradGradGradGradGradGradGradGradGradGradGradGradGradGradGradGrad
 Berny optimization.
 Using GEDIIS/GDIIS optimizer.
 FormGI is forming the generalized inverse of G from B-inverse, IUseBI=4.
 Internal  Forces:  Max     0.066261138 RMS     0.009627730
 Search for a local minimum.
 Step number  16 out of a maximum of  117
 All quantities printed in internal units (Hartrees-Bohrs-Radians)
 Mixed Optimization -- RFO/linear search
 Update second derivatives using D2CorX and points   14   16
 DE= -6.40D-03 DEPred=-1.32D-02 R= 4.84D-01
 Trust test= 4.84D-01 RLast= 6.26D-01 DXMaxT set to 7.86D-01
 ITU=  0 -1  1  0  0 -1  1  1  0  1  1  1  0  0  1  0
 Use linear search instead of GDIIS.
     Eigenvalues ---    0.00230   0.00230   0.00247   0.00371   0.00451
     Eigenvalues ---    0.00582   0.00995   0.01093   0.01491   0.01579
     Eigenvalues ---    0.01697   0.01753   0.01928   0.01956   0.02212
     Eigenvalues ---    0.02298   0.02444   0.03999   0.04895   0.05422
     Eigenvalues ---    0.06114   0.06486   0.08198   0.09161   0.09836
     Eigenvalues ---    0.10290   0.11264   0.11710   0.12118   0.12416
     Eigenvalues ---    0.13956   0.14949   0.15167   0.15607   0.16350
     Eigenvalues ---    0.16517   0.16982   0.18499   0.19063   0.19855
     Eigenvalues ---    0.20401   0.20851   0.21824   0.22500   0.23485
     Eigenvalues ---    0.24636   0.24845   0.25023   0.25233   0.25825
     Eigenvalues ---    0.27530   0.29928   0.30451   0.31217   0.32091
     Eigenvalues ---    0.32377   0.33733   0.36002   0.36610   0.40960
     Eigenvalues ---    0.43864   0.44617   0.45609   0.49964   1.07721
     Eigenvalues ---    1.91949
 RFO step:  Lambda=-1.76426020D-02 EMin= 2.29968387D-03
 Quartic linear search produced a step of -0.32317.
 Iteration  1 RMS(Cart)=  0.19418426 RMS(Int)=  0.02777484
 Iteration  2 RMS(Cart)=  0.04027231 RMS(Int)=  0.00315524
 Iteration  3 RMS(Cart)=  0.00362527 RMS(Int)=  0.00051787
 Iteration  4 RMS(Cart)=  0.00002778 RMS(Int)=  0.00051765
 Iteration  5 RMS(Cart)=  0.00000000 RMS(Int)=  0.00051765
 Variable       Old X    -DE/DX   Delta X   Delta X   Delta X     New X
                                 (Linear)    (Quad)   (Total)
    R1        2.66826   0.00445   0.00812  -0.01123  -0.00311   2.66515
    R2        1.81396   0.00151   0.00144   0.00978   0.01121   1.82517
    R3        2.81077   0.00763   0.01064   0.00331   0.01398   2.82474
    R4        2.08852   0.00133   0.00095   0.01084   0.01180   2.10032
    R5        2.08556   0.00031  -0.00070   0.00273   0.00203   2.08759
    R6        4.14665   0.00007   0.00496   0.02075   0.02570   4.17234
    R7        2.49289   0.03021   0.03906   0.00795   0.04698   2.53986
    R8        2.04651   0.00195   0.00134   0.02346   0.02481   2.07132
    R9        2.74993   0.00378   0.00299   0.00687   0.01020   2.76013
   R10        2.81464  -0.01640  -0.02605  -0.04452  -0.07026   2.74438
   R11        2.60652  -0.01807  -0.00888  -0.05472  -0.06349   2.54303
   R12        2.04751   0.00250   0.00302   0.01019   0.01322   2.06073
   R13        2.76274  -0.00327  -0.00281  -0.00850  -0.01130   2.75144
   R14        2.05899   0.00139   0.00366   0.01202   0.01552   2.07451
   R15        3.08157  -0.00002  -0.00067  -0.00328  -0.00395   3.07762
   R16        3.40362  -0.00094  -0.00299   0.00036  -0.00263   3.40099
   R17        3.86858   0.00178  -0.00079   0.00717   0.00638   3.87496
   R18        5.55390   0.02175  -0.02427   0.07388   0.04962   5.60351
   R19        3.48800  -0.00424  -0.01941   0.00479  -0.01462   3.47338
   R20        2.56089  -0.00319  -0.00214  -0.02761  -0.02975   2.53114
   R21        2.01621   0.01612   0.02637   0.03376   0.06013   2.07634
   R22        4.41443   0.00627  -0.08545   0.14751   0.06205   4.47648
   R23        2.60241  -0.01952  -0.04467  -0.03760  -0.08228   2.52014
   R24        4.22659   0.00174  -0.03801   0.09570   0.05751   4.28410
   R25        2.10571  -0.00120  -0.00275  -0.00037  -0.00298   2.10273
   R26        3.98403   0.00094  -0.02927   0.07305   0.04350   4.02753
    A1        1.88470   0.00186  -0.00246   0.03274   0.03028   1.91498
    A2        1.88533   0.00191   0.00258  -0.00150   0.00109   1.88642
    A3        1.93890   0.00036   0.00063   0.00845   0.00908   1.94798
    A4        1.94144   0.00029  -0.00044   0.00781   0.00734   1.94879
    A5        1.42819  -0.00020   0.00151  -0.00391  -0.00241   1.42578
    A6        1.90550  -0.00061  -0.00245  -0.00695  -0.00948   1.89602
    A7        1.93551  -0.00168   0.00077  -0.00504  -0.00422   1.93129
    A8        1.85741  -0.00036  -0.00121  -0.00299  -0.00427   1.85314
    A9        2.13297   0.00053  -0.00668   0.01044   0.00383   2.13680
   A10        2.11234  -0.00041   0.00693  -0.01508  -0.00823   2.10412
   A11        2.14425   0.00543   0.00378   0.01301   0.01679   2.16104
   A12        2.10574   0.00132   0.00101  -0.01235  -0.01130   2.09444
   A13        2.20721  -0.00002  -0.00136   0.00029  -0.00132   2.20590
   A14        1.76512   0.00240  -0.00077   0.03345   0.03314   1.79825
   A15        1.99785   0.00188  -0.01672   0.03060   0.01404   2.01189
   A16        2.15444  -0.00113   0.00907  -0.01617  -0.00720   2.14724
   A17        2.11183  -0.00066   0.00407  -0.00537  -0.00139   2.11044
   A18        2.21340  -0.00327  -0.00293  -0.03585  -0.03859   2.17480
   A19        2.02475  -0.00062  -0.00527   0.02081   0.01533   2.04009
   A20        2.04251   0.00389   0.00871   0.01435   0.02323   2.06573
   A21        2.19092   0.00134  -0.00120   0.00759   0.00643   2.19734
   A22        1.88143  -0.00019  -0.00045   0.00661   0.00619   1.88763
   A23        2.20958  -0.00110   0.00198  -0.01423  -0.01221   2.19737
   A24        1.87512  -0.00641  -0.00054  -0.02780  -0.02834   1.84678
   A25        1.82741   0.00590  -0.00373   0.02432   0.02059   1.84800
   A26        0.60966   0.06626   0.02808   0.01197   0.04003   0.64970
   A27        2.25171   0.03068   0.01841   0.03710   0.05606   2.30776
   A28        1.67943  -0.03216   0.00156  -0.00159  -0.00011   1.67931
   A29        1.89794  -0.00498  -0.00072   0.02544   0.02285   1.92079
   A30        1.86759   0.01210  -0.02323   0.11723   0.09366   1.96125
   A31        1.37337  -0.00636   0.00394   0.02387   0.02600   1.39937
   A32        1.43496  -0.00229  -0.00064  -0.00604  -0.00706   1.42790
   A33        1.96755  -0.00291   0.00013   0.01883   0.01873   1.98627
   A34        1.55301  -0.00018  -0.00991   0.02045   0.00975   1.56275
   A35        2.06651  -0.00079  -0.00534   0.00638   0.00062   2.06713
   A36        0.90213   0.00119   0.01939  -0.02406  -0.00467   0.89746
   A37        3.97233   0.00237  -0.00213   0.03375   0.03182   4.00415
   A38        3.05408  -0.00236   0.00478  -0.04266  -0.03794   3.01614
    D1       -3.13377   0.00036   0.00123  -0.00519  -0.00405  -3.13782
    D2        1.05996  -0.00032   0.00223  -0.00076   0.00148   1.06145
    D3       -1.00575  -0.00029   0.00362  -0.00756  -0.00396  -1.00971
    D4       -3.10348   0.00021  -0.00435   0.00960   0.00535  -3.09814
    D5        3.13333   0.00033  -0.00754   0.03168   0.02411  -3.12574
    D6       -1.03946   0.00156  -0.00669   0.03693   0.03017  -1.00928
    D7        1.00166  -0.00023  -0.00919   0.02613   0.01694   1.01859
    D8        3.09502   0.00001  -0.02364   0.04972   0.02616   3.12118
    D9       -0.12584   0.00068  -0.01862   0.04923   0.03042  -0.09542
   D10        2.35917   0.00142  -0.03339   0.07706   0.04407   2.40324
   D11        1.12258   0.00113  -0.03424   0.07047   0.03560   1.15818
   D12       -1.01233   0.00122  -0.03361   0.06942   0.03643  -0.97590
   D13       -2.24892   0.00094  -0.03445   0.06283   0.02796  -2.22096
   D14       -2.59867  -0.00045   0.00175  -0.02920  -0.02740  -2.62607
   D15        0.75015  -0.00091   0.01846  -0.07766  -0.05922   0.69093
   D16        0.63043   0.00191  -0.00303   0.01346   0.01054   0.64098
   D17       -2.30393   0.00145   0.01367  -0.03500  -0.02128  -2.32521
   D18       -0.73477   0.00120  -0.01396   0.03720   0.02306  -0.71172
   D19       -1.83623   0.00159  -0.01584   0.05292   0.03754  -1.79869
   D20       -2.88066   0.00029   0.03555  -0.07687  -0.04116  -2.92182
   D21        0.34005   0.00012   0.02535  -0.06721  -0.04191   0.29814
   D22        0.05927   0.00067   0.02025  -0.03127  -0.01088   0.04839
   D23       -3.00320   0.00050   0.01006  -0.02161  -0.01164  -3.01484
   D24        0.03180   0.00025   0.00336  -0.00854  -0.00513   0.02667
   D25       -3.05873  -0.00072  -0.00630  -0.00755  -0.01387  -3.07259
   D26        3.09357   0.00025   0.01330  -0.01806  -0.00473   3.08884
   D27        0.00304  -0.00073   0.00364  -0.01707  -0.01347  -0.01042
   D28       -0.73785   0.00198  -0.02560   0.08285   0.05760  -0.68025
   D29       -0.69151   0.00333  -0.03949   0.11279   0.07335  -0.61816
   D30        2.47483   0.00214  -0.03446   0.09396   0.05979   2.53462
   D31        2.52117   0.00349  -0.04835   0.12389   0.07555   2.59672
   D32       -3.12418  -0.00022   0.03158  -0.05478  -0.02326   3.13574
   D33        0.06918  -0.00130   0.02184  -0.05461  -0.03270   0.03648
   D34        2.47770  -0.00279  -0.02330  -0.07601  -0.09931   2.37839
   D35       -1.62433  -0.00300   0.02216  -0.11437  -0.09404  -1.71837
   D36       -2.03634  -0.00812  -0.02485   0.03249   0.00947  -2.02687
   D37       -1.94603  -0.00411   0.00415   0.05458   0.06058  -1.88545
   D38        2.87943   0.00044   0.00724  -0.01425  -0.00633   2.87310
   D39        0.87722   0.00137  -0.02383   0.17529   0.15078   1.02800
   D40       -0.58051   0.00593  -0.02075   0.10646   0.08387  -0.49664
   D41       -1.80784  -0.01157  -0.03295  -0.34300  -0.37465  -2.18249
   D42        2.61918  -0.00323  -0.03592  -0.36206  -0.39928   2.21990
   D43        0.99747  -0.00047   0.02507  -0.08111  -0.05576   0.94171
         Item               Value     Threshold  Converged?
 Maximum Force            0.066261     0.000450     NO 
 RMS     Force            0.009628     0.000300     NO 
 Maximum Displacement     1.033131     0.001800     NO 
 RMS     Displacement     0.215155     0.001200     NO 
 Predicted change in Energy=-1.519070D-02
 GradGradGradGradGradGradGradGradGradGradGradGradGradGradGradGradGradGrad

                          Input orientation:                          
 ---------------------------------------------------------------------
 Center     Atomic      Atomic             Coordinates (Angstroms)
 Number     Number       Type             X           Y           Z
 ---------------------------------------------------------------------
      1          8           0        1.674832    0.332598   -0.176514
      2          6           0        3.056013    0.079045   -0.307293
      3          6           0        3.254988   -0.804668   -1.496349
      4          6           0        4.454621   -1.256796   -1.899956
      5          6           0        4.710882   -2.139244   -3.035283
      6          6           0        5.789022   -2.935149   -2.912428
      7          6           0        6.384822   -3.694508   -4.002533
      8         16           0        5.885225   -3.692255   -5.552613
      9         16           0        7.722962   -4.690188   -3.326505
     10         16           0        8.499643   -5.732910   -4.912130
     11         16           0       11.446526   -5.564233   -4.629027
     12          6           0       10.015397   -4.816475   -5.507147
     13         16           0        9.575687   -3.016886   -5.641569
     14          6           0        5.789667   -0.879535   -1.470537
     15          1           0        1.519418    0.906018    0.584986
     16          1           0        3.464566   -0.434921    0.589494
     17          1           0        3.633736    1.014364   -0.415890
     18          1           0        2.359180   -1.023178   -2.088974
     19          1           0        4.182990   -2.053629   -3.985634
     20          1           0        6.195444   -3.067972   -1.901338
     21          1           0       12.393826   -5.006098   -5.393980
     22          1           0       10.026546   -5.111813   -6.565405
     23          1           0       10.555098   -2.735411   -6.501811
     24          1           0        6.135870   -1.414257   -0.558203
 ---------------------------------------------------------------------
                    Distance matrix (angstroms):
                    1          2          3          4          5
     1  O    0.000000
     2  C    1.410338   0.000000
     3  C    2.352069   1.494788   0.000000
     4  C    3.636434   2.505425   1.344038   0.000000
     5  C    4.847696   3.886043   2.503805   1.460599   0.000000
     6  C    5.923677   4.831297   3.600772   2.371200   1.345713
     7  C    7.282857   6.243033   4.942469   3.753524   2.481228
     8  S    7.926493   7.052697   5.631127   4.617357   3.182433
     9  S    8.469398   7.324045   6.197543   4.950280   3.957872
    10  S   10.285645   9.198720   7.966276   6.743218   5.549027
    11  S   12.250856  10.996575   9.978398   8.653818   7.722659
    12  C   11.157671   9.971841   8.825204   7.523654   6.435492
    13  S   10.173956   8.974711   7.875786   6.582013   5.588319
    14  C    4.480583   3.121678   2.535916   1.452265   2.280148
    15  H    0.965840   1.959890   3.204778   4.412269   5.706611
    16  H    2.092606   1.111442   2.128703   2.802330   4.194881
    17  H    2.087919   1.104707   2.149353   2.834515   4.238715
    18  H    2.442122   2.207908   1.096095   2.116880   2.769767
    19  H    5.147264   4.398700   2.935581   2.249172   1.090489
    20  H    5.913952   4.722364   3.732673   2.512136   2.086215
    21  H   13.062176  11.786764  10.787118   9.449679   8.532873
    22  H   11.841058  10.709683   9.492146   8.226415   7.039475
    23  H   11.326128  10.125685   9.059472   7.783263   6.821077
slurmstepd: error: *** JOB 27446559 ON lewis4-r630-hpc4-node228 CANCELLED AT 2023-05-16T10:25:41 DUE TO TIME LIMIT ***
    24  H    4.806043   3.431971   3.090501   2.156779   2.948240
