### Starting Gaussian ###
 Entering Gaussian System, Link 0=g16
 Initial command:
 /cluster/software/gaussian/gaussian-16-A.03/avx2/g16/l1.exe "/local/scratch/linjian/Gau-19980.inp" -scrdir="/local/scratch/linjian/"
 Entering Link 1 = /cluster/software/gaussian/gaussian-16-A.03/avx2/g16/l1.exe PID=     19981.
  
 Copyright (c) 1988,1990,1992,1993,1995,1998,2003,2009,2016,
            Gaussian, Inc.  All Rights Reserved.
  
 This is part of the Gaussian(R) 16 program.  It is based on
 the Gaussian(R) 09 system (copyright 2009, Gaussian, Inc.),
 the Gaussian(R) 03 system (copyright 2003, Gaussian, Inc.),
 the Gaussian(R) 98 system (copyright 1998, Gaussian, Inc.),
 the Gaussian(R) 94 system (copyright 1995, Gaussian, Inc.),
 the Gaussian 92(TM) system (copyright 1992, Gaussian, Inc.),
 the Gaussian 90(TM) system (copyright 1990, Gaussian, Inc.),
 the Gaussian 88(TM) system (copyright 1988, Gaussian, Inc.),
 the Gaussian 86(TM) system (copyright 1986, Carnegie Mellon
 University), and the Gaussian 82(TM) system (copyright 1983,
 Carnegie Mellon University). Gaussian is a federally registered
 trademark of Gaussian, Inc.
  
 This software contains proprietary and confidential information,
 including trade secrets, belonging to Gaussian, Inc.
  
 This software is provided under written license and may be
 used, copied, transmitted, or stored only in accord with that
 written license.
  
 The following legend is applicable only to US Government
 contracts under FAR:
  
                    RESTRICTED RIGHTS LEGEND
  
 Use, reproduction and disclosure by the US Government is
 subject to restrictions as set forth in subparagraphs (a)
 and (c) of the Commercial Computer Software - Restricted
 Rights clause in FAR 52.227-19.
  
 Gaussian, Inc.
 340 Quinnipiac St., Bldg. 40, Wallingford CT 06492
  
  
 ---------------------------------------------------------------
 Warning -- This program may not be used in any manner that
 competes with the business of Gaussian, Inc. or will provide
 assistance to any competitor of Gaussian, Inc.  The licensee
 of this program is prohibited from giving any competitor of
 Gaussian, Inc. access to this program.  By using this program,
 the user acknowledges that Gaussian, Inc. is engaged in the
 business of creating and licensing software in the field of
 computational chemistry and represents and warrants to the
 licensee that it is not a competitor of Gaussian, Inc. and that
 it will not use this program in any manner prohibited above.
 ---------------------------------------------------------------
  

 Cite this work as:
 Gaussian 16, Revision A.03,
 M. J. Frisch, G. W. Trucks, H. B. Schlegel, G. E. Scuseria, 
 M. A. Robb, J. R. Cheeseman, G. Scalmani, V. Barone, 
 G. A. Petersson, H. Nakatsuji, X. Li, M. Caricato, A. V. Marenich, 
 J. Bloino, B. G. Janesko, R. Gomperts, B. Mennucci, H. P. Hratchian, 
 J. V. Ortiz, A. F. Izmaylov, J. L. Sonnenberg, D. Williams-Young, 
 F. Ding, F. Lipparini, F. Egidi, J. Goings, B. Peng, A. Petrone, 
 T. Henderson, D. Ranasinghe, V. G. Zakrzewski, J. Gao, N. Rega, 
 G. Zheng, W. Liang, M. Hada, M. Ehara, K. Toyota, R. Fukuda, 
 J. Hasegawa, M. Ishida, T. Nakajima, Y. Honda, O. Kitao, H. Nakai, 
 T. Vreven, K. Throssell, J. A. Montgomery, Jr., J. E. Peralta, 
 F. Ogliaro, M. J. Bearpark, J. J. Heyd, E. N. Brothers, K. N. Kudin, 
 V. N. Staroverov, T. A. Keith, R. Kobayashi, J. Normand, 
 K. Raghavachari, A. P. Rendell, J. C. Burant, S. S. Iyengar, 
 J. Tomasi, M. Cossi, J. M. Millam, M. Klene, C. Adamo, R. Cammi, 
 J. W. Ochterski, R. L. Martin, K. Morokuma, O. Farkas, 
 J. B. Foresman, and D. J. Fox, Gaussian, Inc., Wallingford CT, 2016.
 
 ******************************************
 Gaussian 16:  ES64L-G16RevA.03 25-Dec-2016
                19-May-2023 
 ******************************************
 %chk=OCCdNC1dCCdCCqOrdCqOrCdC1.chk
 %NProcShared=20
 Will use up to   20 processors via shared memory.
 -----------------------------
 # opt freq b3lyp/6-31g(2df,p)
 -----------------------------
 1/18=20,19=15,26=3,38=1/1,3;
 2/9=110,12=2,17=6,18=5,40=1/2;
 3/5=1,6=6,7=104,11=2,25=1,30=1,71=1,74=-5/1,2,3;
 4//1;
 5/5=2,38=5/2;
 6/7=2,8=2,9=2,10=2,28=1/1;
 7//1,2,3,16;
 1/18=20,19=15,26=3/3(2);
 2/9=110/2;
 99//99;
 2/9=110/2;
 3/5=1,6=6,7=104,11=2,25=1,30=1,71=1,74=-5/1,2,3;
 4/5=5,16=3,69=1/1;
 5/5=2,38=5/2;
 7//1,2,3,16;
 1/18=20,19=15,26=3/3(-5);
 2/9=110/2;
 6/7=2,8=2,9=2,10=2,19=2,28=1/1;
 99/9=1/99;
 -------------------
 Title Card Required
 -------------------
 Symbolic Z-matrix:
 Charge =  0 Multiplicity = 1
 O                     1.10748  -0.10628  -0.06484 
 C                     2.52586  -0.10388  -0.05333 
 C                     3.08162  -1.34097  -0.73276 
 N                     4.35999  -1.48069  -0.9222 
 C                     4.75804  -2.68442  -1.45662 
 C                     4.3388   -3.18893  -2.63653 
 C                     4.6948   -4.51199  -3.13205 
 C                     4.34477  -5.65587  -2.51453 
 C                     3.61001  -5.69267  -1.25955 
 O                     2.31994  -6.18842  -1.32094 
 C                     4.09742  -5.20155  -0.11055 
 O                     3.34671  -5.14383   1.04366 
 C                     5.39701  -4.57425   0.00287 
 C                     5.69951  -3.41929  -0.61716 
 H                     0.82065   0.6965    0.40599 
 H                     2.86838  -0.0849    0.98592 
 H                     2.88272   0.78838  -0.57394 
 H                     2.3397   -2.10828  -1.02633 
 H                     3.65188  -2.62303  -3.25748 
 H                     5.31417  -4.53962  -4.02517 
 H                     4.69121  -6.61185  -2.8981 
 H                     2.12414  -6.38702  -2.25286 
 H                     2.45714  -5.44665   0.77815 
 H                     6.14278  -5.10874   0.58146 
 H                     6.70231  -3.00777  -0.54933 
 

 GradGradGradGradGradGradGradGradGradGradGradGradGradGradGradGradGradGrad
 Berny optimization.
 Initialization pass.
                           ----------------------------
                           !    Initial Parameters    !
                           ! (Angstroms and Degrees)  !
 --------------------------                            --------------------------
 ! Name  Definition              Value          Derivative Info.                !
 --------------------------------------------------------------------------------
 ! R1    R(1,2)                  1.4184         estimate D2E/DX2                !
 ! R2    R(1,15)                 0.9739         estimate D2E/DX2                !
 ! R3    R(2,3)                  1.5169         estimate D2E/DX2                !
 ! R4    R(2,16)                 1.0944         estimate D2E/DX2                !
 ! R5    R(2,17)                 1.0929         estimate D2E/DX2                !
 ! R6    R(3,4)                  1.2999         estimate D2E/DX2                !
 ! R7    R(3,18)                 1.107          estimate D2E/DX2                !
 ! R8    R(4,5)                  1.3759         estimate D2E/DX2                !
 ! R9    R(5,6)                  1.35           estimate D2E/DX2                !
 ! R10   R(5,14)                 1.4598         estimate D2E/DX2                !
 ! R11   R(6,7)                  1.457          estimate D2E/DX2                !
 ! R12   R(6,19)                 1.0852         estimate D2E/DX2                !
 ! R13   R(7,8)                  1.3462         estimate D2E/DX2                !
 ! R14   R(7,20)                 1.0872         estimate D2E/DX2                !
 ! R15   R(8,9)                  1.4547         estimate D2E/DX2                !
 ! R16   R(8,21)                 1.0868         estimate D2E/DX2                !
 ! R17   R(9,10)                 1.3834         estimate D2E/DX2                !
 ! R18   R(9,11)                 1.3413         estimate D2E/DX2                !
 ! R19   R(10,22)                0.9728         estimate D2E/DX2                !
 ! R20   R(11,12)                1.3781         estimate D2E/DX2                !
 ! R21   R(11,13)                1.4475         estimate D2E/DX2                !
 ! R22   R(12,23)                0.9765         estimate D2E/DX2                !
 ! R23   R(13,14)                1.3453         estimate D2E/DX2                !
 ! R24   R(13,24)                1.0847         estimate D2E/DX2                !
 ! R25   R(14,25)                1.0861         estimate D2E/DX2                !
 ! A1    A(2,1,15)             106.8101         estimate D2E/DX2                !
 ! A2    A(1,2,3)              111.1837         estimate D2E/DX2                !
 ! A3    A(1,2,16)             108.7052         estimate D2E/DX2                !
 ! A4    A(1,2,17)             108.9062         estimate D2E/DX2                !
 ! A5    A(3,2,16)             108.9545         estimate D2E/DX2                !
 ! A6    A(3,2,17)             109.4399         estimate D2E/DX2                !
 ! A7    A(16,2,17)            109.6325         estimate D2E/DX2                !
 ! A8    A(2,3,4)              120.8819         estimate D2E/DX2                !
 ! A9    A(2,3,18)             116.0106         estimate D2E/DX2                !
 ! A10   A(4,3,18)             123.092          estimate D2E/DX2                !
 ! A11   A(3,4,5)              115.7963         estimate D2E/DX2                !
 ! A12   A(4,5,6)              125.2117         estimate D2E/DX2                !
 ! A13   A(4,5,14)             113.8056         estimate D2E/DX2                !
 ! A14   A(6,5,14)             120.9805         estimate D2E/DX2                !
 ! A15   A(5,6,7)              124.1069         estimate D2E/DX2                !
 ! A16   A(5,6,19)             120.119          estimate D2E/DX2                !
 ! A17   A(7,6,19)             115.6961         estimate D2E/DX2                !
 ! A18   A(6,7,8)              123.5086         estimate D2E/DX2                !
 ! A19   A(6,7,20)             116.2099         estimate D2E/DX2                !
 ! A20   A(8,7,20)             120.2214         estimate D2E/DX2                !
 ! A21   A(7,8,9)              123.2674         estimate D2E/DX2                !
 ! A22   A(7,8,21)             120.1761         estimate D2E/DX2                !
 ! A23   A(9,8,21)             116.3113         estimate D2E/DX2                !
 ! A24   A(8,9,10)             116.2183         estimate D2E/DX2                !
 ! A25   A(8,9,11)             123.1085         estimate D2E/DX2                !
 ! A26   A(10,9,11)            120.5381         estimate D2E/DX2                !
 ! A27   A(9,10,22)            107.6606         estimate D2E/DX2                !
 ! A28   A(9,11,12)            122.3351         estimate D2E/DX2                !
 ! A29   A(9,11,13)            123.5089         estimate D2E/DX2                !
 ! A30   A(12,11,13)           113.9102         estimate D2E/DX2                !
 ! A31   A(11,12,23)           104.8057         estimate D2E/DX2                !
 ! A32   A(11,13,14)           122.5345         estimate D2E/DX2                !
 ! A33   A(11,13,24)           116.4566         estimate D2E/DX2                !
 ! A34   A(14,13,24)           120.9483         estimate D2E/DX2                !
 ! A35   A(5,14,13)            123.5167         estimate D2E/DX2                !
 ! A36   A(5,14,25)            116.145          estimate D2E/DX2                !
 ! A37   A(13,14,25)           120.2731         estimate D2E/DX2                !
 ! D1    D(15,1,2,3)           178.4182         estimate D2E/DX2                !
 ! D2    D(15,1,2,16)           58.4844         estimate D2E/DX2                !
 ! D3    D(15,1,2,17)          -60.9162         estimate D2E/DX2                !
 ! D4    D(1,2,3,4)            174.5327         estimate D2E/DX2                !
 ! D5    D(1,2,3,18)            -6.8545         estimate D2E/DX2                !
 ! D6    D(16,2,3,4)           -65.6815         estimate D2E/DX2                !
 ! D7    D(16,2,3,18)          112.9312         estimate D2E/DX2                !
 ! D8    D(17,2,3,4)            54.1821         estimate D2E/DX2                !
 ! D9    D(17,2,3,18)         -127.2052         estimate D2E/DX2                !
 ! D10   D(2,3,4,5)            175.3314         estimate D2E/DX2                !
 ! D11   D(18,3,4,5)            -3.1804         estimate D2E/DX2                !
 ! D12   D(3,4,5,6)             58.094          estimate D2E/DX2                !
 ! D13   D(3,4,5,14)          -121.378          estimate D2E/DX2                !
 ! D14   D(4,5,6,7)           -175.0298         estimate D2E/DX2                !
 ! D15   D(4,5,6,19)             1.6177         estimate D2E/DX2                !
 ! D16   D(14,5,6,7)             4.4067         estimate D2E/DX2                !
 ! D17   D(14,5,6,19)         -178.9458         estimate D2E/DX2                !
 ! D18   D(4,5,14,13)          111.8704         estimate D2E/DX2                !
 ! D19   D(4,5,14,25)          -71.0663         estimate D2E/DX2                !
 ! D20   D(6,5,14,13)          -67.6264         estimate D2E/DX2                !
 ! D21   D(6,5,14,25)          109.437          estimate D2E/DX2                !
 ! D22   D(5,6,7,8)             63.1153         estimate D2E/DX2                !
 ! D23   D(5,6,7,20)          -114.0637         estimate D2E/DX2                !
 ! D24   D(19,6,7,8)          -113.6667         estimate D2E/DX2                !
 ! D25   D(19,6,7,20)           69.1543         estimate D2E/DX2                !
 ! D26   D(6,7,8,9)             -2.125          estimate D2E/DX2                !
 ! D27   D(6,7,8,21)          -176.2222         estimate D2E/DX2                !
 ! D28   D(20,7,8,9)           174.9459         estimate D2E/DX2                !
 ! D29   D(20,7,8,21)            0.8487         estimate D2E/DX2                !
 ! D30   D(7,8,9,10)           112.2695         estimate D2E/DX2                !
 ! D31   D(7,8,9,11)           -63.5192         estimate D2E/DX2                !
 ! D32   D(21,8,9,10)          -73.4224         estimate D2E/DX2                !
 ! D33   D(21,8,9,11)          110.7889         estimate D2E/DX2                !
 ! D34   D(8,9,10,22)           -2.9794         estimate D2E/DX2                !
 ! D35   D(11,9,10,22)         172.9251         estimate D2E/DX2                !
 ! D36   D(8,9,11,12)          174.4915         estimate D2E/DX2                !
 ! D37   D(8,9,11,13)            0.5363         estimate D2E/DX2                !
 ! D38   D(10,9,11,12)          -1.1216         estimate D2E/DX2                !
 ! D39   D(10,9,11,13)        -175.0769         estimate D2E/DX2                !
 ! D40   D(9,11,12,23)          -4.6318         estimate D2E/DX2                !
 ! D41   D(13,11,12,23)        169.8567         estimate D2E/DX2                !
 ! D42   D(9,11,13,14)          65.1278         estimate D2E/DX2                !
 ! D43   D(9,11,13,24)        -112.0637         estimate D2E/DX2                !
 ! D44   D(12,11,13,14)       -109.2869         estimate D2E/DX2                !
 ! D45   D(12,11,13,24)         73.5217         estimate D2E/DX2                !
 ! D46   D(11,13,14,5)           0.1765         estimate D2E/DX2                !
 ! D47   D(11,13,14,25)       -176.7709         estimate D2E/DX2                !
 ! D48   D(24,13,14,5)         177.2446         estimate D2E/DX2                !
 ! D49   D(24,13,14,25)          0.2971         estimate D2E/DX2                !
 --------------------------------------------------------------------------------
 Trust Radius=3.00D-01 FncErr=1.00D-07 GrdErr=1.00D-06 EigMax=2.50D+02 EigMin=1.00D-04
 Number of steps in this run=    121 maximum allowed number of steps=    150.
 GradGradGradGradGradGradGradGradGradGradGradGradGradGradGradGradGradGrad

                          Input orientation:                          
 ---------------------------------------------------------------------
 Center     Atomic      Atomic             Coordinates (Angstroms)
 Number     Number       Type             X           Y           Z
 ---------------------------------------------------------------------
      1          8           0        1.107480   -0.106280   -0.064840
      2          6           0        2.525860   -0.103880   -0.053330
      3          6           0        3.081620   -1.340970   -0.732760
      4          7           0        4.359990   -1.480690   -0.922200
      5          6           0        4.758040   -2.684420   -1.456620
      6          6           0        4.338800   -3.188930   -2.636530
      7          6           0        4.694800   -4.511990   -3.132050
      8          6           0        4.344770   -5.655870   -2.514530
      9          6           0        3.610010   -5.692670   -1.259550
     10          8           0        2.319940   -6.188420   -1.320940
     11          6           0        4.097420   -5.201550   -0.110550
     12          8           0        3.346710   -5.143830    1.043660
     13          6           0        5.397010   -4.574250    0.002870
     14          6           0        5.699510   -3.419290   -0.617160
     15          1           0        0.820650    0.696500    0.405990
     16          1           0        2.868380   -0.084900    0.985920
     17          1           0        2.882720    0.788380   -0.573940
     18          1           0        2.339700   -2.108280   -1.026330
     19          1           0        3.651880   -2.623030   -3.257480
     20          1           0        5.314170   -4.539620   -4.025170
     21          1           0        4.691210   -6.611850   -2.898100
     22          1           0        2.124140   -6.387020   -2.252860
     23          1           0        2.457140   -5.446650    0.778150
     24          1           0        6.142780   -5.108740    0.581460
     25          1           0        6.702310   -3.007770   -0.549330
 ---------------------------------------------------------------------
                    Distance matrix (angstroms):
                    1          2          3          4          5
     1  O    0.000000
     2  C    1.418429   0.000000
     3  C    2.422355   1.516867   0.000000
     4  N    3.633578   2.452463   1.299861   0.000000
     5  C    4.680860   3.689314   2.266984   1.375869   0.000000
     6  C    5.153421   4.413299   2.935949   2.420219   1.349993
     7  C    6.456541   5.797780   4.291190   3.766207   2.480137
     8  C    6.875971   6.339600   4.836178   4.468543   3.181113
     9  C    6.236805   5.819357   4.415201   4.291509   3.225892
    10  O    6.327738   6.218590   4.942053   5.146214   4.270920
    11  C    5.907927   5.334727   4.040182   3.817397   2.929892
    12  O    5.623152   5.222861   4.205673   4.279011   3.780470
    13  C    6.194143   5.313273   4.044290   3.391353   2.471811
    14  C    5.689273   4.624057   3.344567   2.376033   1.459826
    15  H    0.973862   1.938898   3.249619   4.362473   5.513889
    16  H    2.050688   1.094404   2.139403   2.795363   4.036622
    17  H    2.052091   1.092937   2.144508   2.729888   4.044291
    18  H    2.539849   2.235845   1.106975   2.118085   2.522985
    19  H    4.795931   4.228548   2.888440   2.694419   2.114345
    20  H    7.282510   6.574646   5.104469   4.460486   3.216908
    21  H    7.949398   7.425303   5.921288   5.508420   4.184141
    22  H    6.728204   6.669120   5.356313   5.553535   4.613098
    23  H    5.572411   5.407520   4.419212   4.716022   4.232996
    24  H    7.127170   6.207551   5.029311   4.313013   3.456675
    25  H    6.321036   5.110903   3.990146   2.820898   2.169773
                    6          7          8          9         10
     6  C    0.000000
     7  C    1.456971   0.000000
     8  C    2.469962   1.346222   0.000000
     9  C    2.948885   2.465163   1.454717   0.000000
    10  O    3.847533   3.424981   2.410021   1.383408   0.000000
    11  C    3.238746   3.156235   2.459006   1.341256   2.366092
    12  O    4.283652   4.433184   3.730821   2.382295   2.781503
    13  C    3.163124   3.213207   2.935032   2.457221   3.718384
    14  C    2.445905   2.920292   3.230731   3.153876   4.425481
    15  H    6.060600   7.392911   7.829525   7.167709   7.254811
    16  H    4.991922   6.316060   6.743040   6.085987   6.547927
    17  H    4.710992   6.158042   6.887078   6.557669   7.039209
    18  H    2.785130   3.969682   4.338253   3.809978   4.090810
    19  H    1.085210   2.161385   3.198467   3.662809   4.270393
    20  H    2.168878   1.087219   2.113713   3.447077   4.358534
    21  H    3.450941   2.112855   1.086759   2.167656   2.879175
    22  H    3.908926   3.301061   2.352498   1.917445   0.972756
    23  H    4.505328   4.601128   3.801140   2.354115   2.230521
    24  H    4.158783   4.030250   3.621788   3.185156   4.404423
    25  H    3.158386   3.600447   4.053695   4.156371   5.469651
                   11         12         13         14         15
    11  C    0.000000
    12  O    1.378078   0.000000
    13  C    1.447516   2.368838   0.000000
    14  C    2.449448   3.356789   1.345316   0.000000
    15  H    6.766907   6.395081   6.991880   6.464506   0.000000
    16  H    5.375211   5.081821   5.245438   4.658682   2.267180
    17  H    6.129395   6.166282   5.950812   5.063661   2.284915
    18  H    3.673765   3.809658   4.060469   3.629668   3.496547
    19  H    4.092730   4.994734   4.181222   3.434837   5.697030
    20  H    4.152455   5.470741   4.029041   3.608069   8.200235
    21  H    3.179932   4.415907   3.614636   4.051147   8.905629
    22  H    3.144625   3.729242   4.368768   4.926074   7.677553
    23  H    1.881590   0.976489   3.163064   4.070632   6.368272
    24  H    2.161247   2.834231   1.084721   2.118353   7.877606
    25  H    3.433752   4.284906   2.112485   1.086074   7.016279
                   16         17         18         19         20
    16  H    0.000000
    17  H    1.787732   0.000000
    18  H    2.902192   2.981638   0.000000
    19  H    5.006238   4.408028   2.639093   0.000000
    20  H    7.137047   6.797832   4.873595   2.650636   0.000000
    21  H    7.810851   7.964657   5.414357   4.137638   2.439775
    22  H    7.124627   7.408143   4.456283   4.184599   4.090264
    23  H    5.381510   6.394127   3.796664   5.068189   5.661908
    24  H    6.010345   6.836590   5.104034   5.207763   4.715033
    25  H    5.059563   5.385223   4.479841   4.097222   4.044127
                   21         22         23         24         25
    21  H    0.000000
    22  H    2.656451   0.000000
    23  H    4.456857   3.190957   0.000000
    24  H    4.058785   5.081027   3.706321   0.000000
    25  H    4.748751   5.939780   5.072653   2.450680   0.000000
 Stoichiometry    C10H11NO3
 Framework group  C1[X(C10H11NO3)]
 Deg. of freedom    69
 Full point group                 C1      NOp   1
 Largest Abelian subgroup         C1      NOp   1
 Largest concise Abelian subgroup C1      NOp   1
                         Standard orientation:                         
 ---------------------------------------------------------------------
 Center     Atomic      Atomic             Coordinates (Angstroms)
 Number     Number       Type             X           Y           Z
 ---------------------------------------------------------------------
      1          8           0        4.115236    1.155260   -0.841531
      2          6           0        3.684120    0.151633    0.063351
      3          6           0        2.225199   -0.198145   -0.160459
      4          7           0        1.664121   -1.170498    0.494797
      5          6           0        0.314130   -1.333322    0.284967
      6          6           0       -0.265936   -1.557290   -0.913299
      7          6           0       -1.706045   -1.623168   -1.124273
      8          6           0       -2.536486   -0.585016   -0.912325
      9          6           0       -2.089941    0.703627   -0.406164
     10          8           0       -2.167042    1.766691   -1.288074
     11          6           0       -1.549545    0.865448    0.810699
     12          8           0       -1.030706    2.070436    1.232489
     13          6           0       -1.342492   -0.221385    1.744094
     14          6           0       -0.487660   -1.231266    1.500619
     15          1           0        5.045377    1.347633   -0.626496
     16          1           0        3.807769    0.523715    1.085108
     17          1           0        4.298228   -0.741156   -0.079168
     18          1           0        1.680065    0.435025   -0.886625
     19          1           0        0.344982   -1.647706   -1.805646
     20          1           0       -2.103502   -2.589206   -1.425678
     21          1           0       -3.609632   -0.711421   -1.028185
     22          1           0       -2.480938    1.420273   -2.141138
     23          1           0       -1.092948    2.655427    0.453103
     24          1           0       -1.950895   -0.209750    2.642053
     25          1           0       -0.399317   -2.055138    2.202750
 ---------------------------------------------------------------------
 Rotational constants (GHZ):           0.9972370           0.4449465           0.4073515
 Standard basis: 6-31G(2df,p) (6D, 7F)
 There are   489 symmetry adapted cartesian basis functions of A   symmetry.
 There are   447 symmetry adapted basis functions of A   symmetry.
   447 basis functions,   693 primitive gaussians,   489 cartesian basis functions
    51 alpha electrons       51 beta electrons
       nuclear repulsion energy       865.2392083728 Hartrees.
 NAtoms=   25 NActive=   25 NUniq=   25 SFac= 1.00D+00 NAtFMM=   60 NAOKFM=F Big=F
 Integral buffers will be    131072 words long.
 Raffenetti 2 integral format.
 Two-electron integral symmetry is turned on.
 One-electron integrals computed using PRISM.
 PrsmSu:  requested number of processors reduced to:  12 ShMem   1 Linda.
 NBasis=   447 RedAO= T EigKep=  2.04D-04  NBF=   447
 NBsUse=   447 1.00D-06 EigRej= -1.00D+00 NBFU=   447
 ExpMin= 1.61D-01 ExpMax= 5.48D+03 ExpMxC= 8.25D+02 IAcc=3 IRadAn=         5 AccDes= 0.00D+00
 Harris functional with IExCor=  402 and IRadAn=       5 diagonalized for initial guess.
 HarFok:  IExCor=  402 AccDes= 0.00D+00 IRadAn=         5 IDoV= 1 UseB2=F ITyADJ=14
 ICtDFT=  3500011 ScaDFX=  1.000000  1.000000  1.000000  1.000000
 FoFCou: FMM=F IPFlag=           0 FMFlag=      100000 FMFlg1=           0
         NFxFlg=           0 DoJE=T BraDBF=F KetDBF=T FulRan=T
         wScrn=  0.000000 ICntrl=       500 IOpCl=  0 I1Cent=   200000004 NGrid=           0
         NMat0=    1 NMatS0=      1 NMatT0=    0 NMatD0=    1 NMtDS0=    0 NMtDT0=    0
 Petite list used in FoFCou.
 Requested convergence on RMS density matrix=1.00D-08 within 128 cycles.
 Requested convergence on MAX density matrix=1.00D-06.
 Requested convergence on             energy=1.00D-06.
 No special actions if energy rises.
 Integral accuracy reduced to 1.0D-05 until final iterations.
 Initial convergence to 1.0D-05 achieved.  Increase integral accuracy.
 SCF Done:  E(RB3LYP) =  -668.018222095     A.U. after   14 cycles
            NFock= 14  Conv=0.54D-08     -V/T= 2.0070

 **********************************************************************

            Population analysis using the SCF density.

 **********************************************************************

 Orbital symmetries:
       Occupied  (A) (A) (A) (A) (A) (A) (A) (A) (A) (A) (A) (A)
                 (A) (A) (A) (A) (A) (A) (A) (A) (A) (A) (A) (A)
                 (A) (A) (A) (A) (A) (A) (A) (A) (A) (A) (A) (A)
                 (A) (A) (A) (A) (A) (A) (A) (A) (A) (A) (A) (A)
                 (A) (A) (A)
       Virtual   (A) (A) (A) (A) (A) (A) (A) (A) (A) (A) (A) (A)
                 (A) (A) (A) (A) (A) (A) (A) (A) (A) (A) (A) (A)
                 (A) (A) (A) (A) (A) (A) (A) (A) (A) (A) (A) (A)
                 (A) (A) (A) (A) (A) (A) (A) (A) (A) (A) (A) (A)
                 (A) (A) (A) (A) (A) (A) (A) (A) (A) (A) (A) (A)
                 (A) (A) (A) (A) (A) (A) (A) (A) (A) (A) (A) (A)
                 (A) (A) (A) (A) (A) (A) (A) (A) (A) (A) (A) (A)
                 (A) (A) (A) (A) (A) (A) (A) (A) (A) (A) (A) (A)
                 (A) (A) (A) (A) (A) (A) (A) (A) (A) (A) (A) (A)
                 (A) (A) (A) (A) (A) (A) (A) (A) (A) (A) (A) (A)
                 (A) (A) (A) (A) (A) (A) (A) (A) (A) (A) (A) (A)
                 (A) (A) (A) (A) (A) (A) (A) (A) (A) (A) (A) (A)
                 (A) (A) (A) (A) (A) (A) (A) (A) (A) (A) (A) (A)
                 (A) (A) (A) (A) (A) (A) (A) (A) (A) (A) (A) (A)
                 (A) (A) (A) (A) (A) (A) (A) (A) (A) (A) (A) (A)
                 (A) (A) (A) (A) (A) (A) (A) (A) (A) (A) (A) (A)
                 (A) (A) (A) (A) (A) (A) (A) (A) (A) (A) (A) (A)
                 (A) (A) (A) (A) (A) (A) (A) (A) (A) (A) (A) (A)
                 (A) (A) (A) (A) (A) (A) (A) (A) (A) (A) (A) (A)
                 (A) (A) (A) (A) (A) (A) (A) (A) (A) (A) (A) (A)
                 (A) (A) (A) (A) (A) (A) (A) (A) (A) (A) (A) (A)
                 (A) (A) (A) (A) (A) (A) (A) (A) (A) (A) (A) (A)
                 (A) (A) (A) (A) (A) (A) (A) (A) (A) (A) (A) (A)
                 (A) (A) (A) (A) (A) (A) (A) (A) (A) (A) (A) (A)
                 (A) (A) (A) (A) (A) (A) (A) (A) (A) (A) (A) (A)
                 (A) (A) (A) (A) (A) (A) (A) (A) (A) (A) (A) (A)
                 (A) (A) (A) (A) (A) (A) (A) (A) (A) (A) (A) (A)
                 (A) (A) (A) (A) (A) (A) (A) (A) (A) (A) (A) (A)
                 (A) (A) (A) (A) (A) (A) (A) (A) (A) (A) (A) (A)
                 (A) (A) (A) (A) (A) (A) (A) (A) (A) (A) (A) (A)
                 (A) (A) (A) (A) (A) (A) (A) (A) (A) (A) (A) (A)
                 (A) (A) (A) (A) (A) (A) (A) (A) (A) (A) (A) (A)
                 (A) (A) (A) (A) (A) (A) (A) (A) (A) (A) (A) (A)
 The electronic state is 1-A.
 Alpha  occ. eigenvalues --  -19.16365 -19.14971 -19.14302 -14.33497 -10.24018
 Alpha  occ. eigenvalues --  -10.23921 -10.21797 -10.21707 -10.21477 -10.19235
 Alpha  occ. eigenvalues --  -10.18737 -10.18678 -10.18441 -10.17738  -1.05227
 Alpha  occ. eigenvalues --   -1.02577  -1.02373  -0.93809  -0.82920  -0.77820
 Alpha  occ. eigenvalues --   -0.76587  -0.71886  -0.68052  -0.65362  -0.59884
 Alpha  occ. eigenvalues --   -0.58181  -0.55587  -0.53324  -0.51984  -0.50062
 Alpha  occ. eigenvalues --   -0.48531  -0.47582  -0.46325  -0.46179  -0.45613
 Alpha  occ. eigenvalues --   -0.43477  -0.41840  -0.40014  -0.38853  -0.37426
 Alpha  occ. eigenvalues --   -0.36054  -0.35000  -0.33976  -0.33774  -0.31862
 Alpha  occ. eigenvalues --   -0.29401  -0.27227  -0.26871  -0.25125  -0.22334
 Alpha  occ. eigenvalues --   -0.18717
 Alpha virt. eigenvalues --   -0.03751  -0.00863   0.01195   0.03502   0.06494
 Alpha virt. eigenvalues --    0.07394   0.08607   0.12209   0.13405   0.13654
 Alpha virt. eigenvalues --    0.14477   0.15636   0.15909   0.17532   0.18160
 Alpha virt. eigenvalues --    0.18519   0.20165   0.21152   0.23626   0.24081
 Alpha virt. eigenvalues --    0.26361   0.28985   0.33224   0.34451   0.36453
 Alpha virt. eigenvalues --    0.38598   0.39063   0.40966   0.41845   0.42360
 Alpha virt. eigenvalues --    0.44638   0.45776   0.47075   0.47634   0.48329
 Alpha virt. eigenvalues --    0.49064   0.49977   0.51831   0.52424   0.53186
 Alpha virt. eigenvalues --    0.53904   0.54366   0.55802   0.56405   0.56830
 Alpha virt. eigenvalues --    0.58289   0.59161   0.61290   0.61739   0.62062
 Alpha virt. eigenvalues --    0.63012   0.63214   0.64355   0.65123   0.66436
 Alpha virt. eigenvalues --    0.67454   0.68410   0.69595   0.70124   0.71464
 Alpha virt. eigenvalues --    0.72436   0.73252   0.73955   0.74755   0.76446
 Alpha virt. eigenvalues --    0.76992   0.78252   0.78579   0.79794   0.80138
 Alpha virt. eigenvalues --    0.80509   0.81531   0.83250   0.83932   0.84889
 Alpha virt. eigenvalues --    0.85746   0.86925   0.87830   0.88377   0.89808
 Alpha virt. eigenvalues --    0.90439   0.91455   0.92104   0.93240   0.94302
 Alpha virt. eigenvalues --    0.95033   0.95276   0.95705   0.96435   0.97592
 Alpha virt. eigenvalues --    0.98416   0.99183   1.00933   1.03254   1.04033
 Alpha virt. eigenvalues --    1.06225   1.08954   1.09333   1.12096   1.12917
 Alpha virt. eigenvalues --    1.14007   1.15617   1.16587   1.20774   1.21672
 Alpha virt. eigenvalues --    1.22143   1.24186   1.24784   1.25671   1.26678
 Alpha virt. eigenvalues --    1.27609   1.31245   1.33629   1.34971   1.37980
 Alpha virt. eigenvalues --    1.38723   1.41043   1.41856   1.42146   1.43381
 Alpha virt. eigenvalues --    1.44117   1.44276   1.45693   1.46445   1.49341
 Alpha virt. eigenvalues --    1.50377   1.51018   1.52101   1.53452   1.55150
 Alpha virt. eigenvalues --    1.55782   1.57767   1.60702   1.62974   1.64232
 Alpha virt. eigenvalues --    1.66554   1.68054   1.69040   1.71205   1.72765
 Alpha virt. eigenvalues --    1.75155   1.76701   1.78628   1.80904   1.81305
 Alpha virt. eigenvalues --    1.83407   1.84638   1.85070   1.87194   1.89895
 Alpha virt. eigenvalues --    1.91281   1.93173   1.96083   1.97081   1.98551
 Alpha virt. eigenvalues --    2.03627   2.05899   2.08359   2.11858   2.13124
 Alpha virt. eigenvalues --    2.14496   2.17663   2.18421   2.19548   2.22095
 Alpha virt. eigenvalues --    2.23075   2.24382   2.26564   2.29506   2.30781
 Alpha virt. eigenvalues --    2.35745   2.37511   2.41079   2.44459   2.46444
 Alpha virt. eigenvalues --    2.47431   2.48874   2.49312   2.52832   2.54301
 Alpha virt. eigenvalues --    2.55433   2.56614   2.59664   2.61836   2.64191
 Alpha virt. eigenvalues --    2.67967   2.68687   2.69059   2.72798   2.77817
 Alpha virt. eigenvalues --    2.79269   2.80982   2.81955   2.84197   2.84608
 Alpha virt. eigenvalues --    2.85680   2.88564   2.88751   2.89628   2.91042
 Alpha virt. eigenvalues --    2.92551   2.93574   2.94745   2.97213   2.98900
 Alpha virt. eigenvalues --    2.99373   3.00921   3.01795   3.04105   3.06126
 Alpha virt. eigenvalues --    3.07232   3.07585   3.10625   3.12605   3.13396
 Alpha virt. eigenvalues --    3.14572   3.16908   3.17053   3.17650   3.19047
 Alpha virt. eigenvalues --    3.20813   3.22961   3.23106   3.25332   3.26438
 Alpha virt. eigenvalues --    3.29298   3.30218   3.31120   3.31996   3.33872
 Alpha virt. eigenvalues --    3.34965   3.35925   3.36095   3.37262   3.38684
 Alpha virt. eigenvalues --    3.39545   3.41233   3.42675   3.43304   3.45112
 Alpha virt. eigenvalues --    3.48530   3.50984   3.52556   3.55168   3.59711
 Alpha virt. eigenvalues --    3.60507   3.63620   3.63705   3.64846   3.68936
 Alpha virt. eigenvalues --    3.70097   3.71643   3.73080   3.75553   3.78570
 Alpha virt. eigenvalues --    3.79496   3.80607   3.82640   3.84623   3.88790
 Alpha virt. eigenvalues --    3.91536   3.92875   3.94593   4.00169   4.02165
 Alpha virt. eigenvalues --    4.02892   4.04096   4.06100   4.11081   4.12875
 Alpha virt. eigenvalues --    4.13551   4.15238   4.16535   4.17150   4.20148
 Alpha virt. eigenvalues --    4.24073   4.25665   4.27546   4.28623   4.28966
 Alpha virt. eigenvalues --    4.30602   4.31797   4.34570   4.35148   4.36337
 Alpha virt. eigenvalues --    4.37617   4.39772   4.40835   4.42888   4.44219
 Alpha virt. eigenvalues --    4.44916   4.46197   4.47394   4.47897   4.48998
 Alpha virt. eigenvalues --    4.50077   4.51153   4.52480   4.54145   4.55362
 Alpha virt. eigenvalues --    4.56376   4.57716   4.60214   4.61066   4.62366
 Alpha virt. eigenvalues --    4.62669   4.65333   4.65896   4.66732   4.67659
 Alpha virt. eigenvalues --    4.69076   4.70801   4.71362   4.73158   4.75064
 Alpha virt. eigenvalues --    4.76035   4.77027   4.77748   4.78196   4.79254
 Alpha virt. eigenvalues --    4.80636   4.83763   4.87446   4.89969   4.91271
 Alpha virt. eigenvalues --    4.92967   4.95471   5.00170   5.01757   5.02879
 Alpha virt. eigenvalues --    5.07322   5.10723   5.14304   5.16044   5.17669
 Alpha virt. eigenvalues --    5.19552   5.20135   5.21743   5.23485   5.25503
 Alpha virt. eigenvalues --    5.28975   5.31593   5.33697   5.34409   5.37020
 Alpha virt. eigenvalues --    5.40016   5.40489   5.42980   5.43981   5.44619
 Alpha virt. eigenvalues --    5.44815   5.46418   5.47978   5.49482   5.49748
 Alpha virt. eigenvalues --    5.54940   5.58049   5.64850   5.66560   5.71782
 Alpha virt. eigenvalues --    5.75934   5.78266   5.79109   5.80564   5.80997
 Alpha virt. eigenvalues --    5.82970   5.88057   5.92662   5.95693   5.99387
 Alpha virt. eigenvalues --    6.03734   6.06616   6.15833   6.19544   6.26995
 Alpha virt. eigenvalues --    6.48892   6.50093   7.00973   7.03476   7.17784
 Alpha virt. eigenvalues --    7.61153   9.93384  10.56810  10.74587  10.76960
 Alpha virt. eigenvalues --   11.00866  11.35639  11.66279  11.84491  12.04613
 Alpha virt. eigenvalues --   12.08546  12.70778  13.08732  13.16595  13.57712
 Alpha virt. eigenvalues --   15.41648
          Condensed to atoms (all electrons):
               1          2          3          4          5          6
     1  O    7.871768   0.334863  -0.021942   0.000346   0.000014  -0.000004
     2  C    0.334863   4.855394   0.357051  -0.028234   0.002135   0.000415
     3  C   -0.021942   0.357051   4.838709   0.606312  -0.096829  -0.003146
     4  N    0.000346  -0.028234   0.606312   6.373229   0.430577  -0.033466
     5  C    0.000014   0.002135  -0.096829   0.430577   4.439239   0.635390
     6  C   -0.000004   0.000415  -0.003146  -0.033466   0.635390   4.957311
     7  C   -0.000000  -0.000007   0.000241   0.004215  -0.010856   0.408087
     8  C   -0.000000   0.000001  -0.000076   0.000461  -0.009448  -0.022983
     9  C    0.000000   0.000000   0.000069  -0.000072   0.001276  -0.012394
    10  O   -0.000000  -0.000000  -0.000016   0.000002  -0.000266   0.000089
    11  C   -0.000000   0.000028   0.000855   0.000101  -0.003006   0.002085
    12  O   -0.000000  -0.000002   0.000154  -0.000153  -0.000179   0.000103
    13  C    0.000000  -0.000070   0.000285  -0.001598  -0.013308  -0.013535
    14  C    0.000001  -0.000479   0.003068  -0.045841   0.390532  -0.021538
    15  H    0.304256  -0.047346   0.005030  -0.000166  -0.000002   0.000000
    16  H   -0.032397   0.355876  -0.026539  -0.000417   0.000085   0.000018
    17  H   -0.032015   0.351845  -0.028828   0.002911   0.000505  -0.000005
    18  H    0.006266  -0.068154   0.352780  -0.055722   0.009565   0.008473
    19  H    0.000004  -0.000203   0.003414  -0.012945  -0.028124   0.346258
    20  H    0.000000   0.000000   0.000014  -0.000132  -0.001809  -0.042937
    21  H   -0.000000   0.000000  -0.000000   0.000003   0.000724   0.004949
    22  H    0.000000  -0.000000   0.000002   0.000000   0.000001   0.000131
    23  H    0.000000  -0.000002   0.000017  -0.000011  -0.000117  -0.000043
    24  H    0.000000   0.000000  -0.000004  -0.000051   0.003928   0.000311
    25  H   -0.000000   0.000022   0.000491   0.002900  -0.041185  -0.000316
               7          8          9         10         11         12
     1  O   -0.000000  -0.000000   0.000000  -0.000000  -0.000000  -0.000000
     2  C   -0.000007   0.000001   0.000000  -0.000000   0.000028  -0.000002
     3  C    0.000241  -0.000076   0.000069  -0.000016   0.000855   0.000154
     4  N    0.004215   0.000461  -0.000072   0.000002   0.000101  -0.000153
     5  C   -0.010856  -0.009448   0.001276  -0.000266  -0.003006  -0.000179
     6  C    0.408087  -0.022983  -0.012394   0.000089   0.002085   0.000103
     7  C    4.821004   0.644263  -0.026231  -0.001055  -0.006471   0.000141
     8  C    0.644263   5.022262   0.380053  -0.055165  -0.031474   0.003478
     9  C   -0.026231   0.380053   4.642935   0.377737   0.587861  -0.025826
    10  O   -0.001055  -0.055165   0.377737   7.839096  -0.023448  -0.006938
    11  C   -0.006471  -0.031474   0.587861  -0.023448   4.587001   0.381186
    12  O    0.000141   0.003478  -0.025826  -0.006938   0.381186   7.813788
    13  C    0.000664  -0.015277  -0.023049   0.001022   0.400677  -0.031087
    14  C   -0.020739   0.000546  -0.013000   0.000250  -0.021369   0.000539
    15  H   -0.000000   0.000000  -0.000000  -0.000000   0.000000  -0.000000
    16  H    0.000000  -0.000000  -0.000000   0.000000  -0.000004   0.000002
    17  H   -0.000001   0.000000   0.000000  -0.000000   0.000000  -0.000000
    18  H   -0.000586  -0.000221   0.000854   0.000044   0.000414   0.000119
    19  H   -0.048872  -0.000604   0.001522  -0.000027  -0.000049   0.000003
    20  H    0.355691  -0.041824   0.003655  -0.000096   0.000507   0.000001
    21  H   -0.044192   0.355015  -0.048364   0.001134  -0.001778  -0.000040
    22  H    0.001511   0.008103  -0.077157   0.321311   0.007727  -0.000086
    23  H    0.000005   0.000589   0.005695   0.015367  -0.085286   0.320091
    24  H   -0.000236   0.000540  -0.000668  -0.000014  -0.045075   0.000163
    25  H    0.000691  -0.000255   0.000228  -0.000000   0.004809  -0.000046
              13         14         15         16         17         18
     1  O    0.000000   0.000001   0.304256  -0.032397  -0.032015   0.006266
     2  C   -0.000070  -0.000479  -0.047346   0.355876   0.351845  -0.068154
     3  C    0.000285   0.003068   0.005030  -0.026539  -0.028828   0.352780
     4  N   -0.001598  -0.045841  -0.000166  -0.000417   0.002911  -0.055722
     5  C   -0.013308   0.390532  -0.000002   0.000085   0.000505   0.009565
     6  C   -0.013535  -0.021538   0.000000   0.000018  -0.000005   0.008473
     7  C    0.000664  -0.020739  -0.000000   0.000000  -0.000001  -0.000586
     8  C   -0.015277   0.000546   0.000000  -0.000000   0.000000  -0.000221
     9  C   -0.023049  -0.013000  -0.000000  -0.000000   0.000000   0.000854
    10  O    0.001022   0.000250  -0.000000   0.000000  -0.000000   0.000044
    11  C    0.400677  -0.021369   0.000000  -0.000004   0.000000   0.000414
    12  O   -0.031087   0.000539  -0.000000   0.000002  -0.000000   0.000119
    13  C    4.874570   0.640157  -0.000000   0.000009   0.000000  -0.000197
    14  C    0.640157   4.905399  -0.000000   0.000091  -0.000006   0.002183
    15  H   -0.000000  -0.000000   0.451314  -0.004528  -0.003916  -0.000348
    16  H    0.000009   0.000091  -0.004528   0.626857  -0.045317   0.004085
    17  H    0.000000  -0.000006  -0.003916  -0.045317   0.633362   0.004829
    18  H   -0.000197   0.002183  -0.000348   0.004085   0.004829   0.608564
    19  H    0.000512   0.006347  -0.000000   0.000008   0.000001   0.003303
    20  H   -0.000241   0.000778   0.000000   0.000000  -0.000000   0.000027
    21  H    0.000624  -0.000272   0.000000   0.000000  -0.000000   0.000001
    22  H   -0.000118  -0.000015  -0.000000  -0.000000   0.000000  -0.000006
    23  H    0.005417   0.000110  -0.000000   0.000000   0.000000   0.000081
    24  H    0.365391  -0.047766  -0.000000   0.000000  -0.000000   0.000004
    25  H   -0.043861   0.357182   0.000000  -0.000001   0.000000   0.000040
              19         20         21         22         23         24
     1  O    0.000004   0.000000  -0.000000   0.000000   0.000000   0.000000
     2  C   -0.000203   0.000000   0.000000  -0.000000  -0.000002   0.000000
     3  C    0.003414   0.000014  -0.000000   0.000002   0.000017  -0.000004
     4  N   -0.012945  -0.000132   0.000003   0.000000  -0.000011  -0.000051
     5  C   -0.028124  -0.001809   0.000724   0.000001  -0.000117   0.003928
     6  C    0.346258  -0.042937   0.004949   0.000131  -0.000043   0.000311
     7  C   -0.048872   0.355691  -0.044192   0.001511   0.000005  -0.000236
     8  C   -0.000604  -0.041824   0.355015   0.008103   0.000589   0.000540
     9  C    0.001522   0.003655  -0.048364  -0.077157   0.005695  -0.000668
    10  O   -0.000027  -0.000096   0.001134   0.321311   0.015367  -0.000014
    11  C   -0.000049   0.000507  -0.001778   0.007727  -0.085286  -0.045075
    12  O    0.000003   0.000001  -0.000040  -0.000086   0.320091   0.000163
    13  C    0.000512  -0.000241   0.000624  -0.000118   0.005417   0.365391
    14  C    0.006347   0.000778  -0.000272  -0.000015   0.000110  -0.047766
    15  H   -0.000000   0.000000   0.000000  -0.000000  -0.000000  -0.000000
    16  H    0.000008   0.000000   0.000000  -0.000000   0.000000   0.000000
    17  H    0.000001  -0.000000  -0.000000   0.000000   0.000000  -0.000000
    18  H    0.003303   0.000027   0.000001  -0.000006   0.000081   0.000004
    19  H    0.638442   0.002256  -0.000196  -0.000075  -0.000005   0.000013
    20  H    0.002256   0.631781  -0.006242  -0.000090   0.000000   0.000020
    21  H   -0.000196  -0.006242   0.638938   0.002282  -0.000033   0.000213
    22  H   -0.000075  -0.000090   0.002282   0.439652  -0.000876   0.000003
    23  H   -0.000005   0.000000  -0.000033  -0.000876   0.436978  -0.000313
    24  H    0.000013   0.000020   0.000213   0.000003  -0.000313   0.627287
    25  H   -0.000257   0.000173   0.000023  -0.000000   0.000008  -0.006698
              25
     1  O   -0.000000
     2  C    0.000022
     3  C    0.000491
     4  N    0.002900
     5  C   -0.041185
     6  C   -0.000316
     7  C    0.000691
     8  C   -0.000255
     9  C    0.000228
    10  O   -0.000000
    11  C    0.004809
    12  O   -0.000046
    13  C   -0.043861
    14  C    0.357182
    15  H    0.000000
    16  H   -0.000001
    17  H    0.000000
    18  H    0.000040
    19  H   -0.000257
    20  H    0.000173
    21  H    0.000023
    22  H   -0.000000
    23  H    0.000008
    24  H   -0.006698
    25  H    0.619092
 Mulliken charges:
               1
     1  O   -0.431160
     2  C   -0.113133
     3  C    0.008888
     4  N   -0.242250
     5  C    0.291157
     6  C   -0.213252
     7  C   -0.077267
     8  C   -0.237983
     9  C    0.224874
    10  O   -0.469027
    11  C    0.244707
    12  O   -0.455413
    13  C   -0.146988
    14  C   -0.136159
    15  H    0.295706
    16  H    0.122172
    17  H    0.116635
    18  H    0.123601
    19  H    0.089273
    20  H    0.098467
    21  H    0.097210
    22  H    0.297700
    23  H    0.302326
    24  H    0.102955
    25  H    0.106960
 Sum of Mulliken charges =  -0.00000
 Mulliken charges with hydrogens summed into heavy atoms:
               1
     1  O   -0.135454
     2  C    0.125674
     3  C    0.132490
     4  N   -0.242250
     5  C    0.291157
     6  C   -0.123978
     7  C    0.021200
     8  C   -0.140773
     9  C    0.224874
    10  O   -0.171327
    11  C    0.244707
    12  O   -0.153087
    13  C   -0.044033
    14  C   -0.029199
 Electronic spatial extent (au):  <R**2>=           2991.1173
 Charge=             -0.0000 electrons
 Dipole moment (field-independent basis, Debye):
    X=              0.7595    Y=             -0.4990    Z=             -1.6059  Tot=              1.8452
 Quadrupole moment (field-independent basis, Debye-Ang):
   XX=            -63.0125   YY=            -81.7281   ZZ=            -78.2742
   XY=              4.2643   XZ=              4.8975   YZ=             -1.0958
 Traceless Quadrupole moment (field-independent basis, Debye-Ang):
   XX=             11.3257   YY=             -7.3899   ZZ=             -3.9359
   XY=              4.2643   XZ=              4.8975   YZ=             -1.0958
 Octapole moment (field-independent basis, Debye-Ang**2):
  XXX=             94.6762  YYY=             25.0307  ZZZ=            -13.2437  XYY=              1.9547
  XXY=             21.0947  XXZ=             -5.2517  XZZ=            -14.3659  YZZ=              1.9906
  YYZ=             -6.4468  XYZ=             10.5771
 Hexadecapole moment (field-independent basis, Debye-Ang**3):
 XXXX=          -1740.4062 YYYY=           -782.9451 ZZZZ=           -560.8602 XXXY=            110.4995
 XXXZ=             43.5289 YYYX=             15.8004 YYYZ=             -6.7946 ZZZX=             16.9248
 ZZZY=            -34.0069 XXYY=           -526.4777 XXZZ=           -480.3975 YYZZ=           -236.8841
 XXYZ=              8.1961 YYXZ=              6.1740 ZZXY=            -11.0029
 N-N= 8.652392083728D+02 E-N=-3.290559518476D+03  KE= 6.633567100760D+02
 PrsmSu:  requested number of processors reduced to:  13 ShMem   1 Linda.
 Calling FoFJK, ICntrl=      2127 FMM=F ISym2X=0 I1Cent= 0 IOpClX= 0 NMat=1 NMatS=1 NMatT=0.
 ***** Axes restored to original set *****
 -------------------------------------------------------------------
 Center     Atomic                   Forces (Hartrees/Bohr)
 Number     Number              X              Y              Z
 -------------------------------------------------------------------
      1        8          -0.006054337    0.002288620    0.001343157
      2        6          -0.003859501    0.000885781   -0.002841868
      3        6           0.021689639    0.004482678   -0.002173158
      4        7          -0.044382673    0.020399815    0.013157878
      5        6          -0.007145818   -0.019635256   -0.020061644
      6        6          -0.005064596    0.006910124    0.007031172
      7        6           0.003925134   -0.011192977    0.002129502
      8        6           0.015862908    0.004754358   -0.007676184
      9        6          -0.001336627    0.007883209    0.000028081
     10        8          -0.004090993   -0.007644169   -0.001857328
     11        6          -0.023436686    0.001134729    0.000115541
     12        8          -0.009758963   -0.009343472   -0.005931223
     13        6           0.017319711    0.011980599   -0.008912561
     14        6           0.012002144   -0.018326513    0.012209613
     15        1           0.002888061   -0.010958766   -0.006249489
     16        1           0.008003840    0.000560403    0.001470884
     17        1           0.008193940    0.002668336    0.000425052
     18        1           0.005894773    0.002603437    0.003197697
     19        1           0.002214631    0.006784777   -0.001669220
     20        1          -0.003294009   -0.004080081   -0.005113568
     21        1          -0.002290637   -0.002034996   -0.006536259
     22        1           0.001573023    0.002673143    0.011122166
     23        1           0.006915178    0.001345004    0.006667878
     24        1           0.003274850    0.003613544    0.004900971
     25        1           0.000957006    0.002247674    0.005222908
 -------------------------------------------------------------------
 Cartesian Forces:  Max     0.044382673 RMS     0.009968653

 GradGradGradGradGradGradGradGradGradGradGradGradGradGradGradGradGradGrad
 Berny optimization.
 FormGI is forming the generalized inverse of G from B-inverse, IUseBI=4.
 Internal  Forces:  Max     0.036582407 RMS     0.007191185
 Search for a local minimum.
 Step number   1 out of a maximum of  121
 All quantities printed in internal units (Hartrees-Bohrs-Radians)
 Mixed Optimization -- RFO/linear search
 Second derivative matrix not updated -- first step.
 ITU=  0
     Eigenvalues ---    0.00543   0.01230   0.01448   0.01722   0.01788
     Eigenvalues ---    0.01832   0.01870   0.01911   0.01982   0.02011
     Eigenvalues ---    0.02104   0.02134   0.02189   0.02321   0.02345
     Eigenvalues ---    0.02751   0.02813   0.02831   0.03016   0.06221
     Eigenvalues ---    0.07211   0.07380   0.11596   0.14026   0.15853
     Eigenvalues ---    0.15959   0.15978   0.15988   0.15989   0.15998
     Eigenvalues ---    0.16000   0.16000   0.16000   0.16849   0.20584
     Eigenvalues ---    0.21899   0.22001   0.22155   0.23190   0.23745
     Eigenvalues ---    0.24920   0.24955   0.24999   0.25000   0.30670
     Eigenvalues ---    0.32922   0.34309   0.34475   0.35115   0.35136
     Eigenvalues ---    0.35190   0.35270   0.35372   0.35430   0.35480
     Eigenvalues ---    0.36106   0.37806   0.42698   0.48485   0.49455
     Eigenvalues ---    0.49865   0.51617   0.51818   0.52073   0.52595
     Eigenvalues ---    0.52818   0.55932   0.56154   0.67232
 RFO step:  Lambda=-2.35381141D-02 EMin= 5.42827381D-03
 Linear search not attempted -- first point.
 Iteration  1 RMS(Cart)=  0.21382662 RMS(Int)=  0.00742492
 Iteration  2 RMS(Cart)=  0.01363266 RMS(Int)=  0.00060129
 Iteration  3 RMS(Cart)=  0.00005618 RMS(Int)=  0.00060011
 Iteration  4 RMS(Cart)=  0.00000004 RMS(Int)=  0.00060011
 Variable       Old X    -DE/DX   Delta X   Delta X   Delta X     New X
                                 (Linear)    (Quad)   (Total)
    R1        2.68044   0.00322   0.00000   0.00715   0.00715   2.68759
    R2        1.84033  -0.01291   0.00000  -0.02349  -0.02349   1.81685
    R3        2.86646  -0.00970   0.00000  -0.02937  -0.02937   2.83710
    R4        2.06812   0.00391   0.00000   0.01067   0.01067   2.07879
    R5        2.06535   0.00465   0.00000   0.01263   0.01263   2.07798
    R6        2.45638  -0.03658   0.00000  -0.05257  -0.05257   2.40381
    R7        2.09188  -0.00660   0.00000  -0.01872  -0.01872   2.07316
    R8        2.60001   0.02550   0.00000   0.04884   0.04884   2.64885
    R9        2.55112  -0.00138   0.00000  -0.00236  -0.00233   2.54879
   R10        2.75867   0.01847   0.00000   0.04758   0.04784   2.80652
   R11        2.75328   0.01284   0.00000   0.03183   0.03161   2.78489
   R12        2.05075   0.00309   0.00000   0.00819   0.00819   2.05894
   R13        2.54399  -0.00572   0.00000  -0.00983  -0.01000   2.53399
   R14        2.05455   0.00243   0.00000   0.00647   0.00647   2.06102
   R15        2.74902   0.01515   0.00000   0.03835   0.03838   2.78740
   R16        2.05368   0.00337   0.00000   0.00897   0.00897   2.06264
   R17        2.61426   0.00372   0.00000   0.00731   0.00731   2.62158
   R18        2.53461  -0.00060   0.00000  -0.00108  -0.00113   2.53348
   R19        1.83824  -0.01152   0.00000  -0.02088  -0.02088   1.81736
   R20        2.60419   0.00183   0.00000   0.00354   0.00354   2.60773
   R21        2.73541   0.02062   0.00000   0.04981   0.04974   2.78515
   R22        1.84530  -0.00853   0.00000  -0.01567  -0.01567   1.82962
   R23        2.54228  -0.01132   0.00000  -0.01937  -0.01919   2.52309
   R24        2.04982   0.00309   0.00000   0.00817   0.00817   2.05799
   R25        2.05238   0.00206   0.00000   0.00548   0.00548   2.05786
    A1        1.86419   0.00176   0.00000   0.00957   0.00957   1.87375
    A2        1.94052  -0.01665   0.00000  -0.06453  -0.06412   1.87640
    A3        1.89726   0.00983   0.00000   0.05576   0.05476   1.95203
    A4        1.90077   0.00952   0.00000   0.05619   0.05550   1.95627
    A5        1.90162  -0.00025   0.00000  -0.01687  -0.01636   1.88526
    A6        1.91009   0.00131   0.00000  -0.00545  -0.00485   1.90524
    A7        1.91345  -0.00371   0.00000  -0.02488  -0.02638   1.88707
    A8        2.10979  -0.00080   0.00000  -0.00323  -0.00325   2.10653
    A9        2.02477   0.00221   0.00000   0.01158   0.01156   2.03633
   A10        2.14836  -0.00140   0.00000  -0.00808  -0.00810   2.14026
   A11        2.02103   0.01493   0.00000   0.05460   0.05460   2.07562
   A12        2.18536  -0.00519   0.00000  -0.02556  -0.02630   2.15905
   A13        1.98628  -0.00018   0.00000  -0.00730  -0.00812   1.97817
   A14        2.11151   0.00538   0.00000   0.03355   0.03197   2.14347
   A15        2.16607   0.00137   0.00000   0.02083   0.01945   2.18552
   A16        2.09647  -0.00491   0.00000  -0.03208  -0.03194   2.06453
   A17        2.01928   0.00360   0.00000   0.01369   0.01383   2.03311
   A18        2.15563   0.00133   0.00000   0.01901   0.01816   2.17379
   A19        2.02824   0.00340   0.00000   0.01298   0.01325   2.04149
   A20        2.09826  -0.00473   0.00000  -0.03085  -0.03059   2.06767
   A21        2.15142  -0.00027   0.00000   0.01534   0.01441   2.16584
   A22        2.09747  -0.00315   0.00000  -0.02317  -0.02337   2.07410
   A23        2.03002   0.00352   0.00000   0.01244   0.01231   2.04232
   A24        2.02839   0.00903   0.00000   0.02823   0.02792   2.05631
   A25        2.14865   0.00556   0.00000   0.03320   0.03221   2.18086
   A26        2.10379  -0.01448   0.00000  -0.05749  -0.05784   2.04595
   A27        1.87903   0.00111   0.00000   0.00606   0.00606   1.88509
   A28        2.13515  -0.00332   0.00000  -0.01462  -0.01540   2.11975
   A29        2.15564  -0.00022   0.00000   0.01150   0.00991   2.16554
   A30        1.98811   0.00380   0.00000   0.01047   0.00969   1.99780
   A31        1.82920   0.00774   0.00000   0.04217   0.04217   1.87137
   A32        2.13863   0.00170   0.00000   0.01930   0.01841   2.15704
   A33        2.03255   0.00320   0.00000   0.01263   0.01295   2.04550
   A34        2.11095  -0.00490   0.00000  -0.03091  -0.03060   2.08035
   A35        2.15577  -0.00037   0.00000   0.01283   0.01225   2.16802
   A36        2.02711   0.00197   0.00000   0.00382   0.00393   2.03104
   A37        2.09916  -0.00160   0.00000  -0.01536  -0.01526   2.08390
    D1        3.11399  -0.00063   0.00000  -0.00714  -0.00719   3.10679
    D2        1.02074   0.00358   0.00000   0.01751   0.01929   1.04003
    D3       -1.06319  -0.00323   0.00000  -0.01771  -0.01943  -1.08262
    D4        3.04617  -0.00028   0.00000  -0.01071  -0.01087   3.03530
    D5       -0.11963   0.00014   0.00000   0.00133   0.00121  -0.11843
    D6       -1.14636   0.00146   0.00000   0.00760   0.00779  -1.13856
    D7        1.97102   0.00188   0.00000   0.01964   0.01987   1.99089
    D8        0.94566  -0.00242   0.00000  -0.03616  -0.03625   0.90941
    D9       -2.22015  -0.00200   0.00000  -0.02411  -0.02417  -2.24432
   D10        3.06011   0.00455   0.00000   0.08662   0.08657  -3.13651
   D11       -0.05551   0.00405   0.00000   0.07341   0.07347   0.01796
   D12        1.01393   0.00048   0.00000   0.02136   0.02026   1.03419
   D13       -2.11845  -0.00235   0.00000  -0.06411  -0.06301  -2.18146
   D14       -3.05485  -0.00334   0.00000  -0.08969  -0.08923   3.13911
   D15        0.02823  -0.00197   0.00000  -0.03699  -0.03727  -0.00904
   D16        0.07691  -0.00036   0.00000   0.00129   0.00152   0.07843
   D17       -3.12319   0.00101   0.00000   0.05399   0.05348  -3.06972
   D18        1.95251   0.00578   0.00000   0.11834   0.11892   2.07143
   D19       -1.24034   0.00565   0.00000   0.14672   0.14739  -1.09295
   D20       -1.18030   0.00315   0.00000   0.03722   0.03684  -1.14346
   D21        1.91004   0.00302   0.00000   0.06560   0.06531   1.97534
   D22        1.10157  -0.00444   0.00000  -0.06020  -0.06009   1.04148
   D23       -1.99079  -0.00431   0.00000  -0.08595  -0.08576  -2.07655
   D24       -1.98386  -0.00550   0.00000  -0.10936  -0.10981  -2.09367
   D25        1.20697  -0.00537   0.00000  -0.13512  -0.13548   1.07149
   D26       -0.03709   0.00109   0.00000   0.02345   0.02371  -0.01337
   D27       -3.07566  -0.00038   0.00000  -0.03256  -0.03149  -3.10715
   D28        3.05338   0.00118   0.00000   0.05144   0.05095   3.10433
   D29        0.01481  -0.00028   0.00000  -0.00457  -0.00426   0.01055
   D30        1.95947   0.00430   0.00000   0.09134   0.09259   2.05206
   D31       -1.10862   0.00326   0.00000   0.03259   0.03217  -1.07645
   D32       -1.28146   0.00536   0.00000   0.14338   0.14492  -1.13655
   D33        1.93363   0.00432   0.00000   0.08463   0.08449   2.01812
   D34       -0.05200  -0.00142   0.00000  -0.04181  -0.04098  -0.09298
   D35        3.01811   0.00046   0.00000   0.01929   0.01845   3.03656
   D36        3.04545   0.00245   0.00000   0.07936   0.07868   3.12413
   D37        0.00936  -0.00087   0.00000  -0.01145  -0.01136  -0.00200
   D38       -0.01958   0.00036   0.00000   0.01448   0.01512  -0.00446
   D39       -3.05567  -0.00295   0.00000  -0.07632  -0.07492  -3.13059
   D40       -0.08084   0.00031   0.00000  -0.00167  -0.00122  -0.08206
   D41        2.96456   0.00315   0.00000   0.08136   0.08091   3.04547
   D42        1.13669  -0.00372   0.00000  -0.03832  -0.03795   1.09874
   D43       -1.95588  -0.00353   0.00000  -0.06109  -0.06096  -2.01684
   D44       -1.90742  -0.00642   0.00000  -0.12082  -0.12094  -2.02836
   D45        1.28319  -0.00623   0.00000  -0.14359  -0.14395   1.13924
   D46        0.00308  -0.00042   0.00000   0.00127   0.00140   0.00448
   D47       -3.08523  -0.00039   0.00000  -0.02881  -0.02844  -3.11368
   D48        3.09350  -0.00039   0.00000   0.02631   0.02607   3.11957
   D49        0.00519  -0.00036   0.00000  -0.00377  -0.00377   0.00141
         Item               Value     Threshold  Converged?
 Maximum Force            0.036582     0.000450     NO 
 RMS     Force            0.007191     0.000300     NO 
 Maximum Displacement     0.985463     0.001800     NO 
 RMS     Displacement     0.213994     0.001200     NO 
 Predicted change in Energy=-1.494491D-02
 GradGradGradGradGradGradGradGradGradGradGradGradGradGradGradGradGradGrad

                          Input orientation:                          
 ---------------------------------------------------------------------
 Center     Atomic      Atomic             Coordinates (Angstroms)
 Number     Number       Type             X           Y           Z
 ---------------------------------------------------------------------
      1          8           0        1.160747    0.135912   -0.170203
      2          6           0        2.581628    0.109493   -0.114654
      3          6           0        3.030840   -1.211678   -0.668456
      4          7           0        4.266899   -1.456062   -0.843171
      5          6           0        4.644487   -2.699619   -1.368326
      6          6           0        4.239707   -3.158572   -2.570270
      7          6           0        4.617853   -4.457137   -3.155527
      8          6           0        4.360253   -5.647770   -2.595055
      9          6           0        3.673643   -5.821323   -1.301163
     10          8           0        2.461170   -6.495440   -1.296969
     11          6           0        4.125084   -5.363818   -0.124618
     12          8           0        3.411931   -5.550183    1.041976
     13          6           0        5.385013   -4.617662    0.042780
     14          6           0        5.618332   -3.427392   -0.515316
     15          1           0        0.874122    0.969391    0.213872
     16          1           0        2.952415    0.189374    0.917936
     17          1           0        3.033593    0.920377   -0.704030
     18          1           0        2.245279   -1.942532   -0.897167
     19          1           0        3.575121   -2.532599   -3.164908
     20          1           0        5.163162   -4.434094   -4.099780
     21          1           0        4.712038   -6.552085   -3.094898
     22          1           0        2.219769   -6.678773   -2.209655
     23          1           0        2.572466   -5.968135    0.801109
     24          1           0        6.166625   -5.087736    0.637864
     25          1           0        6.584864   -2.947957   -0.367591
 ---------------------------------------------------------------------
                    Distance matrix (angstroms):
                    1          2          3          4          5
     1  O    0.000000
     2  C    1.422211   0.000000
     3  C    2.358284   1.501327   0.000000
     4  N    3.554637   2.412848   1.272041   0.000000
     5  C    4.648890   3.703808   2.303832   1.401712   0.000000
     6  C    5.108223   4.411295   2.978028   2.425315   1.348760
     7  C    6.477642   5.852113   4.386016   3.804815   2.506724
     8  C    7.040435   6.516285   5.015778   4.544033   3.205814
     9  C    6.563716   6.146128   4.697057   4.429133   3.269876
    10  O    6.850951   6.710999   5.351419   5.372329   4.379523
    11  C    6.247911   5.686781   4.328209   3.975800   2.985723
    12  O    6.234491   5.836019   4.679041   4.587654   3.931217
    13  C    6.362881   5.498159   4.201037   3.468545   2.493690
    14  C    5.717193   4.678852   3.409978   2.412468   1.485144
    15  H    0.961434   1.939827   3.191708   4.302452   5.493691
    16  H    2.096897   1.100049   2.117956   2.745327   4.054181
    17  H    2.099501   1.099622   2.132354   2.681019   4.017542
    18  H    2.454509   2.221770   1.097069   2.080027   2.559565
    19  H    4.681710   4.155927   2.876342   2.651028   2.097414
    20  H    7.235044   6.571890   5.167664   4.503052   3.276930
    21  H    8.117562   7.602442   6.101966   5.589086   4.222216
    22  H    7.191719   7.113405   5.737792   5.773624   4.735057
    23  H    6.340014   6.146240   4.999360   5.092500   4.436543
    24  H    7.279992   6.358433   5.153973   4.357922   3.470562
    25  H    6.242615   5.043597   3.966896   2.797300   2.197317
                    6          7          8          9         10
     6  C    0.000000
     7  C    1.473700   0.000000
     8  C    2.492238   1.340930   0.000000
     9  C    3.003548   2.488212   1.475028   0.000000
    10  O    3.989884   3.501457   2.451548   1.387279   0.000000
    11  C    3.295066   3.201765   2.497797   1.340660   2.328859
    12  O    4.410593   4.502002   3.759897   2.373249   2.695945
    13  C    3.204481   3.292942   3.011549   2.486719   3.724223
    14  C    2.489118   3.005337   3.292136   3.182810   4.471194
    15  H    6.009883   7.403755   7.989368   7.499764   7.779785
    16  H    5.003343   6.399754   6.956677   6.447717   7.059310
    17  H    4.644931   6.118609   6.962511   6.798291   7.461473
    18  H    2.873285   4.129472   4.591811   4.153127   4.575524
    19  H    1.089546   2.188887   3.262737   3.781396   4.520419
    20  H    2.195252   1.090646   2.093292   3.460539   4.405186
    21  H    3.466159   2.097940   1.091504   2.197672   2.881348
    22  H    4.074556   3.403109   2.406901   1.916854   0.961708
    23  H    4.694627   4.703370   3.851330   2.377749   2.166187
    24  H    4.210321   4.145620   3.745448   3.242366   4.410851
    25  H    3.224269   3.730863   4.147226   4.195593   5.518445
                   11         12         13         14         15
    11  C    0.000000
    12  O    1.379949   0.000000
    13  C    1.473835   2.400217   0.000000
    14  C    2.476324   3.435055   1.335160   0.000000
    15  H    7.126911   7.044932   7.182797   6.509297   0.000000
    16  H    5.770615   5.759257   5.458116   4.716176   2.328827
    17  H    6.404543   6.712661   6.062737   5.061579   2.346968
    18  H    3.979409   4.258697   4.230574   3.705146   3.404963
    19  H    4.190659   5.179798   4.232311   3.463481   5.565563
    20  H    4.212352   5.545279   4.152556   3.750869   8.136407
    21  H    3.252547   4.450597   3.746987   4.152026   9.069188
    22  H    3.115560   3.642536   4.397774   4.999250   8.135027
    23  H    1.905988   0.968195   3.210803   4.179192   7.166483
    24  H    2.196699   2.822322   1.089042   2.094562   8.054759
    25  H    3.456289   4.338890   2.096655   1.088974   6.949553
                   16         17         18         19         20
    16  H    0.000000
    17  H    1.780935   0.000000
    18  H    2.887847   2.975732   0.000000
    19  H    4.946363   4.274601   2.694310   0.000000
    20  H    7.172262   6.688539   4.997865   2.647932   0.000000
    21  H    8.040297   8.023161   5.671235   4.177768   2.387297
    22  H    7.582218   7.789499   4.914800   4.465451   4.156287
    23  H    6.170326   7.066093   4.381401   5.342051   5.751843
    24  H    6.185262   6.907531   5.256004   5.263619   4.886661
    25  H    4.968914   5.262007   4.485903   4.129897   4.261347
                   21         22         23         24         25
    21  H    0.000000
    22  H    2.647851   0.000000
    23  H    4.483039   3.113535   0.000000
    24  H    4.265402   5.120297   3.704015   0.000000
    25  H    4.892384   6.030443   5.156226   2.400941   0.000000
 Stoichiometry    C10H11NO3
 Framework group  C1[X(C10H11NO3)]
 Deg. of freedom    69
 Full point group                 C1      NOp   1
 Largest Abelian subgroup         C1      NOp   1
 Largest concise Abelian subgroup C1      NOp   1
                         Standard orientation:                         
 ---------------------------------------------------------------------
 Center     Atomic      Atomic             Coordinates (Angstroms)
 Number     Number       Type             X           Y           Z
 ---------------------------------------------------------------------
      1          8           0        4.260861    1.103281   -1.014534
      2          6           0        3.867776    0.260561    0.061566
      3          6           0        2.406216   -0.037472   -0.108732
      4          7           0        1.819355   -0.867494    0.655956
      5          6           0        0.455046   -1.122479    0.459896
      6          6           0       -0.058543   -1.604414   -0.690373
      7          6           0       -1.484564   -1.887217   -0.931777
      8          6           0       -2.464124   -0.974561   -0.856848
      9          6           0       -2.249511    0.441694   -0.504896
     10          8           0       -2.569447    1.400551   -1.455042
     11          6           0       -1.753547    0.876443    0.662316
     12          8           0       -1.563574    2.221022    0.907830
     13          6           0       -1.351348   -0.009030    1.769729
     14          6           0       -0.365336   -0.904645    1.678573
     15          1           0        5.189072    1.318415   -0.886091
     16          1           0        4.003564    0.751514    1.036571
     17          1           0        4.429879   -0.684463    0.073267
     18          1           0        1.883532    0.501908   -0.908377
     19          1           0        0.622516   -1.799697   -1.518102
     20          1           0       -1.751549   -2.918387   -1.166119
     21          1           0       -3.494747   -1.293652   -1.022313
     22          1           0       -2.819662    0.945257   -2.264351
     23          1           0       -1.775938    2.694473    0.090428
     24          1           0       -1.914917    0.067925    2.698427
     25          1           0       -0.142350   -1.542945    2.532220
 ---------------------------------------------------------------------
 Rotational constants (GHZ):           1.0249843           0.4029808           0.3770044
 Standard basis: 6-31G(2df,p) (6D, 7F)
 There are   489 symmetry adapted cartesian basis functions of A   symmetry.
 There are   447 symmetry adapted basis functions of A   symmetry.
   447 basis functions,   693 primitive gaussians,   489 cartesian basis functions
    51 alpha electrons       51 beta electrons
       nuclear repulsion energy       853.0437226651 Hartrees.
 NAtoms=   25 NActive=   25 NUniq=   25 SFac= 1.00D+00 NAtFMM=   60 NAOKFM=F Big=F
 Integral buffers will be    131072 words long.
 Raffenetti 2 integral format.
 Two-electron integral symmetry is turned on.
 One-electron integrals computed using PRISM.
 PrsmSu:  requested number of processors reduced to:  12 ShMem   1 Linda.
 NBasis=   447 RedAO= T EigKep=  2.10D-04  NBF=   447
 NBsUse=   447 1.00D-06 EigRej= -1.00D+00 NBFU=   447
 Initial guess from the checkpoint file:  "OCCdNC1dCCdCCqOrdCqOrCdC1.chk"
 B after Tr=    -0.000000    0.000000    0.000000
         Rot=    0.996135    0.079558    0.003538   -0.037057 Ang=  10.08 deg.
 ExpMin= 1.61D-01 ExpMax= 5.48D+03 ExpMxC= 8.25D+02 IAcc=2 IRadAn=         4 AccDes= 0.00D+00
 Harris functional with IExCor=  402 and IRadAn=       4 diagonalized for initial guess.
 HarFok:  IExCor=  402 AccDes= 0.00D+00 IRadAn=         4 IDoV= 1 UseB2=F ITyADJ=14
 ICtDFT=  3500011 ScaDFX=  1.000000  1.000000  1.000000  1.000000
 FoFCou: FMM=F IPFlag=           0 FMFlag=      100000 FMFlg1=           0
         NFxFlg=           0 DoJE=T BraDBF=F KetDBF=T FulRan=T
         wScrn=  0.000000 ICntrl=       500 IOpCl=  0 I1Cent=   200000004 NGrid=           0
         NMat0=    1 NMatS0=      1 NMatT0=    0 NMatD0=    1 NMtDS0=    0 NMtDT0=    0
 Petite list used in FoFCou.
 Requested convergence on RMS density matrix=1.00D-08 within 128 cycles.
 Requested convergence on MAX density matrix=1.00D-06.
 Requested convergence on             energy=1.00D-06.
 No special actions if energy rises.
 Integral accuracy reduced to 1.0D-05 until final iterations.
 Initial convergence to 1.0D-05 achieved.  Increase integral accuracy.
 SCF Done:  E(RB3LYP) =  -668.033265141     A.U. after   13 cycles
            NFock= 13  Conv=0.62D-08     -V/T= 2.0072
 PrsmSu:  requested number of processors reduced to:  13 ShMem   1 Linda.
 Calling FoFJK, ICntrl=      2127 FMM=F ISym2X=0 I1Cent= 0 IOpClX= 0 NMat=1 NMatS=1 NMatT=0.
 ***** Axes restored to original set *****
 -------------------------------------------------------------------
 Center     Atomic                   Forces (Hartrees/Bohr)
 Number     Number              X              Y              Z
 -------------------------------------------------------------------
      1        8           0.003502018    0.001679921    0.000746021
      2        6          -0.005706884   -0.001387098   -0.000840525
      3        6           0.008388314   -0.001172613   -0.003166928
      4        7          -0.003521933    0.002222803   -0.000502746
      5        6          -0.000590063   -0.007338409   -0.000921318
      6        6          -0.003261999   -0.000672911    0.001935550
      7        6           0.002558942    0.002443499    0.003001767
      8        6           0.003376668   -0.000649669    0.004763484
      9        6           0.001774506    0.005287185   -0.005172109
     10        8           0.001327126   -0.004782841   -0.000324812
     11        6          -0.006276274    0.003000718    0.005408192
     12        8           0.003465196   -0.001469986   -0.003498859
     13        6           0.000645867   -0.002112536   -0.002980813
     14        6           0.001790470   -0.001974812   -0.002308406
     15        1          -0.001261540   -0.000504744   -0.000221719
     16        1           0.000442817    0.001653823    0.000536279
     17        1           0.000615041    0.000625043    0.001004363
     18        1          -0.001024649    0.000274145    0.000794442
     19        1           0.003205468    0.002238459   -0.001070262
     20        1          -0.003517181   -0.000301197   -0.001782292
     21        1          -0.003726377   -0.000373597   -0.001623347
     22        1          -0.001072513    0.000306183    0.000860139
     23        1           0.002650235   -0.000578794   -0.000324453
     24        1          -0.001804106    0.001322240    0.003322805
     25        1          -0.001979149    0.002265185    0.002365547
 -------------------------------------------------------------------
 Cartesian Forces:  Max     0.008388314 RMS     0.002796440

 GradGradGradGradGradGradGradGradGradGradGradGradGradGradGradGradGradGrad
 Berny optimization.
 Using GEDIIS/GDIIS optimizer.
 FormGI is forming the generalized inverse of G from B-inverse, IUseBI=4.
 Internal  Forces:  Max     0.006115559 RMS     0.001870575
 Search for a local minimum.
 Step number   2 out of a maximum of  121
 All quantities printed in internal units (Hartrees-Bohrs-Radians)
 Mixed Optimization -- RFO/linear search
 Update second derivatives using D2CorX and points    1    2
 DE= -1.50D-02 DEPred=-1.49D-02 R= 1.01D+00
 TightC=F SS=  1.41D+00  RLast= 5.15D-01 DXNew= 5.0454D-01 1.5464D+00
 Trust test= 1.01D+00 RLast= 5.15D-01 DXMaxT set to 5.05D-01
 ITU=  1  0
 Use linear search instead of GDIIS.
     Eigenvalues ---    0.00543   0.01218   0.01448   0.01542   0.01781
     Eigenvalues ---    0.01821   0.01882   0.01911   0.01977   0.02009
     Eigenvalues ---    0.02089   0.02109   0.02160   0.02294   0.02323
     Eigenvalues ---    0.02679   0.02700   0.02815   0.03095   0.06140
     Eigenvalues ---    0.06606   0.07608   0.11278   0.13774   0.15827
     Eigenvalues ---    0.15978   0.15993   0.15997   0.15999   0.16000
     Eigenvalues ---    0.16000   0.16000   0.16507   0.17305   0.20595
     Eigenvalues ---    0.21714   0.21975   0.22605   0.23209   0.23635
     Eigenvalues ---    0.24692   0.24981   0.24999   0.25340   0.31024
     Eigenvalues ---    0.32978   0.34287   0.34479   0.35140   0.35195
     Eigenvalues ---    0.35209   0.35280   0.35378   0.35435   0.35526
     Eigenvalues ---    0.36250   0.40008   0.42928   0.48269   0.48876
     Eigenvalues ---    0.50630   0.51739   0.52050   0.52117   0.52722
     Eigenvalues ---    0.53221   0.56116   0.56219   0.66185
 RFO step:  Lambda=-7.52848994D-03 EMin= 5.42949313D-03
 Quartic linear search produced a step of  0.38717.
 Iteration  1 RMS(Cart)=  0.22652544 RMS(Int)=  0.00906473
 Iteration  2 RMS(Cart)=  0.01629287 RMS(Int)=  0.00073446
 Iteration  3 RMS(Cart)=  0.00008448 RMS(Int)=  0.00073143
 Iteration  4 RMS(Cart)=  0.00000004 RMS(Int)=  0.00073143
 Variable       Old X    -DE/DX   Delta X   Delta X   Delta X     New X
                                 (Linear)    (Quad)   (Total)
    R1        2.68759  -0.00224   0.00277  -0.00856  -0.00579   2.68180
    R2        1.81685  -0.00015  -0.00909   0.00565  -0.00344   1.81340
    R3        2.83710   0.00299  -0.01137   0.02013   0.00876   2.84586
    R4        2.07879   0.00077   0.00413   0.00008   0.00421   2.08300
    R5        2.07798   0.00018   0.00489  -0.00265   0.00224   2.08023
    R6        2.40381  -0.00475  -0.02035   0.00425  -0.01610   2.38771
    R7        2.07316   0.00039  -0.00725   0.00640  -0.00085   2.07231
    R8        2.64885   0.00200   0.01891  -0.00738   0.01153   2.66039
    R9        2.54879  -0.00302  -0.00090  -0.00666  -0.00763   2.54116
   R10        2.80652  -0.00068   0.01852  -0.01407   0.00467   2.81118
   R11        2.78489  -0.00193   0.01224  -0.01584  -0.00388   2.78101
   R12        2.05894  -0.00009   0.00317  -0.00244   0.00073   2.05967
   R13        2.53399   0.00049  -0.00387   0.00321  -0.00076   2.53323
   R14        2.06102  -0.00022   0.00251  -0.00250   0.00001   2.06103
   R15        2.78740  -0.00317   0.01486  -0.02049  -0.00546   2.78194
   R16        2.06264  -0.00015   0.00347  -0.00288   0.00060   2.06324
   R17        2.62158   0.00195   0.00283   0.00329   0.00613   2.62770
   R18        2.53348   0.00105  -0.00044   0.00283   0.00246   2.53594
   R19        1.81736  -0.00061  -0.00808   0.00387  -0.00421   1.81315
   R20        2.60773  -0.00612   0.00137  -0.01679  -0.01542   2.59231
   R21        2.78515  -0.00129   0.01926  -0.01713   0.00203   2.78717
   R22        1.82962  -0.00197  -0.00607  -0.00084  -0.00691   1.82271
   R23        2.52309  -0.00034  -0.00743   0.00460  -0.00273   2.52036
   R24        2.05799  -0.00005   0.00316  -0.00231   0.00085   2.05884
   R25        2.05786  -0.00044   0.00212  -0.00302  -0.00089   2.05697
    A1        1.87375   0.00248   0.00370   0.01667   0.02037   1.89413
    A2        1.87640   0.00022  -0.02483   0.02150  -0.00318   1.87323
    A3        1.95203  -0.00027   0.02120  -0.01645   0.00435   1.95638
    A4        1.95627  -0.00003   0.02149  -0.01645   0.00477   1.96104
    A5        1.88526   0.00109  -0.00633   0.01727   0.01113   1.89639
    A6        1.90524   0.00027  -0.00188   0.00504   0.00340   1.90864
    A7        1.88707  -0.00120  -0.01021  -0.00902  -0.01980   1.86726
    A8        2.10653   0.00225  -0.00126   0.01376   0.01248   2.11902
    A9        2.03633  -0.00230   0.00448  -0.01880  -0.01434   2.02199
   A10        2.14026   0.00005  -0.00314   0.00490   0.00175   2.14200
   A11        2.07562   0.00210   0.02114  -0.00392   0.01722   2.09284
   A12        2.15905  -0.00329  -0.01018  -0.01923  -0.03052   2.12853
   A13        1.97817   0.00016  -0.00314  -0.00621  -0.01070   1.96747
   A14        2.14347   0.00304   0.01238   0.02148   0.03145   2.17492
   A15        2.18552  -0.00067   0.00753   0.00759   0.01287   2.19839
[...]
 0007080,0.00002244,0.00000785,0.00002537,-0.00003908,-0.00001492,-0.00
 000963,0.00002994,0.00001342,0.00002281,0.00000740,-0.00001429,-0.0000
 1263,-0.00002120,-0.00000769,0.00000662,0.00001513,-0.00002565,-0.0000
 1486,-0.00001087,-0.00003779,0.00012855,0.00004682,0.00097694,-0.00072
 148,-0.00002551,0.02390125,0.01983186,-0.00472951,-0.02478347,-0.02322
 733,0.05789251,0.00129109,-0.00085573,0.00060839,0.00365631,0.00588486
 ,0.00026645,-0.19250043,-0.10952075,-0.04044869,-0.03999060,-0.0111077
 3,-0.00740895,0.00362397,-0.00640542,-0.00255905,0.00063782,0.00120047
 ,0.00093510,0.00000308,-0.00021437,0.00051132,0.00003630,0.00006183,-0
 .00004295,-0.00001742,-0.00005189,0.00013621,0.00006284,0.00005263,-0.
 00001881,-0.00011313,-0.00011402,-0.00004588,0.00011201,0.00005030,-0.
 00006127,0.00005490,0.00004640,0.00003027,-0.00023360,0.00032846,-0.00
 032102,0.00019181,-0.00011508,0.00021391,0.00012881,-0.00093118,-0.000
 16320,-0.00041636,0.00157433,-0.00009746,0.22345848,-0.00002025,0.0032
 0291,0.00097999,-0.02183401,-0.01283200,-0.00773572,-0.11236217,-0.146
 71022,-0.03537122,0.00979763,0.01149486,-0.00747182,0.00379749,0.00373
 404,0.00567686,-0.00188951,0.00124638,-0.00047580,-0.00007642,-0.00031
 481,0.00044631,0.00001819,-0.00006206,0.00003091,-0.00001564,-0.000022
 46,-0.00014767,0.00000897,-0.00000012,-0.00000252,0.00002769,0.0000364
 9,0.00002598,0.00003619,0.00001017,-0.00003414,0.00003619,0.00001663,0
 .00002190,0.00009703,-0.00034382,0.00014036,-0.00003797,0.00070574,0.0
 0013277,0.00040343,-0.00071010,-0.00069987,0.00135101,-0.00389590,-0.0
 0205657,0.12017133,0.14463777,0.00143695,0.00050080,0.00011483,-0.0106
 6469,-0.00722446,0.00541259,-0.04039815,-0.03767991,-0.06487874,-0.001
 01311,-0.00336940,0.02688283,0.00155195,0.00186989,-0.01001701,0.00173
 027,-0.00002431,0.00040517,-0.00072905,-0.00070305,-0.00025921,0.00007
 152,0.00028323,-0.00018007,-0.00013151,-0.00001769,0.00030413,0.000001
 35,-0.00000107,-0.00010074,-0.00010906,-0.00010093,0.00014982,0.000090
 40,0.00002749,-0.00018665,-0.00000656,-0.00008126,-0.00005494,-0.00068
 666,0.00025057,0.00059417,0.00011509,0.00004310,0.00003219,0.00021792,
 0.00159350,0.00005000,0.00064920,-0.00170007,-0.00003788,0.04765488,0.
 04632630,0.04233336,-0.00012499,0.00014325,-0.00001552,0.00000132,-0.0
 0025398,-0.00018124,0.00121689,0.00032765,0.00202568,-0.00651890,0.002
 05111,0.00433514,-0.00189904,0.00319757,-0.01497206,-0.10907581,0.1017
 4331,-0.07069100,0.00072543,-0.00048296,-0.00444936,-0.00063053,0.0020
 3193,-0.00039301,-0.00037457,0.00012277,-0.00021224,0.00042341,0.00016
 873,-0.00017957,0.00127878,0.00056920,0.00041080,0.00006414,-0.0002394
 9,-0.00016749,-0.00205891,-0.00119074,-0.00057987,0.00671317,0.0042836
 6,-0.00542844,0.00000023,0.00003164,-0.00003216,-0.00005615,0.00004068
 ,-0.00002662,0.00001785,-0.00003527,-0.00001826,-0.00023712,0.00050984
 ,0.00031305,0.10997363,-0.00005427,0.00006360,0.00001751,-0.00014595,-
 0.00007983,-0.00012826,0.00059246,0.00058162,0.00005101,-0.00395291,0.
 00102401,-0.00053527,-0.00184453,0.00293754,-0.00890296,0.10265542,-0.
 17039374,0.09939465,0.01334965,-0.02128357,0.01366474,0.00208224,0.000
 12840,-0.00437847,0.00075055,0.00039003,0.00033916,-0.00016034,0.00001
 256,0.00039133,0.00035462,-0.00026035,-0.00086093,-0.00030831,-0.00030
 726,0.00090638,-0.00099082,-0.00066131,-0.00033492,0.00219209,0.002169
 13,-0.00322312,-0.00001111,0.00000678,0.00000082,-0.00001609,0.0000213
 6,0.00000689,0.00003032,-0.00004554,-0.00001684,-0.00021264,-0.0001515
 6,-0.00001182,-0.11262830,0.18592296,-0.00003048,-0.00001529,-0.000011
 27,0.00032018,-0.00008380,0.00010579,0.00015730,-0.00097077,-0.0009242
 4,0.00183903,0.00141487,0.00059275,-0.01909485,0.02235764,-0.01265880,
 -0.07598815,0.08976414,-0.12986973,0.00721835,-0.00973772,0.01035519,0
 .00025125,-0.00285049,-0.00074667,0.00021277,-0.00000282,-0.00055393,-
 0.00003183,0.00023713,0.00046546,-0.00042316,-0.00032685,-0.00019102,0
 .00005278,0.00015737,0.00029602,0.00018250,0.00011606,0.00009641,-0.00
 282555,-0.00532921,-0.00087252,0.00003392,-0.00001416,0.00002866,-0.00
 002937,0.00003019,0.00003813,-0.00001653,0.00005365,0.00000746,0.00054
 680,0.00009554,-0.00051132,0.08908400,-0.09632888,0.13511218,-0.000028
 98,0.00003015,-0.00001809,0.00002804,-0.00004197,-0.00006341,-0.000236
 63,0.00027995,-0.00000893,0.00009425,-0.00069728,0.00001710,-0.0000282
 0,0.00069800,0.00252126,0.00297754,-0.00452559,0.00129328,-0.05309733,
 0.00085808,0.06340962,0.00367806,-0.00227177,0.00157471,0.01124856,-0.
 00061464,0.00692389,0.00112104,0.00151148,-0.00185058,-0.00203645,-0.0
 0187200,-0.00109227,-0.00082994,0.00060597,0.00109896,0.00087246,0.001
 21547,-0.00009151,0.00048743,-0.00026487,0.00067832,-0.00000156,0.0000
 0185,0.00000404,-0.00000361,0.00000168,0.00000127,0.00000345,0.0000109
 6,0.00000541,-0.00000718,0.00000401,0.00009130,0.00061362,-0.00045323,
 -0.00005976,0.04141606,0.00011516,-0.00010292,0.00004473,-0.00002912,0
 .00008090,-0.00009382,-0.00059845,0.00052358,0.00019314,-0.00161050,-0
 .00233281,-0.00078977,0.00332568,-0.00186148,-0.00013954,0.00469413,0.
 00212431,-0.02860125,-0.00246691,-0.05626229,0.02932085,-0.00855478,-0
 .00477698,0.03178824,0.00148246,-0.00323099,0.00042221,-0.00053585,-0.
 00062789,0.00105199,-0.00050470,-0.00049464,-0.00053872,-0.00023717,-0
 .00007235,0.00098262,-0.00038932,-0.00021262,-0.00019229,0.00051325,0.
 00002536,0.00015776,-0.00000646,0.00000876,-0.00000188,0.00003272,-0.0
 0005157,-0.00001873,0.00001125,0.00001401,0.00000507,0.00014408,0.0001
 1452,0.00005705,-0.00030185,0.00058394,0.00079574,0.00540498,0.0654911
 1,0.00013586,-0.00013268,0.00005845,-0.00006099,0.00011421,-0.00009284
 ,-0.00055601,0.00044919,0.00011723,-0.00077227,-0.00161316,-0.00070740
 ,0.00351188,-0.00076184,0.00186573,0.00248732,-0.00083562,-0.01609396,
 0.06310566,0.03657551,-0.30132029,0.00377911,-0.00055181,-0.01079106,0
 .00185059,0.00110611,0.00316395,0.00044221,0.00104163,-0.00078533,-0.0
 0014519,-0.00047295,-0.00009997,-0.00016667,0.00015036,0.00019745,-0.0
 0017817,-0.00021655,-0.00016626,0.00031879,0.00034334,-0.00018251,-0.0
 0000900,0.00001068,-0.00000517,0.00004259,-0.00006076,-0.00001324,0.00
 001100,-0.00000192,0.00000590,0.00008197,0.00010253,0.00007182,-0.0003
 5376,-0.00072685,0.00074102,-0.07189187,-0.03450144,0.32321847,-0.0001
 0367,0.00013339,-0.00001631,0.00005162,-0.00009319,-0.00017591,-0.0001
 4055,0.00040513,0.00017407,-0.00103597,-0.00055691,0.00084439,-0.00188
 504,0.00168920,-0.00133692,0.01153879,0.00122252,0.00508741,0.00527677
 ,0.00114384,-0.00308976,-0.04867973,0.03499485,0.04176262,0.00286835,0
 .00355945,-0.00032628,0.00051358,0.00060795,-0.00107105,-0.00054179,0.
 00044600,0.00297029,0.00031982,0.00035763,-0.00075395,0.00086848,0.001
 47992,0.00039108,0.00093933,-0.00165034,0.00056132,-0.00000485,0.00001
 244,-0.00000651,-0.00003862,0.00002915,0.00000279,-0.00000166,0.000034
 06,0.00001059,-0.00000956,-0.00002465,0.00010731,-0.00000721,-0.001318
 86,-0.00077481,-0.00666461,-0.00077382,-0.00146254,0.03683637,0.000078
 93,-0.00008632,0.00002041,-0.00004402,0.00008578,0.00000169,-0.0001875
 8,0.00004118,-0.00006147,0.00021306,-0.00024169,-0.00045814,0.00057073
 ,-0.00004327,0.00053324,-0.00109995,-0.00221111,0.00290698,0.00717365,
 -0.02236228,-0.02103875,0.03653690,-0.19628855,-0.12371032,-0.00320141
 ,0.00721857,0.00607622,0.00126497,0.00151474,-0.00019957,-0.00044558,-
 0.00058384,0.00122928,0.00070810,-0.00030243,0.00046731,-0.00026143,-0
 .00012879,-0.00006893,-0.00004708,0.00000616,-0.00005112,-0.00000636,0
 .00000188,-0.00000055,0.00002915,-0.00003587,-0.00000762,0.00000264,-0
 .00001152,0.00000093,0.00000778,0.00000180,0.00001146,-0.00000924,-0.0
 0088445,-0.00045591,0.00012016,0.00076557,-0.00002935,-0.04155387,0.21
 327026,-0.00001322,0.00002680,0.00001306,-0.00000121,-0.00001770,-0.00
 008008,0.00001869,0.00010424,0.00004602,-0.00016062,-0.00003474,0.0005
 5642,-0.00048876,0.00066907,-0.00048200,0.00312272,0.00190386,0.001381
 62,-0.00159597,0.01079624,0.00711797,0.03861732,-0.12956494,-0.1628575
 2,0.00400544,-0.02256866,-0.02504283,-0.00197460,0.00106625,0.00349488
 ,0.00478507,0.00119470,0.00140371,-0.00111250,0.00229101,-0.00296688,0
 .00071103,-0.00016047,0.00016259,-0.00038063,-0.00001675,-0.00042862,-
 0.00000445,0.00000940,-0.00000530,-0.00001493,0.00001042,0.00000635,-0
 .00000272,0.00000783,0.00000492,-0.00001035,-0.00000176,-0.00000298,-0
 .00028477,-0.00006140,0.00001327,-0.00189487,0.00032437,0.00097317,-0.
 04368139,0.13508491,0.17723071,-0.00009648,0.00005493,-0.00001692,0.00
 005174,-0.00007071,0.00004099,0.00022243,-0.00006108,-0.00007951,0.000
 01938,0.00027082,0.00025157,0.00044410,-0.00017407,0.00021423,0.000231
 97,-0.00045582,-0.00019897,-0.00030372,-0.00081024,-0.00001442,0.00224
 635,0.00198862,-0.00074397,-0.01962178,-0.00018015,-0.01833638,-0.2580
 2202,0.02840962,-0.23256807,-0.00255586,-0.00269375,0.00180299,0.00077
 498,0.00266155,0.00190987,0.00162572,-0.00190596,-0.00008855,-0.001014
 08,0.00058406,-0.00051414,0.00001678,0.00000630,-0.00000479,-0.0000310
 7,0.00004393,0.00001273,-0.00001655,-0.00000167,-0.00000367,-0.0000309
 0,-0.00000309,-0.00004648,0.00007192,0.00020315,0.00007313,-0.00042407
 ,0.00022309,-0.00019818,-0.00057330,0.00020623,0.00075468,0.27734067,-
 0.00007088,0.00008865,-0.00002566,0.00007322,-0.00007667,0.00003954,-0
 .00001368,-0.00013943,-0.00009395,0.00004178,0.00021724,0.00015815,0.0
 0015019,-0.00023285,-0.00016190,0.00007796,-0.00013932,0.00010135,0.00
 044647,-0.00117358,0.00019814,0.00033664,0.00208703,-0.00027145,-0.031
 13806,-0.00412921,-0.02756412,0.06235021,-0.04126364,0.08202604,-0.003
 51157,-0.00254762,0.00057694,-0.00116119,-0.00051080,0.00107622,0.0001
 3012,-0.00144299,-0.00148846,-0.00024582,0.00042622,-0.00030005,0.0000
 1382,-0.00001029,0.00000402,-0.00002728,0.00003070,0.00000887,-0.00000
 180,0.00002240,-0.00000199,0.00001989,0.00000018,-0.00000816,-0.000077
 55,-0.00000472,0.00003178,0.00001780,0.00002830,-0.00005267,0.00008319
 ,0.00005827,-0.00014003,-0.02798354,0.04903943,0.00001366,-0.00000400,
 -0.00003572,0.00000452,-0.00000722,0.00009177,-0.00002921,-0.00006554,
 0.00002451,-0.00003624,-0.00006621,-0.00048087,0.00072312,-0.00025164,
 0.00067712,0.00000725,0.00012536,-0.00013493,-0.00068980,0.00064067,-0
 .00000820,0.00111677,0.00057032,0.00130902,0.00272826,-0.00226997,0.00
 078386,-0.25205354,0.05535620,-0.25147783,0.00127823,0.00338451,-0.002
 68674,-0.00207002,-0.00354276,0.00141408,-0.00133546,-0.00132906,-0.00
 045379,0.00030907,0.00089617,-0.00012338,-0.00000139,-0.00001482,0.000
 01184,0.00001174,-0.00000857,-0.00001802,0.00000854,-0.00000099,-0.000
 00622,0.00001211,0.00001008,0.00003660,0.00005033,-0.00013205,-0.00013
 839,-0.00038422,-0.00007481,-0.00019133,0.00103620,-0.00023198,-0.0002
 8390,0.24970934,-0.05409719,0.24923543,-0.00007573,0.00003756,0.000004
 33,0.00003918,-0.00004393,-0.00001239,0.00015463,-0.00001105,-0.000047
 20,0.00001723,0.00011482,0.00018105,-0.00007149,-0.00028320,0.00024004
 ,0.00013268,-0.00080866,-0.00059369,0.00010088,0.00108550,-0.00056267,
 -0.00168555,-0.00135299,0.00168381,0.00344959,0.00267489,-0.00380960,-
 0.00337141,-0.00184460,0.00093843,-0.01494049,-0.01698497,0.00140237,-
 0.21028937,-0.21365372,-0.07587334,0.00149933,-0.00163543,0.00260841,-
 0.00079104,-0.00025008,0.00019877,0.00001334,0.00001163,-0.00000834,-0
 .00002348,0.00003617,0.00001928,-0.00001121,-0.00000126,0.00000282,-0.
 00002261,-0.00000693,-0.00003063,0.00009433,0.00016637,0.00000949,0.00
 016949,0.00011014,0.00006401,-0.00009782,0.00004486,-0.00025902,-0.000
 32977,0.00061255,-0.00047473,0.22550143,-0.00005167,0.00007393,-0.0000
 2866,0.00005366,-0.00006164,0.00002591,-0.00004348,-0.00008597,-0.0000
 6726,0.00000121,0.00013930,0.00018885,-0.00029078,0.00008133,-0.000079
 31,0.00018774,-0.00001363,0.00022253,0.00010063,-0.00002868,-0.0002509
 7,-0.00034750,-0.00180205,0.00034315,0.00122021,0.00311658,-0.00196531
 ,0.00100021,-0.00248534,-0.00220591,-0.02076010,-0.02114214,0.00138855
 ,-0.21107508,-0.23965274,-0.07647001,-0.00093343,-0.00045459,0.0035594
 0,-0.00067364,0.00067062,-0.00042647,0.00000753,-0.00001086,0.00000647
 ,-0.00001882,0.00001176,-0.00000019,0.00000118,0.00002057,-0.00000472,
 0.00002802,0.00000139,0.00001717,-0.00001990,0.00008346,0.00001942,0.0
 0011425,0.00004972,0.00000314,0.00006962,0.00012378,-0.00067497,-0.000
 51891,-0.00028396,0.00086693,0.23184346,0.26186242,0.00005009,-0.00004
 303,-0.00000957,-0.00003909,0.00003929,-0.00000467,-0.00006391,0.00007
 265,0.00004799,-0.00000630,-0.00014890,-0.00010921,0.00011238,0.000037
 76,0.00014814,0.00008514,-0.00021261,-0.00032416,-0.00025806,0.0006486
 1,0.00010572,-0.00054767,-0.00164692,0.00072513,0.00694491,0.00803722,
 -0.00529601,-0.00021442,-0.00380930,0.00101422,0.02751989,0.02900070,0
 .01003822,-0.10749592,-0.11141038,-0.09039659,0.00118348,0.00358541,-0
 .00548046,0.00082633,0.00020206,0.00060808,-0.00001048,-0.00000307,0.0
 0000964,0.00002195,-0.00003142,-0.00001850,0.00000540,-0.00000749,-0.0
 0000135,-0.00000227,-0.00000210,0.00002401,0.00009499,-0.00002997,-0.0
 0005572,0.00007409,-0.00010789,0.00006907,0.00010201,0.00001257,-0.000
 29574,-0.00228642,-0.00031289,0.00231179,0.07435424,0.07607346,0.08675
 857,0.00000541,0.00001402,0.00004035,0.00006621,0.00005996,-0.00026453
 ,-0.00023616,-0.00026057,-0.00001007,0.00086849,-0.00065257,0.00100933
 ,0.00351604,-0.00223915,-0.00648819,-0.00090339,0.00163458,0.00106216,
 0.00063142,-0.00171580,-0.00042414,-0.00016187,0.00083169,-0.00090691,
 -0.00260162,0.00000319,0.00233453,-0.00039326,-0.00174647,-0.00070813,
 -0.01301548,0.00588246,-0.01736253,0.00189093,0.00055944,0.00047221,-0
 .18560108,0.05595373,-0.12783060,0.00511219,-0.00095151,0.00015899,-0.
 00000478,0.00001038,-0.00000573,0.00000866,-0.00005508,-0.00000134,-0.
 00000209,0.00002088,0.00001439,0.00003015,-0.00003231,0.00005299,-0.00
 074323,-0.00027978,0.00017129,0.00035701,0.00005388,0.00000539,0.00021
 767,-0.00001398,-0.00015021,0.00016071,-0.00007715,0.00011364,0.000442
 14,-0.00015811,-0.00013155,0.19195556,0.00003473,-0.00004716,-0.000009
 74,0.00000648,0.00006872,0.00001868,0.00013906,-0.00006447,-0.00012617
 ,0.00017960,0.00025161,0.00054074,-0.00392715,-0.00199712,0.00423119,0
 .00112694,-0.00147598,-0.00032394,-0.00017905,0.00049633,-0.00030367,-
 0.00022596,-0.00010616,0.00094677,-0.00123284,-0.00030880,0.00206262,-
 0.00028890,-0.00240385,-0.00113118,-0.01873059,0.00606438,-0.01517187,
 0.00200282,0.00095148,-0.00040746,0.05439125,-0.07536577,0.05686131,0.
 02192435,-0.01073494,0.02086609,-0.00000187,-0.00000128,0.00000254,0.0
 0002659,-0.00004293,-0.00002146,-0.00000874,-0.00001728,0.00000196,0.0
 0000278,0.00001457,-0.00004788,0.00056663,0.00031046,0.00014770,-0.000
 10350,0.00015639,0.00005132,-0.00014989,0.00003695,-0.00014950,0.00015
 531,-0.00005568,0.00017699,0.00018975,-0.00001596,-0.00034365,-0.05784
 549,0.08414527,-0.00004307,0.00003824,-0.00004782,-0.00005928,-0.00013
 779,0.00036985,0.00038930,0.00027708,-0.00014390,-0.00112514,0.0011746
 9,-0.00130353,-0.00272918,0.00309723,0.00965491,0.00115365,-0.00208398
 ,-0.00074776,-0.00054410,0.00111296,-0.00019761,-0.00007569,-0.0003722
 2,0.00102440,0.00058417,0.00087864,0.00239505,-0.00034476,-0.00155049,
 -0.00042361,-0.00961959,-0.00029972,-0.00605804,0.00096080,0.00019151,
 0.00092464,-0.12597860,0.06315888,-0.15247251,-0.01124491,0.00131389,-
 0.00346660,0.00000968,-0.00001103,0.00000461,-0.00005547,0.00012476,0.
 00002543,-0.00000398,-0.00000580,-0.00002005,-0.00002894,0.00004059,-0
 .00010142,0.00084170,0.00046619,-0.00009802,-0.00027162,0.00005808,-0.
 00001215,-0.00018364,0.00002934,-0.00009576,-0.00001227,0.00013851,0.0
 0024897,-0.00016879,-0.00025076,-0.00022115,0.14486416,-0.06575756,0.1
 5456479,0.00009070,-0.00004192,0.00005174,-0.00005373,0.00002216,0.000
 10072,-0.00005399,0.00029458,-0.00010990,0.00192886,-0.00140410,0.0007
 4529,-0.01233556,-0.01258381,-0.00806395,-0.00273605,0.00226116,0.0000
 2466,-0.00028882,-0.00101122,-0.00004822,0.00029601,0.00079791,-0.0012
 9644,-0.00028935,-0.00031148,0.00203672,-0.00051064,0.00022205,-0.0001
 1944,0.00306991,-0.00354104,-0.00677069,0.00090142,0.00099793,0.000729
 25,0.00213463,-0.00057628,-0.00161362,-0.20568515,-0.11951277,-0.07216
 327,-0.00000763,0.00000887,-0.00000135,-0.00002857,0.00003224,0.000032
 62,-0.00001358,0.00003207,-0.00000735,0.00029131,0.00004390,-0.0002682
 7,0.00053177,0.00000028,-0.00087828,0.00029153,-0.00010187,-0.00004174
 ,0.00035361,-0.00008667,0.00001529,-0.00018714,-0.00004533,-0.00004817
 ,0.00009571,0.00026370,-0.00031880,-0.00159966,0.00194768,0.00368557,0
 .21380441,-0.00004332,0.00002299,-0.00001257,-0.00000199,-0.00003143,-
 0.00001522,0.00012327,0.00037735,0.00022834,-0.00015705,0.00021025,0.0
 0036541,0.01042600,0.00924321,0.00410892,0.00129803,-0.00146381,0.0011
 1373,0.00031120,0.00019308,-0.00033971,-0.00016608,-0.00018521,0.00045
 202,-0.00004855,0.00027490,-0.00036339,-0.00007194,-0.00036257,-0.0002
 2794,0.00058360,-0.00040298,0.00504703,-0.00118442,-0.00160301,-0.0004
 3662,-0.02521967,-0.01611254,-0.00924731,-0.11837501,-0.14352945,-0.04
 569397,0.00000370,-0.00000357,-0.00000376,-0.00000330,0.00001147,0.000
 00060,-0.00000093,-0.00001232,0.00000296,-0.00004432,-0.00017440,-0.00
 001053,-0.00054868,-0.00016352,0.00089466,-0.00002994,0.00006006,0.000
 00960,-0.00014681,0.00005518,-0.00009815,0.00005139,0.00001234,0.00006
 956,-0.00005087,-0.00019730,0.00039988,0.00100373,0.00014121,-0.001631
 22,0.13229197,0.15364006,0.00001474,0.00000633,-0.00000271,-0.00004732
 ,-0.00001299,0.00002416,0.00024108,0.00038677,0.00015322,0.00148374,-0
 .00114519,0.00018794,-0.02018613,-0.00962772,-0.00881797,-0.00080016,0
 .00311002,0.00121289,-0.00054977,0.00006021,0.00059008,-0.00031928,-0.
 00035359,0.00006676,0.00054577,0.00072878,-0.00197229,0.00093394,-0.00
 004071,0.00058516,-0.00331918,0.00675644,0.00869099,-0.00115227,-0.001
 59804,-0.00019893,0.00682449,0.00996287,0.00482401,-0.07326120,-0.0515
 9942,-0.06734751,-0.00000669,-0.00000409,0.00000581,0.00000817,0.00000
 647,0.00000121,-0.00000275,0.00002165,0.00001253,0.00021144,-0.0000309
 1,-0.00008057,0.00082970,0.00043306,-0.00122070,-0.00006610,-0.0001417
 1,-0.00002074,-0.00017098,-0.00006061,0.00013691,0.00034321,0.00015894
 ,-0.00010567,0.00013338,-0.00029041,0.00035255,0.00398452,-0.00211380,
 -0.00380274,0.08432764,0.04538766,0.06672563\\-0.00000319,-0.00000365,
 0.00000367,0.00000165,0.00000007,-0.00000368,0.00001168,-0.00000108,-0
 .00000324,-0.00000708,0.00001456,-0.00000409,0.00002539,-0.00001756,-0
 .00000195,-0.00001486,0.00000707,0.00000899,0.00000219,-0.00001599,-0.
 00000060,0.00001090,0.00000443,-0.00001309,-0.00002679,-0.00001104,0.0
 0001687,0.00000578,0.00001107,0.00000182,0.00001301,0.00000611,-0.0000
 2042,0.00000021,-0.00000291,0.00000699,-0.00000082,-0.00000741,-0.0000
 0283,-0.00001098,0.00001162,-0.00000141,0.00000257,0.00000254,-0.00000
 301,-0.00000215,-0.00000028,0.00000115,-0.00000138,0.00000046,0.000002
 72,-0.00000264,0.00000101,0.00000230,-0.00000403,-0.00000210,0.0000014
 6,0.00000342,0.00000351,0.00000048,0.00000229,0.00000013,0.00000086,-0
 .00000079,-0.00000004,0.00000132,-0.00000038,-0.00000217,0.00000158,-0
 .00000068,0.00000041,0.00000021,-0.00000332,0.00000127,0.00000390\\\@


 THE TEST OF A FIRST RATE INTELLIGENCE IS THE ABILITY TO HOLD TWO OPPOSED
 IDEAS IN THE MIND AT THE SAME TIME, AND STILL RETAIN THE ABILITY TO FUNCTION.
 ONE SHOULD, FOR EXAMPLE, BE ABLE TO SEE THAT THINGS ARE HOPELESS AND YET BE
 DETERMINED TO MAKE THEM OTHERWISE.

                                                       -- F. SCOTT FITZGERALD
 Job cpu time:       0 days  5 hours 13 minutes 13.5 seconds.
 Elapsed time:       0 days  1 hours 18 minutes 19.2 seconds.
 File lengths (MBytes):  RWF=    375 Int=      0 D2E=      0 Chk=     17 Scr=      1
 Normal termination of Gaussian 16 at Sat May 20 03:10:39 2023.
### All Done ###
