### Starting Gaussian ###
 Entering Gaussian System, Link 0=g16
 Initial command:
 /cluster/software/gaussian/gaussian-16-A.03/avx2/g16/l1.exe "/local/scratch/linjian/Gau-7136.inp" -scrdir="/local/scratch/linjian/"
 Entering Link 1 = /cluster/software/gaussian/gaussian-16-A.03/avx2/g16/l1.exe PID=      7137.
  
 Copyright (c) 1988,1990,1992,1993,1995,1998,2003,2009,2016,
            Gaussian, Inc.  All Rights Reserved.
  
 This is part of the Gaussian(R) 16 program.  It is based on
 the Gaussian(R) 09 system (copyright 2009, Gaussian, Inc.),
 the Gaussian(R) 03 system (copyright 2003, Gaussian, Inc.),
 the Gaussian(R) 98 system (copyright 1998, Gaussian, Inc.),
 the Gaussian(R) 94 system (copyright 1995, Gaussian, Inc.),
 the Gaussian 92(TM) system (copyright 1992, Gaussian, Inc.),
 the Gaussian 90(TM) system (copyright 1990, Gaussian, Inc.),
 the Gaussian 88(TM) system (copyright 1988, Gaussian, Inc.),
 the Gaussian 86(TM) system (copyright 1986, Carnegie Mellon
 University), and the Gaussian 82(TM) system (copyright 1983,
 Carnegie Mellon University). Gaussian is a federally registered
 trademark of Gaussian, Inc.
  
 This software contains proprietary and confidential information,
 including trade secrets, belonging to Gaussian, Inc.
  
 This software is provided under written license and may be
 used, copied, transmitted, or stored only in accord with that
 written license.
  
 The following legend is applicable only to US Government
 contracts under FAR:
  
                    RESTRICTED RIGHTS LEGEND
  
 Use, reproduction and disclosure by the US Government is
 subject to restrictions as set forth in subparagraphs (a)
 and (c) of the Commercial Computer Software - Restricted
 Rights clause in FAR 52.227-19.
  
 Gaussian, Inc.
 340 Quinnipiac St., Bldg. 40, Wallingford CT 06492
  
  
 ---------------------------------------------------------------
 Warning -- This program may not be used in any manner that
 competes with the business of Gaussian, Inc. or will provide
 assistance to any competitor of Gaussian, Inc.  The licensee
 of this program is prohibited from giving any competitor of
 Gaussian, Inc. access to this program.  By using this program,
 the user acknowledges that Gaussian, Inc. is engaged in the
 business of creating and licensing software in the field of
 computational chemistry and represents and warrants to the
 licensee that it is not a competitor of Gaussian, Inc. and that
 it will not use this program in any manner prohibited above.
 ---------------------------------------------------------------
  

 Cite this work as:
 Gaussian 16, Revision A.03,
 M. J. Frisch, G. W. Trucks, H. B. Schlegel, G. E. Scuseria, 
 M. A. Robb, J. R. Cheeseman, G. Scalmani, V. Barone, 
 G. A. Petersson, H. Nakatsuji, X. Li, M. Caricato, A. V. Marenich, 
 J. Bloino, B. G. Janesko, R. Gomperts, B. Mennucci, H. P. Hratchian, 
 J. V. Ortiz, A. F. Izmaylov, J. L. Sonnenberg, D. Williams-Young, 
 F. Ding, F. Lipparini, F. Egidi, J. Goings, B. Peng, A. Petrone, 
 T. Henderson, D. Ranasinghe, V. G. Zakrzewski, J. Gao, N. Rega, 
 G. Zheng, W. Liang, M. Hada, M. Ehara, K. Toyota, R. Fukuda, 
 J. Hasegawa, M. Ishida, T. Nakajima, Y. Honda, O. Kitao, H. Nakai, 
 T. Vreven, K. Throssell, J. A. Montgomery, Jr., J. E. Peralta, 
 F. Ogliaro, M. J. Bearpark, J. J. Heyd, E. N. Brothers, K. N. Kudin, 
 V. N. Staroverov, T. A. Keith, R. Kobayashi, J. Normand, 
 K. Raghavachari, A. P. Rendell, J. C. Burant, S. S. Iyengar, 
 J. Tomasi, M. Cossi, J. M. Millam, M. Klene, C. Adamo, R. Cammi, 
 J. W. Ochterski, R. L. Martin, K. Morokuma, O. Farkas, 
 J. B. Foresman, and D. J. Fox, Gaussian, Inc., Wallingford CT, 2016.
 
 ******************************************
 Gaussian 16:  ES64L-G16RevA.03 25-Dec-2016
                16-May-2023 
 ******************************************
 %chk=OdC1CdCNdCCdCCdCS2dCCdCC2dCS1.chk
 %NProcShared=20
 Will use up to   20 processors via shared memory.
 -----------------------------
 # opt freq b3lyp/6-31g(2df,p)
 -----------------------------
 1/18=20,19=15,26=3,38=1/1,3;
 2/9=110,12=2,17=6,18=5,40=1/2;
 3/5=1,6=6,7=104,11=2,25=1,30=1,71=1,74=-5/1,2,3;
 4//1;
 5/5=2,38=5/2;
 6/7=2,8=2,9=2,10=2,28=1/1;
 7//1,2,3,16;
 1/18=20,19=15,26=3/3(2);
 2/9=110/2;
 99//99;
 2/9=110/2;
 3/5=1,6=6,7=104,11=2,25=1,30=1,71=1,74=-5/1,2,3;
 4/5=5,16=3,69=1/1;
 5/5=2,38=5/2;
 7//1,2,3,16;
 1/18=20,19=15,26=3/3(-5);
 2/9=110/2;
 6/7=2,8=2,9=2,10=2,19=2,28=1/1;
 99/9=1/99;
 -------------------
 Title Card Required
 -------------------
 Symbolic Z-matrix:
 Charge =  0 Multiplicity = 1
 O                     4.68665  -2.23535  -0.28827 
 C                     4.9533   -2.13783  -1.48792 
 C                     3.88569  -0.95227  -1.85137 
 C                     4.62414   0.14931  -1.81172 
 N                     5.34071  -0.01519  -2.95531 
 C                     6.59423  -0.22753  -2.81176 
 C                     7.28032  -0.7645   -3.96573 
 C                     8.59811  -0.71432  -3.87682 
 C                     9.40203  -1.12192  -4.96228 
 C                     10.69752  -1.31863  -4.69326 
 S                     11.33608  -2.70981  -5.44755 
 C                     10.85985  -2.04408  -7.16545 
 C                     10.14662  -3.13595  -7.79665 
 C                     9.73733  -4.05137  -6.82426 
 C                     9.41017  -3.72678  -5.14995 
 C                     8.55915  -3.39024  -3.70014 
 S                     6.87445  -3.15351  -2.40699 
 H                     2.8772   -0.95904  -2.31549 
 H                     5.16394   0.28017  -0.84176 
 H                     7.13685  -0.1062   -1.85789 
 H                     6.73205  -1.38091  -4.69158 
 H                     9.08781  -0.67082  -2.90248 
 H                     8.85726  -1.64695  -5.77453 
 H                     11.2072  -1.07518  -3.78902 
 H                     10.96137  -1.03066  -7.68302 
 H                     10.37938  -3.26156  -8.87347 
 H                     10.3766  -4.96271  -7.11184 
 H                     9.4825   -3.46605  -3.0462 
 

 GradGradGradGradGradGradGradGradGradGradGradGradGradGradGradGradGradGrad
 Berny optimization.
 Initialization pass.
                           ----------------------------
                           !    Initial Parameters    !
                           ! (Angstroms and Degrees)  !
 --------------------------                            --------------------------
 ! Name  Definition              Value          Derivative Info.                !
 --------------------------------------------------------------------------------
 ! R1    R(1,2)                  1.2328         estimate D2E/DX2                !
 ! R2    R(2,3)                  1.6363         estimate D2E/DX2                !
 ! R3    R(3,4)                  1.3268         estimate D2E/DX2                !
 ! R4    R(3,18)                 1.1102         estimate D2E/DX2                !
 ! R5    R(4,5)                  1.3595         estimate D2E/DX2                !
 ! R6    R(4,19)                 1.1177         estimate D2E/DX2                !
 ! R7    R(5,6)                  1.2795         estimate D2E/DX2                !
 ! R8    R(6,7)                  1.4459         estimate D2E/DX2                !
 ! R9    R(6,20)                 1.1041         estimate D2E/DX2                !
 ! R10   R(7,8)                  1.3217         estimate D2E/DX2                !
 ! R11   R(7,21)                 1.0988         estimate D2E/DX2                !
 ! R12   R(8,9)                  1.4109         estimate D2E/DX2                !
 ! R13   R(8,22)                 1.0913         estimate D2E/DX2                !
 ! R14   R(9,10)                 1.3377         estimate D2E/DX2                !
 ! R15   R(9,23)                 1.11           estimate D2E/DX2                !
 ! R16   R(10,11)                1.7065         estimate D2E/DX2                !
 ! R17   R(10,24)                1.0662         estimate D2E/DX2                !
 ! R18   R(11,12)                1.9029         estimate D2E/DX2                !
 ! R19   R(12,13)                1.4489         estimate D2E/DX2                !
 ! R20   R(12,25)                1.1425         estimate D2E/DX2                !
 ! R21   R(13,14)                1.3968         estimate D2E/DX2                !
 ! R22   R(13,26)                1.1088         estimate D2E/DX2                !
 ! R23   R(14,15)                1.7366         estimate D2E/DX2                !
 ! R24   R(14,27)                1.1497         estimate D2E/DX2                !
 ! R25   R(15,16)                1.7145         estimate D2E/DX2                !
 ! R26   R(16,17)                2.1369         estimate D2E/DX2                !
 ! R27   R(16,28)                1.134          estimate D2E/DX2                !
 ! A1    A(1,2,3)               97.6047         estimate D2E/DX2                !
 ! A2    A(2,3,4)              103.4021         estimate D2E/DX2                !
 ! A3    A(2,3,18)             132.9323         estimate D2E/DX2                !
 ! A4    A(4,3,18)             121.5435         estimate D2E/DX2                !
 ! A5    A(3,4,5)               99.6573         estimate D2E/DX2                !
 ! A6    A(3,4,19)             113.0745         estimate D2E/DX2                !
 ! A7    A(5,4,19)             119.3127         estimate D2E/DX2                !
 ! A8    A(4,5,6)              116.2374         estimate D2E/DX2                !
 ! A9    A(5,6,7)              115.9108         estimate D2E/DX2                !
 ! A10   A(5,6,20)             124.0691         estimate D2E/DX2                !
 ! A11   A(7,6,20)             119.8088         estimate D2E/DX2                !
 ! A12   A(6,7,8)              113.9097         estimate D2E/DX2                !
 ! A13   A(6,7,21)             119.918          estimate D2E/DX2                !
 ! A14   A(8,7,21)             124.2775         estimate D2E/DX2                !
 ! A15   A(7,8,9)              120.3559         estimate D2E/DX2                !
 ! A16   A(7,8,22)             120.5933         estimate D2E/DX2                !
 ! A17   A(9,8,22)             116.2761         estimate D2E/DX2                !
 ! A18   A(8,9,10)             116.0774         estimate D2E/DX2                !
 ! A19   A(8,9,23)             114.8318         estimate D2E/DX2                !
 ! A20   A(10,9,23)            123.566          estimate D2E/DX2                !
 ! A21   A(9,10,11)            113.1653         estimate D2E/DX2                !
 ! A22   A(9,10,24)            126.8676         estimate D2E/DX2                !
 ! A23   A(11,10,24)           112.467          estimate D2E/DX2                !
 ! A24   A(10,11,12)            91.1565         estimate D2E/DX2                !
 ! A25   A(11,12,13)           104.6454         estimate D2E/DX2                !
 ! A26   A(11,12,25)           134.1926         estimate D2E/DX2                !
 ! A27   A(13,12,25)           120.9879         estimate D2E/DX2                !
 ! A28   A(12,13,14)           109.5631         estimate D2E/DX2                !
 ! A29   A(12,13,26)           113.8976         estimate D2E/DX2                !
 ! A30   A(14,13,26)           131.5542         estimate D2E/DX2                !
 ! A31   A(13,14,15)           127.1496         estimate D2E/DX2                !
 ! A32   A(13,14,27)           100.5112         estimate D2E/DX2                !
 ! A33   A(15,14,27)           119.6079         estimate D2E/DX2                !
 ! A34   A(14,15,16)           160.9981         estimate D2E/DX2                !
 ! A35   A(15,16,17)           157.6375         estimate D2E/DX2                !
 ! A36   A(15,16,28)            94.0344         estimate D2E/DX2                !
 ! A37   A(17,16,28)           107.4795         estimate D2E/DX2                !
 ! D1    D(1,2,3,4)             97.5272         estimate D2E/DX2                !
 ! D2    D(1,2,3,18)           -99.4947         estimate D2E/DX2                !
 ! D3    D(2,3,4,5)             72.7984         estimate D2E/DX2                !
 ! D4    D(2,3,4,19)           -54.957          estimate D2E/DX2                !
 ! D5    D(18,3,4,5)           -92.6359         estimate D2E/DX2                !
 ! D6    D(18,3,4,19)          139.6086         estimate D2E/DX2                !
 ! D7    D(3,4,5,6)           -112.3805         estimate D2E/DX2                !
 ! D8    D(19,4,5,6)            11.0883         estimate D2E/DX2                !
 ! D9    D(4,5,6,7)            163.3973         estimate D2E/DX2                !
 ! D10   D(4,5,6,20)           -11.2926         estimate D2E/DX2                !
 ! D11   D(5,6,7,8)            166.9177         estimate D2E/DX2                !
 ! D12   D(5,6,7,21)           -28.0866         estimate D2E/DX2                !
 ! D13   D(20,6,7,8)           -18.1511         estimate D2E/DX2                !
 ! D14   D(20,6,7,21)          146.8446         estimate D2E/DX2                !
 ! D15   D(6,7,8,9)           -175.8863         estimate D2E/DX2                !
 ! D16   D(6,7,8,22)            23.6791         estimate D2E/DX2                !
 ! D17   D(21,7,8,9)            19.8705         estimate D2E/DX2                !
 ! D18   D(21,7,8,22)         -140.564          estimate D2E/DX2                !
 ! D19   D(7,8,9,10)          -165.7964         estimate D2E/DX2                !
 ! D20   D(7,8,9,23)           -11.0084         estimate D2E/DX2                !
 ! D21   D(22,8,9,10)           -4.5492         estimate D2E/DX2                !
 ! D22   D(22,8,9,23)          150.2388         estimate D2E/DX2                !
 ! D23   D(8,9,10,11)          138.2269         estimate D2E/DX2                !
 ! D24   D(8,9,10,24)           -8.9612         estimate D2E/DX2                !
 ! D25   D(23,9,10,11)         -14.1309         estimate D2E/DX2                !
 ! D26   D(23,9,10,24)        -161.319          estimate D2E/DX2                !
 ! D27   D(9,10,11,12)          58.2777         estimate D2E/DX2                !
 ! D28   D(24,10,11,12)       -149.6999         estimate D2E/DX2                !
 ! D29   D(10,11,12,13)       -129.6782         estimate D2E/DX2                !
 ! D30   D(10,11,12,25)         45.3569         estimate D2E/DX2                !
 ! D31   D(11,12,13,14)         17.5824         estimate D2E/DX2                !
 ! D32   D(11,12,13,26)       -140.4554         estimate D2E/DX2                !
 ! D33   D(25,12,13,14)       -158.2668         estimate D2E/DX2                !
 ! D34   D(25,12,13,26)         43.6955         estimate D2E/DX2                !
 ! D35   D(12,13,14,15)         26.8041         estimate D2E/DX2                !
 ! D36   D(12,13,14,27)       -113.6406         estimate D2E/DX2                !
 ! D37   D(26,13,14,15)        179.6149         estimate D2E/DX2                !
 ! D38   D(26,13,14,27)         39.1703         estimate D2E/DX2                !
 ! D39   D(13,14,15,16)         97.6391         estimate D2E/DX2                !
 ! D40   D(27,14,15,16)       -128.4296         estimate D2E/DX2                !
 ! D41   D(14,15,16,17)         10.6958         estimate D2E/DX2                !
 ! D42   D(14,15,16,28)        175.0332         estimate D2E/DX2                !
 ! D43   D(15,16,17,28)        163.6001         estimate D2E/DX2                !
 --------------------------------------------------------------------------------
 Trust Radius=3.00D-01 FncErr=1.00D-07 GrdErr=1.00D-06 EigMax=2.50D+02 EigMin=1.00D-04
 Number of steps in this run=    117 maximum allowed number of steps=    168.
 GradGradGradGradGradGradGradGradGradGradGradGradGradGradGradGradGradGrad

                          Input orientation:                          
 ---------------------------------------------------------------------
 Center     Atomic      Atomic             Coordinates (Angstroms)
 Number     Number       Type             X           Y           Z
 ---------------------------------------------------------------------
      1          8           0        4.686650   -2.235350   -0.288270
      2          6           0        4.953300   -2.137830   -1.487920
      3          6           0        3.885690   -0.952270   -1.851370
      4          6           0        4.624140    0.149310   -1.811720
      5          7           0        5.340710   -0.015190   -2.955310
      6          6           0        6.594230   -0.227530   -2.811760
      7          6           0        7.280320   -0.764500   -3.965730
      8          6           0        8.598110   -0.714320   -3.876820
      9          6           0        9.402030   -1.121920   -4.962280
     10          6           0       10.697520   -1.318630   -4.693260
     11         16           0       11.336080   -2.709810   -5.447550
     12          6           0       10.859850   -2.044080   -7.165450
     13          6           0       10.146620   -3.135950   -7.796650
     14          6           0        9.737330   -4.051370   -6.824260
     15          6           0        9.410170   -3.726780   -5.149950
     16          6           0        8.559150   -3.390240   -3.700140
     17         16           0        6.874450   -3.153510   -2.406990
     18          1           0        2.877200   -0.959040   -2.315490
     19          1           0        5.163940    0.280170   -0.841760
     20          1           0        7.136850   -0.106200   -1.857890
     21          1           0        6.732050   -1.380910   -4.691580
     22          1           0        9.087810   -0.670820   -2.902480
     23          1           0        8.857260   -1.646950   -5.774530
     24          1           0       11.207200   -1.075180   -3.789020
     25          1           0       10.961370   -1.030660   -7.683020
     26          1           0       10.379380   -3.261560   -8.873470
     27          1           0       10.376600   -4.962710   -7.111840
     28          1           0        9.482500   -3.466050   -3.046200
 ---------------------------------------------------------------------
                    Distance matrix (angstroms):
                    1          2          3          4          5
     1  O    0.000000
     2  C    1.232791   0.000000
     3  C    2.175112   1.636288   0.000000
     4  C    2.830444   2.333281   1.326785   0.000000
     5  N    3.531290   2.609391   2.052775   1.359533   0.000000
     6  C    3.746759   2.845075   2.963745   2.241282   1.279456
     7  C    4.734368   3.666142   4.003659   3.539788   2.311818
     8  C    5.521842   4.584524   5.134780   4.561023   3.456677
     9  C    6.732080   5.735368   6.335341   5.862618   4.663379
    10  C    7.508320   6.628828   7.389965   6.880702   5.780557
    11  S    8.429603   7.532975   8.457527   8.151317   7.029701
    12  C    9.243408   8.193319   8.835746   8.506319   7.232052
    13  C    9.327278   8.232065   8.905844   8.781236   7.501632
    14  C    8.457332   7.417891   8.281047   8.301565   7.112650
    15  C    6.940601   5.983220   7.007026   7.005279   5.928984
    16  C    5.288751   4.411871   5.585954   5.619506   4.722721
    17  S    3.180953   2.359473   3.753246   4.040651   3.535826
    18  H    3.002115   2.526778   1.110183   2.129325   2.714609
    19  H    2.619542   2.511696   2.042583   1.117735   2.141396
    20  H    3.605616   3.005377   3.359452   2.526090   2.106830
    21  H    4.929794   3.741700   4.043797   3.883098   2.610680
    22  H    5.352762   4.609476   5.314706   4.667625   3.804392
    23  H    6.916592   5.818668   6.371050   6.070397   4.793409
    24  H    7.491249   6.748004   7.574569   6.981817   6.019498
    25  H    9.772703   8.700689   9.169489   8.719230   7.414462
    26  H   10.352098   9.233172   9.839244   9.727545   8.423285
    27  H    9.293822   8.307864   9.267583   9.344240   8.192367
    28  H    5.667537   4.970519   6.250679   6.180488   5.391764
                    6          7          8          9         10
     6  C    0.000000
     7  C    1.445926   0.000000
     8  C    2.320959   1.321739   0.000000
     9  C    3.648069   2.371184   1.410903   0.000000
    10  C    4.644086   3.537459   2.332228   1.337670   0.000000
    11  S    5.966091   4.735949   3.734388   2.549006   1.706486
    12  C    6.360030   4.968759   4.206996   2.798138   2.581541
    13  C    6.776984   5.339981   4.860786   3.555894   3.638292
    14  C    6.371890   5.001160   4.595773   3.487273   3.595969
    15  C    5.063734   3.835849   3.369750   2.611624   2.768578
    16  C    3.827906   2.932653   2.682029   2.729234   3.138548
    17  S    2.967106   2.881279   3.328821   4.128623   4.817643
    18  H    3.820694   4.706230   5.935187   7.043113   8.181717
    19  H    2.486843   3.915302   4.689789   6.075027   6.928977
    20  H    1.104095   2.212901   2.565379   3.974917   4.710380
    21  H    2.209752   1.098826   2.142512   2.696136   3.965959
    22  H    2.534300   2.099118   1.091346   2.131901   2.493535
    23  H    3.989244   2.556798   2.130319   1.110036   2.159513
    24  H    4.790933   3.943112   2.635390   2.153454   1.066157
    25  H    6.591366   5.238245   4.491350   3.137243   3.015163
    26  H    7.763828   6.318654   5.884545   4.564064   4.620643
    27  H    7.430945   6.091792   5.628250   4.508000   4.385412
    28  H    4.345696   3.604650   3.007340   3.028660   2.966562
                   11         12         13         14         15
    11  S    0.000000
    12  C    1.902938   0.000000
    13  C    2.667336   1.448893   0.000000
    14  C    2.500223   2.325011   1.396801   0.000000
    15  C    2.198164   2.999215   2.810064   1.736579   0.000000
    16  C    3.350786   4.371926   4.400695   3.403722   1.714480
    17  S    5.417381   6.305330   6.305223   5.339898   3.779199
    18  H    9.188452   9.403304   9.360904   8.772280   7.640304
    19  H    8.261271   8.822391   9.212354   8.687257   7.255799
    20  H    6.107207   6.766558   7.314846   6.855049   5.395762
    21  H    4.851243   4.857835   4.937703   4.550977   3.589643
    22  H    3.961007   4.816522   5.581294   5.218271   3.807089
    23  H    2.716825   2.470372   2.822860   2.767253   2.240871
    24  H    2.332241   3.529830   4.629547   4.497878   3.480292
    25  H    2.820865   1.142456   2.260304   3.370524   4.011450
    26  H    3.599532   2.151846   1.108827   2.288076   3.875616
    27  H    2.960747   2.958852   1.964410   1.149743   2.512075
    28  H    3.126362   4.570264   4.807993   3.831615   2.121079
                   16         17         18         19         20
    16  C    0.000000
    17  S    2.136935   0.000000
    18  H    6.333447   4.560930   0.000000
    19  H    5.759314   4.143181   2.989432   0.000000
    20  H    4.025139   3.107485   4.368221   2.252593   0.000000
    21  H    2.891134   2.895123   4.547928   4.476524   3.133456
    22  H    2.882878   3.362770   6.244942   4.532958   2.283902
    23  H    2.725990   4.188267   6.942571   6.456518   4.546844
    24  H    3.518461   5.000219   8.460123   6.858885   4.608246
    25  H    5.215516   7.003278   9.704087   9.062633   7.029489
    26  H    5.485721   7.356057  10.226994  10.210437   8.347973
    27  H    4.173186   6.137905   9.760909   9.693994   7.854022
    28  H    1.134002   2.703367   7.102748   6.127290   4.266468
                   21         22         23         24         25
    21  H    0.000000
    22  H    3.042156   0.000000
    23  H    2.400016   3.042146   0.000000
    24  H    4.575484   2.332654   3.129120   0.000000
    25  H    5.192161   5.147162   2.906790   3.902006   0.000000
    26  H    5.859016   6.635722   3.811462   5.596175   2.594764
    27  H    5.654175   6.148171   3.884721   5.181112   4.016120
    28  H    3.823619   2.826614   3.338238   3.040170   5.442268
                   26         27         28
    26  H    0.000000
    27  H    2.448930   0.000000
    28  H    5.899431   4.423668   0.000000
 Stoichiometry    C13H11NOS2
 Framework group  C1[X(C13H11NOS2)]
 Deg. of freedom    78
 Full point group                 C1      NOp   1
 Largest Abelian subgroup         C1      NOp   1
 Largest concise Abelian subgroup C1      NOp   1
                         Standard orientation:                         
 ---------------------------------------------------------------------
 Center     Atomic      Atomic             Coordinates (Angstroms)
 Number     Number       Type             X           Y           Z
 ---------------------------------------------------------------------
      1          8           0       -4.710526    1.327743   -0.530529
      2          6           0       -3.786564    0.917640    0.175079
      3          6           0       -4.613393   -0.262674    0.950096
      4          6           0       -4.299972   -1.356567    0.267803
      5          7           0       -3.015707   -1.523298    0.681561
      6          6           0       -2.108934   -1.348696   -0.204038
      7          6           0       -0.765958   -1.156459    0.296125
      8          6           0        0.170220   -1.252717   -0.631936
      9          6           0        1.534192   -1.174546   -0.279632
     10          6           0        2.392175   -0.985731   -1.288382
     11         16           0        3.625177    0.135052   -0.920077
     12          6           0        4.189741   -0.914963    0.563131
     13          6           0        4.258961    0.019450    1.668288
     14          6           0        3.532711    1.170416    1.353816
     15          6           0        2.184025    1.295171    0.266990
     16          6           0        0.573575    1.379800   -0.315017
     17         16           0       -1.553312    1.565853   -0.224319
     18          1           0       -5.091561   -0.319178    1.950431
     19          1           0       -4.515555   -1.267842   -0.825349
     20          1           0       -2.310504   -1.254958   -1.285522
     21          1           0       -0.609250   -0.714111    1.289700
     22          1           0       -0.068437   -1.075800   -1.682070
     23          1           0        1.728423   -0.842420    0.761592
     24          1           0        2.171498   -1.020737   -2.330863
     25          1           0        4.381314   -2.029888    0.722656
     26          1           0        5.126494   -0.142330    2.339637
     27          1           0        4.380720    1.944803    1.298025
     28          1           0        0.886516    1.568374   -1.388548
 ---------------------------------------------------------------------
 Rotational constants (GHZ):           0.9894795           0.1859051           0.1744986
 Standard basis: 6-31G(2df,p) (6D, 7F)
 There are   590 symmetry adapted cartesian basis functions of A   symmetry.
 There are   539 symmetry adapted basis functions of A   symmetry.
   539 basis functions,   873 primitive gaussians,   590 cartesian basis functions
    68 alpha electrons       68 beta electrons
       nuclear repulsion energy      1315.2729647688 Hartrees.
 NAtoms=   28 NActive=   28 NUniq=   28 SFac= 1.00D+00 NAtFMM=   60 NAOKFM=F Big=F
 Integral buffers will be    131072 words long.
 Raffenetti 2 integral format.
 Two-electron integral symmetry is turned on.
 One-electron integrals computed using PRISM.
 PrsmSu:  requested number of processors reduced to:  12 ShMem   1 Linda.
 NBasis=   539 RedAO= T EigKep=  2.18D-04  NBF=   539
 NBsUse=   539 1.00D-06 EigRej= -1.00D+00 NBFU=   539
 ExpMin= 1.17D-01 ExpMax= 2.19D+04 ExpMxC= 3.30D+03 IAcc=3 IRadAn=         5 AccDes= 0.00D+00
 Harris functional with IExCor=  402 and IRadAn=       5 diagonalized for initial guess.
 HarFok:  IExCor=  402 AccDes= 0.00D+00 IRadAn=         5 IDoV= 1 UseB2=F ITyADJ=14
 ICtDFT=  3500011 ScaDFX=  1.000000  1.000000  1.000000  1.000000
 FoFCou: FMM=F IPFlag=           0 FMFlag=      100000 FMFlg1=           0
         NFxFlg=           0 DoJE=T BraDBF=F KetDBF=T FulRan=T
         wScrn=  0.000000 ICntrl=       500 IOpCl=  0 I1Cent=   200000004 NGrid=           0
         NMat0=    1 NMatS0=      1 NMatT0=    0 NMatD0=    1 NMtDS0=    0 NMtDT0=    0
 Petite list used in FoFCou.
 Requested convergence on RMS density matrix=1.00D-08 within 128 cycles.
 Requested convergence on MAX density matrix=1.00D-06.
 Requested convergence on             energy=1.00D-06.
 No special actions if energy rises.
 Integral accuracy reduced to 1.0D-05 until final iterations.
 Rare condition: small coef for last iteration:  0.000D+00
 EnCoef did   100 forward-backward iterations
 EnCoef did   100 forward-backward iterations
 EnCoef did     1 forward-backward iterations
 EnCoef did    12 forward-backward iterations
 EnCoef did     9 forward-backward iterations
 EnCoef did     2 forward-backward iterations
 EnCoef did     2 forward-backward iterations
 Initial convergence to 1.0D-05 achieved.  Increase integral accuracy.
 SCF Done:  E(RB3LYP) =  -1427.53837217     A.U. after   30 cycles
            NFock= 30  Conv=0.89D-08     -V/T= 2.0054

 **********************************************************************

            Population analysis using the SCF density.

 **********************************************************************

 Orbital symmetries:
       Occupied  (A) (A) (A) (A) (A) (A) (A) (A) (A) (A) (A) (A)
                 (A) (A) (A) (A) (A) (A) (A) (A) (A) (A) (A) (A)
                 (A) (A) (A) (A) (A) (A) (A) (A) (A) (A) (A) (A)
                 (A) (A) (A) (A) (A) (A) (A) (A) (A) (A) (A) (A)
                 (A) (A) (A) (A) (A) (A) (A) (A) (A) (A) (A) (A)
                 (A) (A) (A) (A) (A) (A) (A) (A)
       Virtual   (A) (A) (A) (A) (A) (A) (A) (A) (A) (A) (A) (A)
                 (A) (A) (A) (A) (A) (A) (A) (A) (A) (A) (A) (A)
                 (A) (A) (A) (A) (A) (A) (A) (A) (A) (A) (A) (A)
                 (A) (A) (A) (A) (A) (A) (A) (A) (A) (A) (A) (A)
                 (A) (A) (A) (A) (A) (A) (A) (A) (A) (A) (A) (A)
                 (A) (A) (A) (A) (A) (A) (A) (A) (A) (A) (A) (A)
                 (A) (A) (A) (A) (A) (A) (A) (A) (A) (A) (A) (A)
                 (A) (A) (A) (A) (A) (A) (A) (A) (A) (A) (A) (A)
                 (A) (A) (A) (A) (A) (A) (A) (A) (A) (A) (A) (A)
                 (A) (A) (A) (A) (A) (A) (A) (A) (A) (A) (A) (A)
                 (A) (A) (A) (A) (A) (A) (A) (A) (A) (A) (A) (A)
                 (A) (A) (A) (A) (A) (A) (A) (A) (A) (A) (A) (A)
                 (A) (A) (A) (A) (A) (A) (A) (A) (A) (A) (A) (A)
                 (A) (A) (A) (A) (A) (A) (A) (A) (A) (A) (A) (A)
                 (A) (A) (A) (A) (A) (A) (A) (A) (A) (A) (A) (A)
                 (A) (A) (A) (A) (A) (A) (A) (A) (A) (A) (A) (A)
                 (A) (A) (A) (A) (A) (A) (A) (A) (A) (A) (A) (A)
                 (A) (A) (A) (A) (A) (A) (A) (A) (A) (A) (A) (A)
                 (A) (A) (A) (A) (A) (A) (A) (A) (A) (A) (A) (A)
                 (A) (A) (A) (A) (A) (A) (A) (A) (A) (A) (A) (A)
                 (A) (A) (A) (A) (A) (A) (A) (A) (A) (A) (A) (A)
                 (A) (A) (A) (A) (A) (A) (A) (A) (A) (A) (A) (A)
                 (A) (A) (A) (A) (A) (A) (A) (A) (A) (A) (A) (A)
                 (A) (A) (A) (A) (A) (A) (A) (A) (A) (A) (A) (A)
                 (A) (A) (A) (A) (A) (A) (A) (A) (A) (A) (A) (A)
                 (A) (A) (A) (A) (A) (A) (A) (A) (A) (A) (A) (A)
                 (A) (A) (A) (A) (A) (A) (A) (A) (A) (A) (A) (A)
                 (A) (A) (A) (A) (A) (A) (A) (A) (A) (A) (A) (A)
                 (A) (A) (A) (A) (A) (A) (A) (A) (A) (A) (A) (A)
                 (A) (A) (A) (A) (A) (A) (A) (A) (A) (A) (A) (A)
                 (A) (A) (A) (A) (A) (A) (A) (A) (A) (A) (A) (A)
                 (A) (A) (A) (A) (A) (A) (A) (A) (A) (A) (A) (A)
                 (A) (A) (A) (A) (A) (A) (A) (A) (A) (A) (A) (A)
                 (A) (A) (A) (A) (A) (A) (A) (A) (A) (A) (A) (A)
                 (A) (A) (A) (A) (A) (A) (A) (A) (A) (A) (A) (A)
                 (A) (A) (A) (A) (A) (A) (A) (A) (A) (A) (A) (A)
                 (A) (A) (A) (A) (A) (A) (A) (A) (A) (A) (A) (A)
                 (A) (A) (A) (A) (A) (A) (A) (A) (A) (A) (A) (A)
                 (A) (A) (A) (A) (A) (A) (A) (A) (A) (A) (A) (A)
                 (A) (A) (A)
 The electronic state is 1-A.
 Alpha  occ. eigenvalues --  -88.97744 -88.83853 -19.16405 -14.35516 -10.29219
 Alpha  occ. eigenvalues --  -10.28080 -10.27068 -10.26168 -10.24911 -10.24170
 Alpha  occ. eigenvalues --  -10.23384 -10.23308 -10.22553 -10.22394 -10.21305
 Alpha  occ. eigenvalues --  -10.20055 -10.19721  -8.03284  -7.89851  -5.99558
 Alpha  occ. eigenvalues --   -5.99447  -5.99177  -5.86684  -5.85634  -5.85391
 Alpha  occ. eigenvalues --   -1.05738  -0.97573  -0.89334  -0.84263  -0.81610
 Alpha  occ. eigenvalues --   -0.78973  -0.73046  -0.69975  -0.66500  -0.65257
 Alpha  occ. eigenvalues --   -0.62083  -0.60184  -0.57890  -0.57726  -0.55420
 Alpha  occ. eigenvalues --   -0.54634  -0.51970  -0.51188  -0.49732  -0.48346
 Alpha  occ. eigenvalues --   -0.46666  -0.46547  -0.45195  -0.42913  -0.41803
 Alpha  occ. eigenvalues --   -0.40971  -0.40159  -0.39890  -0.38332  -0.37448
 Alpha  occ. eigenvalues --   -0.36949  -0.35436  -0.35125  -0.32684  -0.30792
 Alpha  occ. eigenvalues --   -0.28972  -0.27021  -0.26232  -0.22672  -0.21844
 Alpha  occ. eigenvalues --   -0.19458  -0.17760  -0.16916
 Alpha virt. eigenvalues --   -0.13390  -0.11754  -0.09365  -0.07077  -0.06260
 Alpha virt. eigenvalues --   -0.04343  -0.02439  -0.00316   0.01919   0.02670
 Alpha virt. eigenvalues --    0.04198   0.04687   0.07980   0.08920   0.09880
 Alpha virt. eigenvalues --    0.10441   0.12085   0.12416   0.13424   0.14385
 Alpha virt. eigenvalues --    0.15712   0.16694   0.17386   0.18522   0.19947
 Alpha virt. eigenvalues --    0.21503   0.24473   0.25078   0.25717   0.25995
 Alpha virt. eigenvalues --    0.27155   0.27574   0.29807   0.30611   0.31127
 Alpha virt. eigenvalues --    0.31452   0.34029   0.34814   0.36148   0.36739
 Alpha virt. eigenvalues --    0.37696   0.38898   0.40058   0.40958   0.41850
 Alpha virt. eigenvalues --    0.42444   0.43238   0.43652   0.43906   0.44907
 Alpha virt. eigenvalues --    0.45685   0.46071   0.47008   0.47554   0.48037
 Alpha virt. eigenvalues --    0.49281   0.49581   0.50351   0.51081   0.51822
 Alpha virt. eigenvalues --    0.51971   0.52554   0.53931   0.55215   0.55959
 Alpha virt. eigenvalues --    0.57259   0.57624   0.59163   0.59608   0.60077
 Alpha virt. eigenvalues --    0.61295   0.61644   0.61947   0.63280   0.64486
 Alpha virt. eigenvalues --    0.65340   0.65515   0.66657   0.67353   0.68472
 Alpha virt. eigenvalues --    0.68908   0.69263   0.69863   0.70673   0.70948
 Alpha virt. eigenvalues --    0.71687   0.71959   0.73224   0.73908   0.74364
 Alpha virt. eigenvalues --    0.74421   0.75395   0.76513   0.77067   0.77644
 Alpha virt. eigenvalues --    0.77962   0.78474   0.79698   0.80064   0.80797
 Alpha virt. eigenvalues --    0.81503   0.81721   0.82125   0.83410   0.83679
 Alpha virt. eigenvalues --    0.84870   0.86256   0.86569   0.88341   0.88649
 Alpha virt. eigenvalues --    0.89644   0.90971   0.91726   0.92698   0.93275
 Alpha virt. eigenvalues --    0.94582   0.95732   0.96664   0.97340   0.97945
 Alpha virt. eigenvalues --    0.98701   0.99723   1.02009   1.02748   1.04294
 Alpha virt. eigenvalues --    1.05172   1.06821   1.07276   1.09183   1.09789
 Alpha virt. eigenvalues --    1.11747   1.12649   1.13221   1.14824   1.16223
 Alpha virt. eigenvalues --    1.17865   1.18483   1.20160   1.21484   1.22959
 Alpha virt. eigenvalues --    1.23819   1.24386   1.26362   1.28129   1.29401
 Alpha virt. eigenvalues --    1.30108   1.30520   1.31275   1.34165   1.34341
 Alpha virt. eigenvalues --    1.36259   1.37009   1.37793   1.39295   1.39635
 Alpha virt. eigenvalues --    1.40299   1.41945   1.43115   1.44267   1.44739
 Alpha virt. eigenvalues --    1.45954   1.46261   1.47598   1.47648   1.48663
 Alpha virt. eigenvalues --    1.50724   1.51004   1.52874   1.53325   1.54384
 Alpha virt. eigenvalues --    1.56544   1.57176   1.57932   1.60375   1.61262
 Alpha virt. eigenvalues --    1.62926   1.63740   1.64100   1.65651   1.67149
 Alpha virt. eigenvalues --    1.68171   1.70905   1.71697   1.72932   1.73639
 Alpha virt. eigenvalues --    1.74181   1.74612   1.75882   1.76482   1.77599
 Alpha virt. eigenvalues --    1.78073   1.78833   1.79645   1.80520   1.82181
 Alpha virt. eigenvalues --    1.82721   1.85171   1.86367   1.87550   1.88029
 Alpha virt. eigenvalues --    1.88795   1.91176   1.93151   1.95039   1.96012
 Alpha virt. eigenvalues --    1.97640   1.99008   2.01574   2.02242   2.03851
 Alpha virt. eigenvalues --    2.05047   2.11540   2.14859   2.18185   2.18410
 Alpha virt. eigenvalues --    2.21877   2.22269   2.23520   2.24280   2.25785
 Alpha virt. eigenvalues --    2.26918   2.29043   2.29810   2.30352   2.32304
 Alpha virt. eigenvalues --    2.33536   2.34155   2.35637   2.37253   2.37771
 Alpha virt. eigenvalues --    2.38452   2.40134   2.41086   2.42028   2.44084
 Alpha virt. eigenvalues --    2.44896   2.45381   2.46268   2.48918   2.51652
 Alpha virt. eigenvalues --    2.53295   2.55312   2.58044   2.61247   2.62163
 Alpha virt. eigenvalues --    2.62832   2.63862   2.65883   2.68124   2.71285
 Alpha virt. eigenvalues --    2.71832   2.74126   2.74521   2.76412   2.77339
 Alpha virt. eigenvalues --    2.77857   2.81616   2.83044   2.84830   2.85248
 Alpha virt. eigenvalues --    2.85564   2.87335   2.87966   2.89137   2.90151
 Alpha virt. eigenvalues --    2.91265   2.92321   2.93197   2.94572   2.95489
 Alpha virt. eigenvalues --    2.97106   2.97434   2.98523   2.98587   2.99922
 Alpha virt. eigenvalues --    3.02044   3.03484   3.04040   3.04828   3.05400
 Alpha virt. eigenvalues --    3.06095   3.08541   3.08759   3.10198   3.10554
 Alpha virt. eigenvalues --    3.11654   3.12036   3.12951   3.13302   3.13707
 Alpha virt. eigenvalues --    3.16807   3.17369   3.17762   3.18621   3.20149
 Alpha virt. eigenvalues --    3.21108   3.22721   3.24195   3.24882   3.26348
 Alpha virt. eigenvalues --    3.27508   3.28256   3.30030   3.30960   3.33008
 Alpha virt. eigenvalues --    3.33389   3.35623   3.36466   3.37384   3.38442
 Alpha virt. eigenvalues --    3.40170   3.41287   3.41557   3.43240   3.43784
 Alpha virt. eigenvalues --    3.45446   3.46249   3.48072   3.51256   3.51572
 Alpha virt. eigenvalues --    3.54450   3.54683   3.55478   3.55953   3.58382
 Alpha virt. eigenvalues --    3.59533   3.62145   3.64014   3.65622   3.66852
 Alpha virt. eigenvalues --    3.68830   3.70368   3.70889   3.73906   3.75492
 Alpha virt. eigenvalues --    3.78285   3.78785   3.81974   3.82916   3.86665
 Alpha virt. eigenvalues --    3.87694   3.89968   3.90600   3.91785   3.95084
 Alpha virt. eigenvalues --    3.95730   3.98830   4.01633   4.04207   4.05466
 Alpha virt. eigenvalues --    4.08640   4.09143   4.11903   4.14061   4.14125
 Alpha virt. eigenvalues --    4.16719   4.19637   4.20169   4.21186   4.21574
 Alpha virt. eigenvalues --    4.25400   4.25976   4.27258   4.27520   4.28276
 Alpha virt. eigenvalues --    4.31096   4.31759   4.33622   4.35617   4.38360
 Alpha virt. eigenvalues --    4.39698   4.41247   4.41854   4.43449   4.43975
 Alpha virt. eigenvalues --    4.44706   4.45801   4.47472   4.48678   4.50270
 Alpha virt. eigenvalues --    4.51045   4.51881   4.52369   4.53906   4.54192
 Alpha virt. eigenvalues --    4.54687   4.56411   4.57250   4.57968   4.59136
 Alpha virt. eigenvalues --    4.61411   4.62937   4.63386   4.64324   4.65577
 Alpha virt. eigenvalues --    4.66324   4.67552   4.68303   4.70325   4.71642
 Alpha virt. eigenvalues --    4.73828   4.73962   4.75324   4.76828   4.79060
 Alpha virt. eigenvalues --    4.80145   4.80426   4.82027   4.83457   4.83710
 Alpha virt. eigenvalues --    4.84887   4.86947   4.87785   4.90717   4.92961
 Alpha virt. eigenvalues --    4.94050   4.95476   4.97780   4.99685   5.00028
 Alpha virt. eigenvalues --    5.02709   5.04343   5.06193   5.06937   5.08744
 Alpha virt. eigenvalues --    5.09726   5.12085   5.14227   5.17420   5.21161
 Alpha virt. eigenvalues --    5.22441   5.24818   5.27391   5.30119   5.32090
 Alpha virt. eigenvalues --    5.33228   5.36247   5.39594   5.43090   5.43864
 Alpha virt. eigenvalues --    5.47219   5.50998   5.51915   5.55591   5.58219
 Alpha virt. eigenvalues --    5.63309   5.70324   5.88687   5.93667   6.00083
 Alpha virt. eigenvalues --    6.16897   6.20024   6.28909   6.75267   6.78992
 Alpha virt. eigenvalues --   10.35651  10.42660  10.56129  10.73693  11.06955
 Alpha virt. eigenvalues --   11.12277  11.16612  11.35668  11.49227  11.62898
 Alpha virt. eigenvalues --   11.71092  11.85311  12.02727  12.30549  12.96110
 Alpha virt. eigenvalues --   16.17261
          Condensed to atoms (all electrons):
               1          2          3          4          5          6
     1  O    7.711524   0.584532  -0.080763  -0.005802   0.000738  -0.000631
     2  C    0.584532   5.103624   0.190760  -0.082083  -0.001476   0.029819
     3  C   -0.080763   0.190760   5.183161   0.508809  -0.040615  -0.020375
     4  C   -0.005802  -0.082083   0.508809   5.087445   0.426368  -0.145847
     5  N    0.000738  -0.001476  -0.040615   0.426368   6.298354   0.582612
     6  C   -0.000631   0.029819  -0.020375  -0.145847   0.582612   4.796481
     7  C    0.000065  -0.003680  -0.000336   0.010232  -0.010759   0.460189
     8  C   -0.000000  -0.000238   0.000084  -0.000836  -0.001371  -0.011706
     9  C   -0.000000  -0.000000   0.000001  -0.000001  -0.000153   0.001125
    10  C   -0.000000   0.000000  -0.000000  -0.000000   0.000002  -0.000361
    11  S    0.000000  -0.000000  -0.000000  -0.000000  -0.000000   0.000012
    12  C   -0.000000   0.000000   0.000000   0.000000   0.000000  -0.000000
    13  C    0.000000  -0.000000   0.000000   0.000000   0.000000  -0.000000
    14  C    0.000000  -0.000000  -0.000000  -0.000000  -0.000000  -0.000000
    15  C   -0.000000  -0.000008  -0.000000  -0.000000   0.000001   0.000058
    16  C    0.000001   0.001208  -0.000004  -0.000026  -0.000044  -0.000603
    17  S   -0.008264   0.086976  -0.006638   0.005494  -0.012762  -0.029611
    18  H    0.002792  -0.022746   0.337692  -0.037262  -0.001895  -0.000040
    19  H    0.007051  -0.011533  -0.063984   0.350103  -0.057984   0.000551
    20  H    0.000002  -0.000853   0.002198  -0.012820  -0.059677   0.376159
    21  H    0.000002   0.000130   0.000139  -0.000035  -0.001619  -0.023323
    22  H   -0.000001   0.000014   0.000001  -0.000015   0.000100  -0.009561
    23  H   -0.000000   0.000001  -0.000000  -0.000000  -0.000002   0.000234
    24  H   -0.000000   0.000000  -0.000000  -0.000000   0.000000  -0.000020
    25  H   -0.000000   0.000000   0.000000  -0.000000  -0.000000   0.000000
    26  H   -0.000000   0.000000   0.000000  -0.000000  -0.000000   0.000000
    27  H   -0.000000  -0.000000  -0.000000   0.000000   0.000000  -0.000000
    28  H    0.000000  -0.000035  -0.000000   0.000001   0.000000  -0.000055
               7          8          9         10         11         12
     1  O    0.000065  -0.000000  -0.000000  -0.000000   0.000000  -0.000000
     2  C   -0.003680  -0.000238  -0.000000   0.000000  -0.000000   0.000000
     3  C   -0.000336   0.000084   0.000001  -0.000000  -0.000000   0.000000
     4  C    0.010232  -0.000836  -0.000001  -0.000000  -0.000000   0.000000
     5  N   -0.010759  -0.001371  -0.000153   0.000002  -0.000000   0.000000
     6  C    0.460189  -0.011706   0.001125  -0.000361   0.000012  -0.000000
     7  C    4.950487   0.481935  -0.016807   0.000573  -0.000552   0.000017
     8  C    0.481935   4.771608   0.534316  -0.013773  -0.004215   0.001514
     9  C   -0.016807   0.534316   4.843795   0.551604  -0.072274  -0.013247
    10  C    0.000573  -0.013773   0.551604   5.035807   0.309447  -0.018052
    11  S   -0.000552  -0.004215  -0.072274   0.309447  15.411882   0.278907
    12  C    0.000017   0.001514  -0.013247  -0.018052   0.278907   5.300753
    13  C   -0.000027   0.000080  -0.000798   0.002974  -0.065364   0.479426
    14  C   -0.000033   0.000338   0.002894   0.002103  -0.075282  -0.093843
    15  C    0.000492  -0.010673  -0.030087  -0.031943   0.111997  -0.033300
    16  C   -0.004656  -0.016221  -0.000592  -0.020774  -0.012388   0.000327
    17  S   -0.009287  -0.008692  -0.001938   0.000905   0.000744  -0.000006
    18  H    0.000022  -0.000001  -0.000000  -0.000000  -0.000000   0.000000
    19  H   -0.000668   0.000172   0.000000  -0.000000  -0.000000   0.000000
    20  H   -0.067039   0.007987   0.000562   0.000018  -0.000001  -0.000000
    21  H    0.367018  -0.039305  -0.008248   0.000622   0.000084  -0.000045
    22  H   -0.041755   0.376751  -0.051452  -0.004200   0.000172  -0.000005
    23  H   -0.005578  -0.030502   0.356159  -0.037164  -0.009623   0.007952
    24  H    0.000452  -0.006543  -0.043539   0.379186  -0.059430   0.003143
    25  H    0.000009  -0.000019   0.000365   0.005038  -0.025510   0.331545
    26  H    0.000000   0.000002   0.000039  -0.000003   0.006814  -0.047869
    27  H   -0.000000  -0.000001  -0.000037  -0.000103   0.007865   0.005214
    28  H   -0.000790   0.001900  -0.003953   0.003353   0.001581  -0.000068
              13         14         15         16         17         18
     1  O    0.000000   0.000000  -0.000000   0.000001  -0.008264   0.002792
     2  C   -0.000000  -0.000000  -0.000008   0.001208   0.086976  -0.022746
     3  C    0.000000  -0.000000  -0.000000  -0.000004  -0.006638   0.337692
     4  C    0.000000  -0.000000  -0.000000  -0.000026   0.005494  -0.037262
     5  N    0.000000  -0.000000   0.000001  -0.000044  -0.012762  -0.001895
     6  C   -0.000000  -0.000000   0.000058  -0.000603  -0.029611  -0.000040
     7  C   -0.000027  -0.000033   0.000492  -0.004656  -0.009287   0.000022
     8  C    0.000080   0.000338  -0.010673  -0.016221  -0.008692  -0.000001
     9  C   -0.000798   0.002894  -0.030087  -0.000592  -0.001938  -0.000000
    10  C    0.002974   0.002103  -0.031943  -0.020774   0.000905  -0.000000
    11  S   -0.065364  -0.075282   0.111997  -0.012388   0.000744  -0.000000
    12  C    0.479426  -0.093843  -0.033300   0.000327  -0.000006   0.000000
    13  C    4.873370   0.506963  -0.016722  -0.000104   0.000014   0.000000
    14  C    0.506963   5.181844   0.358205  -0.014878   0.000074  -0.000000
    15  C   -0.016722   0.358205   5.412124   0.385988  -0.007765  -0.000000
    16  C   -0.000104  -0.014878   0.385988   5.435960   0.168510  -0.000000
    17  S    0.000014   0.000074  -0.007765   0.168510  16.151304   0.000494
    18  H    0.000000  -0.000000  -0.000000  -0.000000   0.000494   0.541958
    19  H    0.000000  -0.000000  -0.000000  -0.000001   0.000664   0.007106
    20  H   -0.000000  -0.000000   0.000003   0.000016   0.001058   0.000007
    21  H   -0.000012   0.000043   0.000717   0.001431  -0.000698   0.000003
    22  H   -0.000001  -0.000006  -0.000066  -0.002676   0.002623  -0.000000
    23  H    0.000786   0.000229  -0.000143  -0.002355  -0.000248  -0.000000
    24  H   -0.000156  -0.000259  -0.000051  -0.000987   0.000051  -0.000000
    25  H   -0.028396   0.007828   0.000866   0.000002  -0.000001   0.000000
    26  H    0.366382  -0.029415   0.001984  -0.000004  -0.000000   0.000000
    27  H   -0.072968   0.362181  -0.032528   0.000403  -0.000007  -0.000000
    28  H    0.000039   0.001326  -0.017739   0.289125  -0.025996  -0.000000
              19         20         21         22         23         24
     1  O    0.007051   0.000002   0.000002  -0.000001  -0.000000  -0.000000
     2  C   -0.011533  -0.000853   0.000130   0.000014   0.000001   0.000000
     3  C   -0.063984   0.002198   0.000139   0.000001  -0.000000  -0.000000
     4  C    0.350103  -0.012820  -0.000035  -0.000015  -0.000000  -0.000000
     5  N   -0.057984  -0.059677  -0.001619   0.000100  -0.000002   0.000000
     6  C    0.000551   0.376159  -0.023323  -0.009561   0.000234  -0.000020
     7  C   -0.000668  -0.067039   0.367018  -0.041755  -0.005578   0.000452
     8  C    0.000172   0.007987  -0.039305   0.376751  -0.030502  -0.006543
     9  C    0.000000   0.000562  -0.008248  -0.051452   0.356159  -0.043539
    10  C   -0.000000   0.000018   0.000622  -0.004200  -0.037164   0.379186
    11  S   -0.000000  -0.000001   0.000084   0.000172  -0.009623  -0.059430
    12  C    0.000000  -0.000000  -0.000045  -0.000005   0.007952   0.003143
    13  C    0.000000  -0.000000  -0.000012  -0.000001   0.000786  -0.000156
    14  C   -0.000000  -0.000000   0.000043  -0.000006   0.000229  -0.000259
    15  C   -0.000000   0.000003   0.000717  -0.000066  -0.000143  -0.000051
    16  C   -0.000001   0.000016   0.001431  -0.002676  -0.002355  -0.000987
    17  S    0.000664   0.001058  -0.000698   0.002623  -0.000248   0.000051
    18  H    0.007106   0.000007   0.000003  -0.000000  -0.000000  -0.000000
    19  H    0.641198   0.016306   0.000020   0.000005  -0.000000  -0.000000
    20  H    0.016306   0.612911   0.004090   0.005506   0.000006  -0.000001
    21  H    0.000020   0.004090   0.535284   0.005227   0.003937   0.000009
    22  H    0.000005   0.005506   0.005227   0.592504   0.005281   0.004937
    23  H   -0.000000   0.000006   0.003937   0.005281   0.555267   0.004722
    24  H   -0.000000  -0.000001   0.000009   0.004937   0.004722   0.589877
    25  H    0.000000   0.000000  -0.000001  -0.000001  -0.000853  -0.000112
    26  H    0.000000  -0.000000  -0.000000   0.000000  -0.000020   0.000002
    27  H    0.000000   0.000000   0.000000   0.000000   0.000116   0.000003
    28  H    0.000000  -0.000019   0.000032   0.001061   0.000345   0.000451
              25         26         27         28
     1  O   -0.000000  -0.000000  -0.000000   0.000000
     2  C    0.000000   0.000000  -0.000000  -0.000035
     3  C    0.000000   0.000000  -0.000000  -0.000000
     4  C   -0.000000  -0.000000   0.000000   0.000001
     5  N   -0.000000  -0.000000   0.000000   0.000000
     6  C    0.000000   0.000000  -0.000000  -0.000055
     7  C    0.000009   0.000000  -0.000000  -0.000790
     8  C   -0.000019   0.000002  -0.000001   0.001900
     9  C    0.000365   0.000039  -0.000037  -0.003953
    10  C    0.005038  -0.000003  -0.000103   0.003353
    11  S   -0.025510   0.006814   0.007865   0.001581
    12  C    0.331545  -0.047869   0.005214  -0.000068
    13  C   -0.028396   0.366382  -0.072968   0.000039
    14  C    0.007828  -0.029415   0.362181   0.001326
    15  C    0.000866   0.001984  -0.032528  -0.017739
    16  C    0.000002  -0.000004   0.000403   0.289125
    17  S   -0.000001  -0.000000  -0.000007  -0.025996
    18  H    0.000000   0.000000  -0.000000  -0.000000
    19  H    0.000000   0.000000   0.000000   0.000000
    20  H    0.000000  -0.000000   0.000000  -0.000019
    21  H   -0.000001  -0.000000   0.000000   0.000032
    22  H   -0.000001   0.000000   0.000000   0.001061
    23  H   -0.000853  -0.000020   0.000116   0.000345
    24  H   -0.000112   0.000002   0.000003   0.000451
    25  H    0.559008   0.000834  -0.000270  -0.000003
    26  H    0.000834   0.550742  -0.001631  -0.000000
    27  H   -0.000270  -0.001631   0.593520  -0.000078
    28  H   -0.000003  -0.000000  -0.000078   0.588232
 Mulliken charges:
               1
     1  O   -0.211248
     2  C    0.125591
     3  C   -0.010129
     4  C   -0.103724
     5  N   -0.119819
     6  C   -0.005106
     7  C   -0.109524
     8  C   -0.032590
     9  C   -0.047733
    10  C   -0.165258
    11  S    0.195133
    12  C   -0.202362
    13  C   -0.045487
    14  C   -0.210313
    15  C   -0.091411
    16  C   -0.206659
    17  S   -0.306997
    18  H    0.171869
    19  H    0.110993
    20  H    0.113580
    21  H    0.154496
    22  H    0.115555
    23  H    0.151453
    24  H    0.128265
    25  H    0.149671
    26  H    0.152142
    27  H    0.138321
    28  H    0.161289
 Sum of Mulliken charges =  -0.00000
 Mulliken charges with hydrogens summed into heavy atoms:
               1
     1  O   -0.211248
     2  C    0.125591
     3  C    0.161740
     4  C    0.007270
     5  N   -0.119819
     6  C    0.108474
     7  C    0.044973
     8  C    0.082966
     9  C    0.103720
    10  C   -0.036993
    11  S    0.195133
    12  C   -0.052691
    13  C    0.106655
    14  C   -0.071992
    15  C   -0.091411
    16  C   -0.045370
    17  S   -0.306997
 Electronic spatial extent (au):  <R**2>=           6007.4033
 Charge=             -0.0000 electrons
 Dipole moment (field-independent basis, Debye):
    X=              4.3819    Y=             -4.6557    Z=              0.1324  Tot=              6.3949
 Quadrupole moment (field-independent basis, Debye-Ang):
   XX=            -90.0517   YY=           -124.6140   ZZ=           -106.4833
   XY=              6.3163   XZ=             -4.2524   YZ=              1.6039
 Traceless Quadrupole moment (field-independent basis, Debye-Ang):
   XX=             16.9979   YY=            -17.5643   ZZ=              0.5664
   XY=              6.3163   XZ=             -4.2524   YZ=              1.6039
 Octapole moment (field-independent basis, Debye-Ang**2):
  XXX=             26.9751  YYY=            -16.4262  ZZZ=            -11.0408  XYY=             18.9396
  XXY=            -36.3346  XXZ=             66.8361  XZZ=              0.8948  YZZ=             -6.9640
  YYZ=             -3.9975  XYZ=            -17.7159
 Hexadecapole moment (field-independent basis, Debye-Ang**3):
 XXXX=          -6001.7612 YYYY=          -1096.4886 ZZZZ=           -555.6266 XXXY=            119.4792
 XXXZ=            -61.7967 YYYX=            -35.0759 YYYZ=             -8.1672 ZZZX=            -30.5528
 ZZZY=             -5.3852 XXYY=          -1311.5899 XXZZ=          -1064.0021 YYZZ=           -277.9848
 XXYZ=             24.5909 YYXZ=              6.8748 ZZXY=             -9.5731
 N-N= 1.315272964769D+03 E-N=-5.989442476865D+03  KE= 1.419899760418D+03
 PrsmSu:  requested number of processors reduced to:  13 ShMem   1 Linda.
 Calling FoFJK, ICntrl=      2127 FMM=F ISym2X=0 I1Cent= 0 IOpClX= 0 NMat=1 NMatS=1 NMatT=0.
 ***** Axes restored to original set *****
 -------------------------------------------------------------------
 Center     Atomic                   Forces (Hartrees/Bohr)
 Number     Number              X              Y              Z
 -------------------------------------------------------------------
      1        8           0.042854555   -0.030455925   -0.030671615
      2        6          -0.059227308    0.000397132    0.089611229
      3        6          -0.046030144   -0.039236094   -0.050406657
      4        6           0.056567331    0.045426783    0.035906632
      5        7          -0.053076905    0.031557884   -0.003923630
      6        6           0.031757301   -0.010620447   -0.037893623
      7        6          -0.060761578    0.010046927    0.044926262
      8        6           0.062985078   -0.007981935   -0.025704608
      9        6          -0.046003787    0.013442684    0.025643183
     10        6           0.047312670   -0.011784820    0.001854540
     11       16          -0.022086301    0.046622371   -0.037687256
     12        6          -0.012230309   -0.037589302   -0.033741500
     13        6           0.040580241    0.067792651    0.046781572
     14        6          -0.001477381   -0.047403039    0.029178097
     15        6          -0.026085150   -0.023060607    0.007780945
     16        6           0.066257903   -0.042620161   -0.068049368
     17       16           0.014977506   -0.018284641   -0.034499720
     18        1           0.018839235   -0.019210148   -0.010001207
     19        1           0.004137771    0.010630020   -0.010397263
     20        1          -0.003307156    0.003248905   -0.007205373
     21        1           0.002000948    0.021918874   -0.002856600
     22        1          -0.002460246    0.019863892   -0.003398365
     23        1           0.014491971    0.022937364    0.003664827
     24        1          -0.002524121    0.011231657    0.013473340
     25        1           0.012148453   -0.022880424    0.028952714
     26        1          -0.021110249   -0.004478035    0.010845041
     27        1          -0.041165791   -0.003353277    0.025292379
     28        1          -0.017364532    0.013841711   -0.007473975
 -------------------------------------------------------------------
 Cartesian Forces:  Max     0.089611229 RMS     0.032820492

 GradGradGradGradGradGradGradGradGradGradGradGradGradGradGradGradGradGrad
 Berny optimization.
 FormGI is forming the generalized inverse of G from B-inverse, IUseBI=4.
 Internal  Forces:  Max     0.293078707 RMS     0.064323117
 Search for a local minimum.
 Step number   1 out of a maximum of  117
 All quantities printed in internal units (Hartrees-Bohrs-Radians)
 Mixed Optimization -- RFO/linear search
 Second derivative matrix not updated -- first step.
 ITU=  0
     Eigenvalues ---    0.00230   0.00230   0.00230   0.00230   0.00274
     Eigenvalues ---    0.00960   0.01442   0.01481   0.01607   0.01945
     Eigenvalues ---    0.02131   0.02145   0.02180   0.02227   0.02305
     Eigenvalues ---    0.02501   0.02736   0.02776   0.02913   0.02931
     Eigenvalues ---    0.03057   0.03124   0.03286   0.03361   0.06223
     Eigenvalues ---    0.10884   0.12736   0.14820   0.14833   0.15016
     Eigenvalues ---    0.15046   0.15538   0.15539   0.15603   0.15959
     Eigenvalues ---    0.15968   0.15971   0.16359   0.17329   0.19436
     Eigenvalues ---    0.21445   0.22004   0.22009   0.22048   0.22069
     Eigenvalues ---    0.22103   0.22130   0.22139   0.22221   0.22247
     Eigenvalues ---    0.22778   0.23032   0.25000   0.25000   0.25000
     Eigenvalues ---    0.25000   0.28730   0.29392   0.30185   0.31795
     Eigenvalues ---    0.32581   0.32596   0.32725   0.33233   0.33812
     Eigenvalues ---    0.34658   0.35121   0.37720   0.38390   0.38784
     Eigenvalues ---    0.43860   0.46155   0.53042   0.57730   0.60271
     Eigenvalues ---    0.61500   0.73237   0.89934
 RFO step:  Lambda=-5.83719650D-01 EMin= 2.30000000D-03
 Linear search not attempted -- first point.
 Maximum step size (   0.300) exceeded in Quadratic search.
    -- Step size scaled by   0.413
 Iteration  1 RMS(Cart)=  0.19540664 RMS(Int)=  0.02644808
 Iteration  2 RMS(Cart)=  0.27331328 RMS(Int)=  0.01619646
 Iteration  3 RMS(Cart)=  0.22733385 RMS(Int)=  0.00454565
 Iteration  4 RMS(Cart)=  0.01264062 RMS(Int)=  0.00021239
 Iteration  5 RMS(Cart)=  0.00004306 RMS(Int)=  0.00021204
 Iteration  6 RMS(Cart)=  0.00000000 RMS(Int)=  0.00021204
 Iteration  1 RMS(Cart)=  0.21119814 RMS(Int)=  0.02243906
 Iteration  2 RMS(Cart)=  0.29966686 RMS(Int)=  0.01280498
 Iteration  3 RMS(Cart)=  0.11769298 RMS(Int)=  0.00109022
 Iteration  4 RMS(Cart)=  0.00327466 RMS(Int)=  0.00017222
 Iteration  5 RMS(Cart)=  0.00000340 RMS(Int)=  0.00017222
 Iteration  6 RMS(Cart)=  0.00000000 RMS(Int)=  0.00017222
 ITry= 2 IFail=0 DXMaxC= 3.66D+00 DCOld= 4.05D+00 DXMaxT= 3.00D-01 DXLimC= 3.00D+00 Rises=F
 Iteration  1 RMS(Cart)=  0.22560068 RMS(Int)=  0.01860930
 Iteration  2 RMS(Cart)=  0.30652461 RMS(Int)=  0.00998523
 Iteration  3 RMS(Cart)=  0.03536305 RMS(Int)=  0.00015592
 Iteration  4 RMS(Cart)=  0.00032111 RMS(Int)=  0.00013644
 Iteration  5 RMS(Cart)=  0.00000005 RMS(Int)=  0.00013644
 ITry= 3 IFail=0 DXMaxC= 3.25D+00 DCOld= 3.66D+00 DXMaxT= 3.00D-01 DXLimC= 3.00D+00 Rises=F
 Iteration  1 RMS(Cart)=  0.23673741 RMS(Int)=  0.01505791
 Iteration  2 RMS(Cart)=  0.24637686 RMS(Int)=  0.00596903
 Iteration  3 RMS(Cart)=  0.01707703 RMS(Int)=  0.00010707
 Iteration  4 RMS(Cart)=  0.00008227 RMS(Int)=  0.00010475
 Iteration  5 RMS(Cart)=  0.00000000 RMS(Int)=  0.00010475
 ITry= 4 IFail=0 DXMaxC= 2.85D+00 DCOld= 3.25D+00 DXMaxT= 3.00D-01 DXLimC= 3.00D+00 Rises=F
 Variable       Old X    -DE/DX   Delta X   Delta X   Delta X     New X
                                 (Linear)    (Quad)   (Total)
    R1        2.32964  -0.03671   0.00000  -0.01021  -0.00715   2.32249
    R2        3.09214   0.02419   0.00000   0.01250   0.00875   3.10089
    R3        2.50726   0.09777   0.00000   0.03399   0.02380   2.53106
    R4        2.09794  -0.01282   0.00000  -0.00581  -0.00407   2.09387
    R5        2.56915   0.00726   0.00000   0.00269   0.00188   2.57103
    R6        2.11221  -0.00578   0.00000  -0.00264  -0.00185   2.11036
    R7        2.41782   0.03280   0.00000   0.01028   0.00720   2.42502
    R8        2.73240  -0.01945   0.00000  -0.00826  -0.00578   2.72662
    R9        2.08644  -0.00749   0.00000  -0.00337  -0.00236   2.08407
   R10        2.49772   0.06399   0.00000   0.02202   0.01542   2.51314
   R11        2.07648  -0.01141   0.00000  -0.00510  -0.00357   2.07291
   R12        2.66622   0.00430   0.00000   0.00173   0.00121   2.66743
   R13        2.06235  -0.00335   0.00000  -0.00148  -0.00104   2.06131
   R14        2.52783   0.04316   0.00000   0.01533   0.01073   2.53856
   R15        2.09766  -0.02064   0.00000  -0.00936  -0.00655   2.09111
   R16        3.22479   0.06981   0.00000   0.03080   0.02156   3.24635
   R17        2.01475   0.01279   0.00000   0.00549   0.00384   2.01859
   R18        3.59603  -0.04950   0.00000  -0.02624  -0.01837   3.57766
   R19        2.73801   0.03190   0.00000   0.01360   0.00952   2.74753
   R20        2.15893  -0.03233   0.00000  -0.01520  -0.01064   2.14829
   R21        2.63957   0.04739   0.00000   0.01870   0.01309   2.65266
   R22        2.09538  -0.01446   0.00000  -0.00655  -0.00458   2.09080
   R23        3.28166  -0.11880   0.00000  -0.06558  -0.04591   3.23575
   R24        2.17270  -0.02656   0.00000  -0.01258  -0.00880   2.16390
   R25        3.23990  -0.13398   0.00000  -0.07301  -0.05111   3.18879
   R26        4.03822  -0.03471   0.00000  -0.02067  -0.01447   4.02375
   R27        2.14295  -0.01938   0.00000  -0.00903  -0.00632   2.13663
    A1        1.70352   0.11298   0.00000   0.05590   0.03913   1.74265
    A2        1.80471   0.03772   0.00000   0.01952   0.01365   1.81836
    A3        2.32011  -0.03067   0.00000  -0.01615  -0.01133   2.30878
    A4        2.12133  -0.00212   0.00000  -0.00013  -0.00010   2.12124
    A5        1.73935   0.01309   0.00000   0.00721   0.00502   1.74437
    A6        1.97352   0.00407   0.00000   0.00317   0.00219   1.97571
    A7        2.08240   0.01078   0.00000   0.00714   0.00497   2.08737
    A8        2.02873  -0.00311   0.00000  -0.00154  -0.00108   2.02765
    A9        2.02302   0.02555   0.00000   0.01305   0.00912   2.03214
   A10        2.16541  -0.01503   0.00000  -0.00789  -0.00554   2.15988
   A11        2.09106  -0.01212   0.00000  -0.00626  -0.00440   2.08666
   A12        1.98810   0.01090   0.00000   0.00551   0.00385   1.99195
   A13        2.09296  -0.00641   0.00000  -0.00341  -0.00239   2.09057
   A14        2.16905  -0.00640   0.00000  -0.00343  -0.00240   2.16665
   A15        2.10061   0.03616   0.00000   0.01857   0.01300   2.11360
   A16        2.10475  -0.02060   0.00000  -0.01066  -0.00747   2.09728
   A17        2.02940  -0.01323   0.00000  -0.00654  -0.00458   2.02482
   A18        2.02593  -0.00946   0.00000  -0.00447  -0.00314   2.02279
   A19        2.00419   0.02011   0.00000   0.01144   0.00799   2.01219
   A20        2.15663  -0.00116   0.00000  -0.00045  -0.00034   2.15630
   A21        1.97511   0.13849   0.00000   0.07162   0.05004   2.02515
   A22        2.21426  -0.06209   0.00000  -0.03114  -0.02194   2.19231
   A23        1.96292  -0.04452   0.00000  -0.02076  -0.01460   1.94832
   A24        1.59098   0.02881   0.00000   0.01425   0.00998   1.60096
   A25        1.82641   0.19289   0.00000   0.09916   0.06931   1.89572
   A26        2.34210  -0.12621   0.00000  -0.06586  -0.04623   2.29588
   A27        2.11164  -0.06259   0.00000  -0.03051  -0.02146   2.09018
   A28        1.91224   0.29308   0.00000   0.14989   0.10516   2.01739
   A29        1.98789  -0.11982   0.00000  -0.06022  -0.04185   1.94604
   A30        2.29605  -0.17214   0.00000  -0.09098  -0.06356   2.23249
   A31        2.21918   0.16998   0.00000   0.08708   0.06085   2.28002
   A32        1.75425  -0.03197   0.00000  -0.01331  -0.00940   1.74485
   A33        2.08755  -0.08124   0.00000  -0.04185  -0.02958   2.05797
   A34        2.80995  -0.09362   0.00000  -0.04632  -0.03243   2.77752
   A35        2.75129  -0.06319   0.00000  -0.03237  -0.02265   2.72864
   A36        1.64121   0.03727   0.00000   0.01939   0.01358   1.65478
   A37        1.87587   0.02383   0.00000   0.01195   0.00837   1.88424
    D1        1.70217  -0.01384   0.00000  -0.00909  -0.00633   1.69584
    D2       -1.73651   0.00855   0.00000   0.00537   0.00372  -1.73279
    D3        1.27057   0.04317   0.00000   0.02871   0.02013   1.29070
    D4       -0.95918   0.01906   0.00000   0.01346   0.00944  -0.94974
    D5       -1.61680   0.03125   0.00000   0.02032   0.01421  -1.60259
    D6        2.43663   0.00714   0.00000   0.00507   0.00352   2.44015
    D7       -1.96141   0.00834   0.00000   0.00614   0.00428  -1.95713
    D8        0.19353   0.03005   0.00000   0.01999   0.01401   0.20753
    D9        2.85182  -0.01163   0.00000  -0.00794  -0.00556   2.84626
   D10       -0.19709   0.00896   0.00000   0.00616   0.00431  -0.19279
   D11        2.91326   0.03305   0.00000   0.02268   0.01588   2.92914
   D12       -0.49020   0.02478   0.00000   0.01705   0.01194  -0.47827
   D13       -0.31680   0.01311   0.00000   0.00907   0.00634  -0.31045
   D14        2.56292   0.00484   0.00000   0.00344   0.00240   2.56533
   D15       -3.06980  -0.00888   0.00000  -0.00613  -0.00429  -3.07409
   D16        0.41328  -0.01433   0.00000  -0.00954  -0.00668   0.40660
   D17        0.34681  -0.00036   0.00000  -0.00031  -0.00022   0.34659
   D18       -2.45331  -0.00581   0.00000  -0.00372  -0.00260  -2.45591
   D19       -2.89369  -0.00279   0.00000  -0.00196  -0.00138  -2.89508
   D20       -0.19213   0.01720   0.00000   0.01184   0.00830  -0.18383
   D21       -0.07940   0.00050   0.00000   0.00026   0.00018  -0.07922
   D22        2.62216   0.02049   0.00000   0.01406   0.00986   2.63202
   D23        2.41251   0.06056   0.00000   0.03961   0.02767   2.44019
   D24       -0.15640   0.00146   0.00000   0.00190   0.00137  -0.15504
   D25       -0.24663   0.03305   0.00000   0.02133   0.01489  -0.23174
   D26       -2.81555  -0.02605   0.00000  -0.01638  -0.01142  -2.82696
   D27        1.01714  -0.03066   0.00000  -0.02110  -0.01493   1.00221
   D28       -2.61276   0.00307   0.00000   0.00213   0.00165  -2.61111
   D29       -2.26331  -0.18970   0.00000  -0.13280  -0.09267  -2.35599
   D30        0.79163  -0.12992   0.00000  -0.09219  -0.06482   0.72681
   D31        0.30687  -0.06318   0.00000  -0.04215  -0.02918   0.27769
   D32       -2.45141  -0.02336   0.00000  -0.01711  -0.01196  -2.46337
   D33       -2.76228  -0.10695   0.00000  -0.07276  -0.05095  -2.81322
   D34        0.76263  -0.06712   0.00000  -0.04772  -0.03372   0.72891
   D35        0.46782   0.01065   0.00000   0.00987   0.00727   0.47509
   D36       -1.98340  -0.00804   0.00000  -0.00365  -0.00258  -1.98598
   D37        3.13487   0.01103   0.00000   0.00568   0.00401   3.13888
   D38        0.68365  -0.00767   0.00000  -0.00783  -0.00585   0.67781
   D39        1.70412   0.00494   0.00000   0.00689   0.00508   1.70920
   D40       -2.24152   0.07020   0.00000   0.04600   0.03194  -2.20958
   D41        0.18668   0.01842   0.00000   0.01301   0.00911   0.19579
   D42        3.05491   0.02087   0.00000   0.01465   0.01025   3.06515
   D43        2.85536   0.00115   0.00000   0.00102   0.00072   2.85608
         Item               Value     Threshold  Converged?
 Maximum Force            0.293079     0.000450     NO 
 RMS     Force            0.064323     0.000300     NO 
 Maximum Displacement     2.848950     0.001800     NO 
 RMS     Displacement     0.477827     0.001200     NO 
 Predicted change in Energy=-1.634201D-01
 GradGradGradGradGradGradGradGradGradGradGradGradGradGradGradGradGradGrad

                          Input orientation:                          
 ---------------------------------------------------------------------
 Center     Atomic      Atomic             Coordinates (Angstroms)
 Number     Number       Type             X           Y           Z
 ---------------------------------------------------------------------
      1          8           0        4.807010   -1.886855    0.001237
      2          6           0        4.994911   -1.869229   -1.213195
      3          6           0        3.872731   -0.756379   -1.654659
      4          6           0        4.563915    0.386958   -1.749409
      5          7           0        5.236144    0.159635   -2.910216
      6          6           0        6.507209    0.014831   -2.809258
      7          6           0        7.176283   -0.589616   -3.935690
      8          6           0        8.501815   -0.488384   -3.899093
      9          6           0        9.298573   -0.956898   -4.965927
     10          6           0       10.611521   -1.077594   -4.708654
     11         16           0       11.383187   -2.466612   -5.361593
     12          6           0       10.859489   -2.001377   -7.120446
     13          6           0       10.353573   -3.191863   -7.784305
     14          6           0       10.035613   -4.267690   -6.940532
     15          6           0        9.548527   -4.291402   -5.299157
     16          6           0        8.525850   -4.359793   -3.958675
     17         16           0        6.693390   -4.661109   -2.916984
     18          1           0        2.852032   -0.853097   -2.074837
     19          1           0        5.133728    0.634755   -0.821480
     20          1           0        7.078221    0.236372   -1.892125
     21          1           0        6.629595   -1.283615   -4.585895
     22          1           0        9.014342   -0.342743   -2.947283
     23          1           0        8.765679   -1.562425   -5.723459
     24          1           0       11.107792   -0.728093   -3.829679
     25          1           0       10.837611   -1.001526   -7.660994
     26          1           0       10.667361   -3.229165   -8.844621
     27          1           0       10.828075   -5.023351   -7.275492
     28          1           0        9.364330   -4.373613   -3.200289
 ---------------------------------------------------------------------
                    Distance matrix (angstroms):
                    1          2          3          4          5
     1  O    0.000000
     2  C    1.229008   0.000000
     3  C    2.211977   1.640919   0.000000
     4  C    2.879944   2.358741   1.339377   0.000000
     5  N    3.584527   2.656005   2.067462   1.360529   0.000000
     6  C    3.795519   2.895539   2.977976   2.244582   1.283264
     7  C    4.774481   3.715881   4.018005   3.543724   2.318860
     8  C    5.551566   4.628084   5.151479   4.571042   3.473099
     9  C    6.761040   5.782461   6.359596   5.879534   4.687848
    10  C    7.518665   6.662674   7.405495   6.890252   5.801706
    11  S    8.505419   7.640428   8.548287   8.227587   7.119871
    12  C    9.346871   8.325044   8.957659   8.613155   7.349696
    13  C    9.647905   8.581614   9.246916   9.096596   7.821596
    14  C    9.010817   7.997730   8.845953   8.863012   7.673302
    15  C    7.507197   6.580078   7.615341   7.702864   6.641944
    16  C    5.968759   5.119384   6.320174   6.565776   5.687412
    17  S    4.446451   3.685420   4.979609   5.601863   5.036188
    18  H    3.033261   2.523267   1.108029   2.138734   2.721667
    19  H    2.672476   2.538237   2.054156   1.116755   2.144539
    20  H    3.640235   3.038863   3.364092   2.522851   2.106097
    21  H    4.972674   3.793447   4.058377   3.886322   2.613920
    22  H    5.364671   4.636060   5.317719   4.666226   3.811632
    23  H    6.967672   5.886876   6.414498   6.103113   4.830885
    24  H    7.464483   6.746518   7.554974   6.956521   6.009137
    25  H    9.790900   8.744379   9.200311   8.731207   7.436035
    26  H   10.695546   9.605456  10.196922  10.033465   8.729218
    27  H    9.951965   8.984750   9.908463   9.952323   8.785709
    28  H    6.099417   5.414084   6.755073   6.914627   6.138111
                    6          7          8          9         10
     6  C    0.000000
     7  C    1.442867   0.000000
     8  C    2.327965   1.329897   0.000000
     9  C    3.658851   2.387551   1.411546   0.000000
    10  C    4.652577   3.554780   2.335255   1.343350   0.000000
    11  S    6.037146   4.822277   3.788745   2.604112   1.717896
    12  C    6.449325   5.069690   4.269062   2.858208   2.594534
    13  C    7.058930   5.628384   5.082585   3.748513   3.741163
    14  C    6.917879   5.543742   5.087832   3.924747   3.935691
    15  C    5.830340   4.603239   4.185538   3.360422   3.436163
    16  C    4.953121   4.004509   3.871942   3.631990   3.960470
    17  S    4.680885   4.224689   4.652588   4.970545   5.603874
    18  H    3.827923   4.715012   5.948191   7.065909   8.197381
    19  H    2.494397   3.920385   4.698634   6.087342   6.931701
    20  H    1.102845   2.206361   2.565115   3.975187   4.705693
    21  H    2.203946   1.096935   2.146927   2.715623   3.989142
    22  H    2.536262   2.101513   1.090797   2.129060   2.488657
    23  H    4.010111   2.582375   2.133424   1.106569   2.161487
    24  H    4.770593   3.935376   2.617899   2.148647   1.068191
    25  H    6.582151   5.239550   4.457707   3.103871   2.961962
    26  H    8.015983   6.576660   6.054726   4.699047   4.662467
    27  H    8.000026   6.644387   6.113712   4.920316   4.712171
    28  H    5.251142   4.432494   4.040701   3.846524   3.833327
                   11         12         13         14         15
    11  S    0.000000
    12  C    1.893216   0.000000
    13  C    2.730499   1.453931   0.000000
    14  C    2.748251   2.418122   1.403729   0.000000
    15  C    2.588384   3.206233   2.834263   1.712287   0.000000
    16  C    3.703604   4.583099   4.397736   3.343552   1.687436
    17  S    5.725917   6.488424   6.264698   5.245395   3.736742
    18  H    9.283684   9.533944   9.712928   9.324069   8.189092
    19  H    8.323872   8.911258   9.506352   9.246905   7.987933
    20  H    6.154353   6.829411   7.562969   7.383709   6.181506
    21  H    4.959619   4.983085   5.266807   5.103918   4.251552
    22  H    3.993887   4.854990   5.771291   5.691594   4.626940
    23  H    2.792821   2.555053   3.069782   3.226834   2.870575
    24  H    2.333463   3.537238   4.719965   4.832775   4.157865
    25  H    2.780535   1.136826   2.246570   3.439491   4.250094
    26  H    3.636671   2.125360   1.106402   2.259025   3.866581
    27  H    3.241616   3.026111   1.959181   1.145084   2.465541
    28  H    3.519045   4.819818   4.836149   3.801481   2.108539
                   16         17         18         19         20
    16  C    0.000000
    17  S    2.129277   0.000000
    18  H    6.930943   5.474139   0.000000
    19  H    6.803969   5.905071   2.998457   0.000000
    20  H    5.243185   5.018342   4.368180   2.255226   0.000000
    21  H    3.667705   3.767865   4.556395   4.482029   3.125383
    22  H    4.171118   4.902654   6.244653   4.531414   2.279758
    23  H    3.316210   4.666104   6.984756   6.484448   4.556567
    24  H    4.457836   5.982355   8.441130   6.826131   4.574030
    25  H    5.507210   7.285104   9.746623   9.054869   6.996088
    26  H    5.453151   7.278721  10.609196  10.484358   8.557399
    27  H    4.091678   6.018590  10.394955  10.300196   8.408730
    28  H    1.130658   2.701265   7.488037   6.974273   5.309384
                   21         22         23         24         25
    21  H    0.000000
    22  H    3.042582   0.000000
    23  H    2.436112   3.042468   0.000000
    24  H    4.575447   2.304268   3.125381   0.000000
    25  H    5.219503   5.096800   2.891635   3.850550   0.000000
    26  H    6.182675   6.770709   4.016972   5.621297   2.528307
    27  H    6.232720   6.628055   4.317440   5.513720   4.040270
    28  H    4.352789   4.053939   3.824598   4.089696   5.782683
                   26         27         28
    26  H    0.000000
    27  H    2.388953   0.000000
    28  H    5.904756   4.378583   0.000000
 Stoichiometry    C13H11NOS2
 Framework group  C1[X(C13H11NOS2)]
 Deg. of freedom    78
 Full point group                 C1      NOp   1
 Largest Abelian subgroup         C1      NOp   1
 Largest concise Abelian subgroup C1      NOp   1
                         Standard orientation:                         
 ---------------------------------------------------------------------
 Center     Atomic      Atomic             Coordinates (Angstroms)
 Number     Number       Type             X           Y           Z
 ---------------------------------------------------------------------
      1          8           0       -4.871755    0.971921   -1.053758
      2          6           0       -3.989119    0.732577   -0.232704
      3          6           0       -4.827099   -0.215931    0.811680
      4          6           0       -4.519411   -1.465255    0.439594
      5          7           0       -3.246870   -1.545124    0.914252
      6          6           0       -2.317246   -1.616604    0.032515
      7          6           0       -0.978788   -1.324202    0.485170
      8          6           0       -0.026963   -1.654454   -0.382924
      9          6           0        1.338860   -1.507742   -0.058171
     10          6           0        2.198381   -1.585880   -1.087593
     11         16           0        3.509483   -0.476164   -1.060989
     12          6           0        4.084222   -1.107326    0.628856
     13          6           0        4.392801    0.036820    1.471247
     14          6           0        3.890514    1.269952    1.026780
     15          6           0        2.521982    1.635119    0.064648
     16          6           0        0.945337    2.092976   -0.325219
     17         16           0       -1.002588    2.875874    0.030419
     18          1           0       -5.315013   -0.004253    1.783720
     19          1           0       -4.718486   -1.664057   -0.641141
     20          1           0       -2.502569   -1.791788   -1.040440
     21          1           0       -0.826976   -0.652954    1.339363
     22          1           0       -0.259623   -1.740037   -1.445177
     23          1           0        1.545958   -0.941578    0.869764
     24          1           0        1.949858   -1.877903   -2.084583
     25          1           0        4.162489   -2.158659    1.054233
     26          1           0        5.288683   -0.147801    2.093690
     27          1           0        4.872009    1.810015    0.789681
     28          1           0        1.114659    2.073854   -1.442964
 ---------------------------------------------------------------------
 Rotational constants (GHZ):           0.6298545           0.1791137           0.1531338
 Standard basis: 6-31G(2df,p) (6D, 7F)
 There are   590 symmetry adapted cartesian basis functions of A   symmetry.
 There are   539 symmetry adapted basis functions of A   symmetry.
   539 basis functions,   873 primitive gaussians,   590 cartesian basis functions
    68 alpha electrons       68 beta electrons
       nuclear repulsion energy      1225.4422305738 Hartrees.
 NAtoms=   28 NActive=   28 NUniq=   28 SFac= 1.00D+00 NAtFMM=   60 NAOKFM=F Big=F
 Integral buffers will be    131072 words long.
 Raffenetti 2 integral format.
 Two-electron integral symmetry is turned on.
 One-electron integrals computed using PRISM.
 PrsmSu:  requested number of processors reduced to:  12 ShMem   1 Linda.
 NBasis=   539 RedAO= T EigKep=  2.42D-04  NBF=   539
[...]
   R19        2.56249  -0.01050  -0.00055  -0.01605  -0.01660   2.54589
   R20        2.04807  -0.00080  -0.00006  -0.00217  -0.00223   2.04584
   R21        2.73499   0.00171   0.00039   0.00913   0.00952   2.74451
   R22        2.05726  -0.00075  -0.00011  -0.00264  -0.00274   2.05452
   R23        2.49926  -0.00154   0.00042  -0.00236  -0.00193   2.49733
   R24        2.06264  -0.00007  -0.00007  -0.00248  -0.00255   2.06009
   R25        2.51607  -0.00032  -0.00007   0.00703   0.00696   2.52303
   R26        3.24890  -0.00681  -0.00057  -0.01346  -0.01403   3.23487
   R27        2.07393  -0.00310  -0.00016  -0.00147  -0.00164   2.07230
    A1        3.14158  -0.00033   0.00119  -0.03655  -0.03535   3.10623
    A2        2.14360  -0.00086  -0.00006  -0.00623  -0.01013   2.13347
    A3        2.06956  -0.00231  -0.00027  -0.00884   0.00539   2.07496
    A4        2.06989   0.00319   0.00031   0.01481  -0.00660   2.06329
    A5        2.10631  -0.00029   0.00000  -0.00115  -0.00136   2.10495
    A6        2.05744  -0.00139  -0.00039  -0.00804  -0.00865   2.04879
    A7        2.11799   0.00172   0.00046   0.01105   0.01129   2.12928
    A8        2.05149   0.00269   0.00015   0.00475   0.00490   2.05639
    A9        2.11439   0.00197   0.00036   0.01059   0.01091   2.12530
   A10        2.07806  -0.00089  -0.00016  -0.00350  -0.00371   2.07435
   A11        2.09031  -0.00106  -0.00018  -0.00661  -0.00685   2.08346
   A12        2.15293   0.00076   0.00010   0.00200   0.00211   2.15503
   A13        2.05265  -0.00049  -0.00008  -0.00236  -0.00243   2.05021
   A14        2.07756  -0.00027  -0.00003   0.00034   0.00032   2.07787
   A15        2.17176   0.00016   0.00006   0.00153   0.00159   2.17335
   A16        2.04833   0.00012   0.00003   0.00137   0.00140   2.04973
   A17        2.06309  -0.00028  -0.00009  -0.00291  -0.00300   2.06010
   A18        2.14576   0.00094   0.00022   0.00603   0.00625   2.15201
   A19        2.07173  -0.00044  -0.00002  -0.00068  -0.00070   2.07103
   A20        2.06564  -0.00049  -0.00020  -0.00538  -0.00558   2.06006
   A21        2.23522  -0.00032  -0.00023  -0.00652  -0.00676   2.22846
   A22        2.08814   0.00031   0.00013   0.00344   0.00357   2.09170
   A23        1.95881   0.00000   0.00011   0.00330   0.00341   1.96222
   A24        1.85020  -0.00002  -0.00000   0.00075   0.00074   1.85094
   A25        2.10181  -0.00096   0.00006   0.00379   0.00378   2.10559
   A26        2.03416   0.00011  -0.00011  -0.00396  -0.00414   2.03002
   A27        2.14447   0.00088   0.00011   0.00166   0.00169   2.14617
   A28        2.20147  -0.00072   0.00003   0.00313   0.00309   2.20456
   A29        2.05184  -0.00022  -0.00011  -0.00410  -0.00428   2.04756
   A30        2.02979   0.00095   0.00009   0.00123   0.00126   2.03105
   A31        2.18519  -0.00060  -0.00036  -0.01031  -0.01083   2.17436
   A32        2.02489  -0.00009   0.00016   0.00564   0.00564   2.03053
   A33        2.07311   0.00069   0.00020   0.00470   0.00474   2.07785
   A34        3.05962  -0.00103   0.00004  -0.00748  -0.00744   3.05218
   A35        2.13809   0.00005   0.00038   0.01671   0.01666   2.15476
   A36        2.05226   0.00011  -0.00033  -0.01360  -0.01436   2.03789
   A37        2.09171  -0.00012   0.00009  -0.00084  -0.00118   2.09053
    D1       -2.54761   0.00058   3.14895  -0.01237   0.03539  -2.51222
    D2        0.61155  -0.00058   3.15029   0.00522  -0.14727   0.46427
    D3        2.74051   0.00293   0.01161   0.29327   0.20457   2.94508
    D4       -0.45821   0.00382   0.01293   0.33012   0.24259  -0.21562
    D5       -0.41865   0.00403   0.01027   0.27546   0.38619  -0.03247
    D6        2.66581   0.00492   0.01159   0.31230   0.42420   3.09001
    D7        3.07877   0.00124   0.00151   0.04326   0.04492   3.12369
    D8       -0.00369   0.00043   0.00017   0.00578   0.00580   0.00211
    D9        3.13338   0.00032   0.00036   0.00591   0.00628   3.13966
   D10        0.02309  -0.00051  -0.00033  -0.01165  -0.01199   0.01110
   D11       -3.10955  -0.00064  -0.00053  -0.01115  -0.01167  -3.12121
   D12        0.02075  -0.00047  -0.00052  -0.01220  -0.01272   0.00803
   D13        0.00054   0.00020   0.00017   0.00659   0.00675   0.00729
   D14        3.13083   0.00037   0.00017   0.00553   0.00570   3.13653
   D15        3.10003   0.00050  -0.00031  -0.00200  -0.00231   3.09772
   D16       -0.03846   0.00046  -0.00025   0.00063   0.00038  -0.03808
   D17       -0.03011   0.00032  -0.00032  -0.00091  -0.00123  -0.03134
   D18        3.11459   0.00028  -0.00026   0.00172   0.00147   3.11605
   D19       -3.13786   0.00000   0.00026   0.00691   0.00717  -3.13069
   D20       -0.00789   0.00010   0.00014   0.00463   0.00476  -0.00313
   D21        0.00060   0.00005   0.00020   0.00427   0.00447   0.00507
   D22        3.13057   0.00015   0.00008   0.00198   0.00206   3.13263
   D23       -3.10314  -0.00059  -0.00031  -0.01181  -0.01212  -3.11526
   D24        0.09092  -0.00050  -0.00050  -0.01781  -0.01831   0.07261
   D25        0.05003  -0.00069  -0.00018  -0.00957  -0.00975   0.04028
   D26       -3.03909  -0.00059  -0.00037  -0.01556  -0.01594  -3.05503
   D27        0.30758   0.00010  -0.00034  -0.00986  -0.01021   0.29737
   D28       -2.88327   0.00002  -0.00017  -0.00420  -0.00437  -2.88764
   D29       -2.39220   0.00197   0.00587   0.16726   0.17310  -2.21909
   D30        0.82662   0.00135   0.00502   0.14613   0.15118   0.97780
   D31        0.15986  -0.00039  -0.00054  -0.01913  -0.01969   0.14017
   D32       -2.96689  -0.00075  -0.00132  -0.04096  -0.04228  -3.00916
   D33       -3.06399   0.00022   0.00035   0.00314   0.00348  -3.06050
   D34        0.09245  -0.00014  -0.00043  -0.01870  -0.01910   0.07334
   D35        0.16731  -0.00060  -0.00231  -0.06104  -0.06338   0.10393
   D36       -2.97342  -0.00117  -0.00347  -0.09295  -0.09644  -3.06986
   D37       -2.98896  -0.00025  -0.00154  -0.03950  -0.04102  -3.02998
   D38        0.15350  -0.00081  -0.00270  -0.07140  -0.07408   0.07942
   D39        1.68347  -0.00138  -0.00027  -0.00959  -0.00986   1.67361
   D40       -1.45900  -0.00080   0.00092   0.02312   0.02403  -1.43497
   D41        0.06724  -0.00205  -0.00406  -0.09254  -0.09647  -0.02923
   D42       -3.12552  -0.00114  -0.00101  -0.04119  -0.04232   3.11534
   D43        3.08931   0.00094   0.00311   0.05212   0.05536  -3.13852
         Item               Value     Threshold  Converged?
 Maximum Force            0.014573     0.000450     NO 
 RMS     Force            0.002576     0.000300     NO 
 Maximum Displacement     0.933675     0.001800     NO 
 RMS     Displacement     0.215164     0.001200     NO 
 Predicted change in Energy=-4.419379D-03
 GradGradGradGradGradGradGradGradGradGradGradGradGradGradGradGradGradGrad

                          Input orientation:                          
 ---------------------------------------------------------------------
 Center     Atomic      Atomic             Coordinates (Angstroms)
 Number     Number       Type             X           Y           Z
 ---------------------------------------------------------------------
      1          8           0        1.962462    1.526389    0.914902
      2          6           0        2.531268    1.274716   -0.059396
      3          6           0        3.149352    0.961558   -1.199246
      4          6           0        4.551633    0.644963   -1.249882
      5          7           0        5.074840    0.138057   -2.320538
      6          6           0        6.417072   -0.121004   -2.313686
      7          6           0        7.051633   -0.657232   -3.398040
      8          6           0        8.429434   -0.961035   -3.422006
      9          6           0        9.082598   -1.548236   -4.486747
     10          6           0       10.444812   -1.849053   -4.478110
     11         16           0       11.357624   -2.529317   -5.721079
     12          6           0       10.403961   -2.336293   -7.186646
     13          6           0       10.134248   -3.395124   -7.974781
     14          6           0       10.418173   -4.786929   -7.672244
     15          6           0       10.887673   -5.222577   -6.516294
     16          6           0       11.249169   -5.686383   -5.317639
     17         16           0       10.132615   -6.237148   -4.142777
     18          1           0        2.551380    0.792430   -2.091921
     19          1           0        5.152509    0.867478   -0.357439
     20          1           0        6.993799    0.098006   -1.406682
     21          1           0        6.449832   -0.866320   -4.278165
     22          1           0        9.012531   -0.718173   -2.534557
     23          1           0        8.509061   -1.802537   -5.373958
     24          1           0       11.029737   -1.682204   -3.577744
     25          1           0       10.102932   -1.326150   -7.433717
     26          1           0        9.651182   -3.197051   -8.928422
     27          1           0       10.193587   -5.508316   -8.458114
     28          1           0       12.323396   -5.702397   -5.097782
 ---------------------------------------------------------------------
                    Distance matrix (angstroms):
                    1          2          3          4          5
     1  O    0.000000
     2  C    1.155913   0.000000
     3  C    2.489451   1.333924   0.000000
     4  C    3.488124   2.428111   1.438468   0.000000
     5  N    4.699195   3.588108   2.375490   1.294992   0.000000
     6  C    5.742929   4.704182   3.618275   2.279966   1.367021
     7  C    7.019211   5.942446   4.762664   3.544050   2.387720
     8  C    8.174214   7.148013   6.042871   4.725959   3.697910
     9  C    9.451321   8.395857   7.232575   5.984736   4.857795
    10  C   10.603228   9.586821   8.477866   7.167365   6.118850
    11  S   12.196477  11.154814  10.000445   8.740089   7.625742
    12  C   12.321294  11.216790   9.967654   8.853406   7.628954
    13  C   13.039396  11.927533  10.661957   9.628715   8.369674
    14  C   13.605003  12.526064  11.304007  10.255169   9.024824
    15  C   13.432446  12.399027  11.242604  10.114768   8.951525
    16  C   13.308327  12.333200  11.258922  10.074203   9.001614
    17  S   12.353300  11.440393  10.452354   9.320926   8.339357
    18  H    3.150635   2.089058   1.087678   2.175268   2.616929
    19  H    3.497059   2.669378   2.174886   1.098644   2.095673
    20  H    5.722271   4.807704   3.945697   2.507573   2.125828
    21  H    7.268390   6.143060   4.869707   3.880417   2.594548
    22  H    8.163351   7.218365   6.243510   4.838196   4.035387
    23  H    9.668995   8.570185   7.334502   6.217676   4.988301
    24  H   10.615762   9.661580   8.645646   7.266394   6.352536
    25  H   12.004318  10.884632   9.615327   8.540610   7.319167
    26  H   13.353588  12.220863  10.922819   9.986313   8.702297
    27  H   14.321031  13.238548  12.007152  11.029647   9.785343
    28  H   13.991307  13.036534  11.990412  10.746889   9.714194
                    6          7          8          9         10
     6  C    0.000000
     7  C    1.366027   0.000000
     8  C    2.446145   1.411101   0.000000
     9  C    3.723468   2.470626   1.380255   0.000000
    10  C    4.888105   3.755084   2.442474   1.395060   0.000000
    11  S    6.466788   5.238585   4.039745   2.768002   1.685514
    12  C    6.674468   5.330186   4.467954   3.107489   2.752316
    13  C    7.522317   6.159962   5.436814   4.084525   3.835818
    14  C    8.154374   6.830580   6.054509   4.735006   4.339853
    15  C    7.979614   6.729123   5.811910   4.569260   3.966231
    16  C    7.959041   6.826165   5.820072   4.744330   4.009601
    17  S    7.386342   6.417363   5.590859   4.817338   4.411949
    18  H    3.978331   4.905073   6.276566   7.339668   8.658961
    19  H    2.530438   3.895723   4.844921   6.191321   7.236569
    20  H    1.096921   2.130548   2.691494   4.069397   5.013401
    21  H    2.101367   1.086509   2.158889   2.727631   4.118933
    22  H    2.672415   2.143464   1.089288   2.122490   2.666030
    23  H    4.070532   2.709257   2.127107   1.086626   2.133505
    24  H    5.031090   4.111955   2.702946   2.153041   1.086570
    25  H    6.422823   5.103387   4.362079   3.126505   3.020914
    26  H    7.979740   6.617663   6.067376   4.771829   4.717226
    27  H    9.002177   7.681748   7.010877   5.717367   5.412371
    28  H    8.589983   7.492283   6.360164   5.304073   4.331436
                   11         12         13         14         15
    11  S    0.000000
    12  C    1.759153   0.000000
    13  C    2.706556   1.347229   0.000000
    14  C    3.128327   2.498324   1.452330   0.000000
    15  C    2.847257   3.002330   2.456506   1.321530   0.000000
    16  C    3.184587   3.928189   3.681484   2.654005   1.335129
    17  S    4.211852   4.955344   4.770886   3.826463   2.689433
    18  H   10.087355   9.869558  10.471081  11.142518  11.191478
    19  H    8.877516   9.191298  10.050442  10.639826  10.388087
    20  H    6.675313   7.138837   8.074918   8.651369   8.341402
    21  H    5.379032   5.123985   5.799547   6.529830   6.609132
    22  H    4.351279   5.118234   6.166065   6.702719   6.297622
    23  H    2.960239   2.676075   3.455698   4.222964   4.319653
    24  H    2.327873   3.720699   4.803117   5.174772   4.603205
    25  H    2.440285   1.082613   2.138781   3.483283   4.079170
    26  H    3.693895   2.083594   1.087206   2.166557   3.383789
    27  H    4.209606   3.423831   2.168574   1.090151   2.081842
    28  H    3.374856   4.402073   4.288707   3.331038   2.074537
                   16         17         18         19         20
    16  C    0.000000
    17  S    1.711822   0.000000
    18  H   11.315114  10.540214   0.000000
    19  H   10.233568   9.466041   3.127289   0.000000
    20  H    8.176974   7.581065   4.548282   2.254628   0.000000
    21  H    6.880926   6.513602   4.767499   4.478972   3.077537
    22  H    6.118105   5.856624   6.650137   4.706792   2.452249
    23  H    4.753486   4.880319   7.280081   6.600066   4.652672
    24  H    4.371365   4.676709   8.956228   7.170289   4.916447
    25  H    4.980289   5.911773   9.489421   8.910241   6.929651
    26  H    4.667772   5.690023  10.633010  10.498580   8.631086
    27  H    3.317913   4.376876  11.774174  11.475371   9.559926
    28  H    1.096612   2.448982  12.112402  10.819229   8.699051
                   21         22         23         24         25
    21  H    0.000000
    22  H    3.103150   0.000000
    23  H    2.513501   3.080832   0.000000
    24  H    4.704443   2.467127   3.097527   0.000000
    25  H    4.849133   5.055727   2.647636   3.981742   0.000000
    26  H    6.107850   6.887250   3.985388   5.729304   2.436902
    27  H    7.282569   7.709014   5.107098   6.257499   4.306753
    28  H    7.652331   6.509566   5.462082   4.488432   5.434942
                   26         27         28
    26  H    0.000000
    27  H    2.420195   0.000000
    28  H    5.300122   3.983163   0.000000
 Stoichiometry    C13H11NOS2
 Framework group  C1[X(C13H11NOS2)]
 Deg. of freedom    78
 Full point group                 C1      NOp   1
 Largest Abelian subgroup         C1      NOp   1
 Largest concise Abelian subgroup C1      NOp   1
                         Standard orientation:                         
 ---------------------------------------------------------------------
 Center     Atomic      Atomic             Coordinates (Angstroms)
 Number     Number       Type             X           Y           Z
 ---------------------------------------------------------------------
      1          8           0       -8.705694    0.934049    0.096856
      2          6           0       -7.683990    0.486158    0.399597
      3          6           0       -6.511884   -0.014748    0.792808
      4          6           0       -5.356172   -0.026147   -0.063572
      5          7           0       -4.186645   -0.315690    0.411166
      6          6           0       -3.131221   -0.330533   -0.457515
      7          6           0       -1.862821   -0.623120   -0.043289
      8          6           0       -0.744232   -0.625501   -0.903500
      9          6           0        0.552860   -0.869055   -0.499352
     10          6           0        1.642404   -0.852658   -1.370454
     11         16           0        3.257795   -1.166639   -1.005920
     12          6           0        3.254158   -1.994107    0.546466
     13          6           0        4.011396   -1.544477    1.565999
     14          6           0        4.759803   -0.300237    1.597875
     15          6           0        4.711510    0.628388    0.658851
     16          6           0        4.580976    1.622252   -0.223059
     17         16           0        3.485868    2.922823   -0.024097
     18          1           0       -6.380115   -0.285104    1.838077
     19          1           0       -5.512965    0.200616   -1.127064
     20          1           0       -3.310398   -0.088579   -1.512309
     21          1           0       -1.719825   -0.853527    1.008835
     22          1           0       -0.921088   -0.414946   -1.957510
     23          1           0        0.742014   -1.071887    0.551284
     24          1           0        1.498828   -0.573883   -2.410793
     25          1           0        2.659514   -2.896712    0.607740
     26          1           0        4.067145   -2.164517    2.457324
     27          1           0        5.375449   -0.128560    2.481015
     28          1           0        5.218182    1.578312   -1.114460
 ---------------------------------------------------------------------
 Rotational constants (GHZ):           0.7446117           0.0933725           0.0882835
 Standard basis: 6-31G(2df,p) (6D, 7F)
 There are   590 symmetry adapted cartesian basis functions of A   symmetry.
 There are   539 symmetry adapted basis functions of A   symmetry.
   539 basis functions,   873 primitive gaussians,   590 cartesian basis functions
    68 alpha electrons       68 beta electrons
       nuclear repulsion energy      1138.5587772013 Hartrees.
 NAtoms=   28 NActive=   28 NUniq=   28 SFac= 1.00D+00 NAtFMM=   60 NAOKFM=F Big=F
 Integral buffers will be    131072 words long.
 Raffenetti 2 integral format.
 Two-electron integral symmetry is turned on.
 One-electron integrals computed using PRISM.
 PrsmSu:  requested number of processors reduced to:  12 ShMem   1 Linda.
 NBasis=   539 RedAO= T EigKep=  2.59D-04  NBF=   539
 NBsUse=   539 1.00D-06 EigRej= -1.00D+00 NBFU=   539
 Initial guess from the checkpoint file:  "OdC1CdCNdCCdCCdCS2dCCdCC2dCS1.chk"
 B after Tr=     0.000000    0.000000    0.000000
         Rot=    0.999917   -0.003839    0.002156   -0.012114 Ang=  -1.48 deg.
 ExpMin= 1.17D-01 ExpMax= 2.19D+04 ExpMxC= 3.30D+03 IAcc=2 IRadAn=         4 AccDes= 0.00D+00
 Harris functional with IExCor=  402 and IRadAn=       4 diagonalized for initial guess.
 HarFok:  IExCor=  402 AccDes= 0.00D+00 IRadAn=         4 IDoV= 1 UseB2=F ITyADJ=14
 ICtDFT=  3500011 ScaDFX=  1.000000  1.000000  1.000000  1.000000
 FoFCou: FMM=F IPFlag=           0 FMFlag=      100000 FMFlg1=           0
         NFxFlg=           0 DoJE=T BraDBF=F KetDBF=T FulRan=T
         wScrn=  0.000000 ICntrl=       500 IOpCl=  0 I1Cent=   200000004 NGrid=           0
         NMat0=    1 NMatS0=      1 NMatT0=    0 NMatD0=    1 NMtDS0=    0 NMtDT0=    0
 Petite list used in FoFCou.
 Requested convergence on RMS density matrix=1.00D-08 within 128 cycles.
 Requested convergence on MAX density matrix=1.00D-06.
 Requested convergence on             energy=1.00D-06.
 No special actions if energy rises.
 Integral accuracy reduced to 1.0D-05 until final iterations.
slurmstepd: error: *** JOB 27446638 ON lewis4-r630-hpc4-node237 CANCELLED AT 2023-05-17T07:50:29 DUE TO TIME LIMIT ***
