### Starting Gaussian ###
 Entering Gaussian System, Link 0=g16
 Initial command:
 /cluster/software/gaussian/gaussian-16-A.03/avx2/g16/l1.exe "/local/scratch/cz9n3/Gau-18071.inp" -scrdir="/local/scratch/cz9n3/"
 Entering Link 1 = /cluster/software/gaussian/gaussian-16-A.03/avx2/g16/l1.exe PID=     18072.
  
 Copyright (c) 1988,1990,1992,1993,1995,1998,2003,2009,2016,
            Gaussian, Inc.  All Rights Reserved.
  
 This is part of the Gaussian(R) 16 program.  It is based on
 the Gaussian(R) 09 system (copyright 2009, Gaussian, Inc.),
 the Gaussian(R) 03 system (copyright 2003, Gaussian, Inc.),
 the Gaussian(R) 98 system (copyright 1998, Gaussian, Inc.),
 the Gaussian(R) 94 system (copyright 1995, Gaussian, Inc.),
 the Gaussian 92(TM) system (copyright 1992, Gaussian, Inc.),
 the Gaussian 90(TM) system (copyright 1990, Gaussian, Inc.),
 the Gaussian 88(TM) system (copyright 1988, Gaussian, Inc.),
 the Gaussian 86(TM) system (copyright 1986, Carnegie Mellon
 University), and the Gaussian 82(TM) system (copyright 1983,
 Carnegie Mellon University). Gaussian is a federally registered
 trademark of Gaussian, Inc.
  
 This software contains proprietary and confidential information,
 including trade secrets, belonging to Gaussian, Inc.
  
 This software is provided under written license and may be
 used, copied, transmitted, or stored only in accord with that
 written license.
  
 The following legend is applicable only to US Government
 contracts under FAR:
  
                    RESTRICTED RIGHTS LEGEND
  
 Use, reproduction and disclosure by the US Government is
 subject to restrictions as set forth in subparagraphs (a)
 and (c) of the Commercial Computer Software - Restricted
 Rights clause in FAR 52.227-19.
  
 Gaussian, Inc.
 340 Quinnipiac St., Bldg. 40, Wallingford CT 06492
  
  
 ---------------------------------------------------------------
 Warning -- This program may not be used in any manner that
 competes with the business of Gaussian, Inc. or will provide
 assistance to any competitor of Gaussian, Inc.  The licensee
 of this program is prohibited from giving any competitor of
 Gaussian, Inc. access to this program.  By using this program,
 the user acknowledges that Gaussian, Inc. is engaged in the
 business of creating and licensing software in the field of
 computational chemistry and represents and warrants to the
 licensee that it is not a competitor of Gaussian, Inc. and that
 it will not use this program in any manner prohibited above.
 ---------------------------------------------------------------
  

 Cite this work as:
 Gaussian 16, Revision A.03,
 M. J. Frisch, G. W. Trucks, H. B. Schlegel, G. E. Scuseria, 
 M. A. Robb, J. R. Cheeseman, G. Scalmani, V. Barone, 
 G. A. Petersson, H. Nakatsuji, X. Li, M. Caricato, A. V. Marenich, 
 J. Bloino, B. G. Janesko, R. Gomperts, B. Mennucci, H. P. Hratchian, 
 J. V. Ortiz, A. F. Izmaylov, J. L. Sonnenberg, D. Williams-Young, 
 F. Ding, F. Lipparini, F. Egidi, J. Goings, B. Peng, A. Petrone, 
 T. Henderson, D. Ranasinghe, V. G. Zakrzewski, J. Gao, N. Rega, 
 G. Zheng, W. Liang, M. Hada, M. Ehara, K. Toyota, R. Fukuda, 
 J. Hasegawa, M. Ishida, T. Nakajima, Y. Honda, O. Kitao, H. Nakai, 
 T. Vreven, K. Throssell, J. A. Montgomery, Jr., J. E. Peralta, 
 F. Ogliaro, M. J. Bearpark, J. J. Heyd, E. N. Brothers, K. N. Kudin, 
 V. N. Staroverov, T. A. Keith, R. Kobayashi, J. Normand, 
 K. Raghavachari, A. P. Rendell, J. C. Burant, S. S. Iyengar, 
 J. Tomasi, M. Cossi, J. M. Millam, M. Klene, C. Adamo, R. Cammi, 
 J. W. Ochterski, R. L. Martin, K. Morokuma, O. Farkas, 
 J. B. Foresman, and D. J. Fox, Gaussian, Inc., Wallingford CT, 2016.
 
 ******************************************
 Gaussian 16:  ES64L-G16RevA.03 25-Dec-2016
                17-May-2023 
 ******************************************
 %chk=Odc1cqdOrc2c1dCCdCCdCSCdCCd2.chk
 %NProcShared=20
 Will use up to   20 processors via shared memory.
 -----------------------------
 # opt freq b3lyp/6-31g(2df,p)
 -----------------------------
 1/18=20,19=15,26=3,38=1/1,3;
 2/9=110,12=2,17=6,18=5,40=1/2;
 3/5=1,6=6,7=104,11=2,25=1,30=1,71=1,74=-5/1,2,3;
 4//1;
 5/5=2,38=5/2;
 6/7=2,8=2,9=2,10=2,28=1/1;
 7//1,2,3,16;
 1/18=20,19=15,26=3/3(2);
 2/9=110/2;
 99//99;
 2/9=110/2;
 3/5=1,6=6,7=104,11=2,25=1,30=1,71=1,74=-5/1,2,3;
 4/5=5,16=3,69=1/1;
 5/5=2,38=5/2;
 7//1,2,3,16;
 1/18=20,19=15,26=3/3(-5);
 2/9=110/2;
 6/7=2,8=2,9=2,10=2,19=2,28=1/1;
 99/9=1/99;
 -------------------
 Title Card Required
 -------------------
 Symbolic Z-matrix:
 Charge =  0 Multiplicity = 1
 O                     3.54163  -1.29346  -1.44968 
 C                     4.60349  -1.29247  -2.50768 
 C                     4.35165   0.0009   -0.98034 
 O                     3.9518    1.18512  -0.27082 
 C                     5.66137  -0.68508  -2.12973 
 C                     6.48966  -1.82095  -3.63488 
 C                     7.81016  -2.57922  -4.72111 
 C                     9.74767  -3.4468   -5.34423 
 C                     10.79633  -3.08922  -4.47478 
 C                     9.60201  -3.87491  -3.7417 
 C                     9.40602  -2.63576  -3.14876 
 S                     7.97701  -3.1487   -2.27064 
 C                     7.86594  -1.0571   -2.14821 
 C                     6.73017  -0.9635   -1.41013 
 C                     5.99194   0.30736  -1.37124 
 H                     9.23579  -2.63054  -5.55106 
 H                     10.84345  -4.56292  -5.69324 
 H                     11.3293  -2.37359  -5.40827 
 H                     9.80828  -4.9365   -4.38525 
 H                     9.52613  -1.52445  -4.00313 
 H                     7.78224  -0.26588  -3.07441 
 H                     6.03472  -2.26065  -1.34326 
 H                     6.05279   1.25108  -1.81656 
 
 Add virtual bond connecting atoms H20        and C11        Dist= 2.66D+00.
 Add virtual bond connecting atoms H22        and C14        Dist= 2.78D+00.
 Add virtual bond connecting atoms H17        and C8         Dist= 3.03D+00.
 Add virtual bond connecting atoms H17        and H19        Dist= 3.23D+00.
 Add virtual bond connecting atoms H16        and C7         Dist= 3.12D+00.
 Add virtual bond connecting atoms C7         and C6         Dist= 3.53D+00.

 GradGradGradGradGradGradGradGradGradGradGradGradGradGradGradGradGradGrad
 Berny optimization.
 Initialization pass.
                           ----------------------------
                           !    Initial Parameters    !
                           ! (Angstroms and Degrees)  !
 --------------------------                            --------------------------
 ! Name  Definition              Value          Derivative Info.                !
 --------------------------------------------------------------------------------
 ! R1    R(1,2)                  1.499          estimate D2E/DX2                !
 ! R2    R(1,3)                  1.5974         estimate D2E/DX2                !
 ! R3    R(2,5)                  1.2771         estimate D2E/DX2                !
 ! R4    R(3,4)                  1.4372         estimate D2E/DX2                !
 ! R5    R(3,15)                 1.7138         estimate D2E/DX2                !
 ! R6    R(5,14)                 1.3182         estimate D2E/DX2                !
 ! R7    R(5,15)                 1.2921         estimate D2E/DX2                !
 ! R8    R(6,7)                  1.8705         estimate D2E/DX2                !
 ! R9    R(7,16)                 1.6504         estimate D2E/DX2                !
 ! R10   R(8,9)                  1.4084         estimate D2E/DX2                !
 ! R11   R(8,10)                 1.6651         estimate D2E/DX2                !
 ! R12   R(8,16)                 0.9854         estimate D2E/DX2                !
 ! R13   R(8,17)                 1.6026         estimate D2E/DX2                !
 ! R14   R(9,10)                 1.6066         estimate D2E/DX2                !
 ! R15   R(9,18)                 1.2914         estimate D2E/DX2                !
 ! R16   R(10,11)                1.3876         estimate D2E/DX2                !
 ! R17   R(10,19)                1.2584         estimate D2E/DX2                !
 ! R18   R(11,12)                1.7539         estimate D2E/DX2                !
 ! R19   R(11,20)                1.4069         estimate D2E/DX2                !
 ! R20   R(12,13)                2.0981         estimate D2E/DX2                !
 ! R21   R(13,14)                1.3578         estimate D2E/DX2                !
 ! R22   R(13,21)                1.221          estimate D2E/DX2                !
 ! R23   R(14,15)                1.4702         estimate D2E/DX2                !
 ! R24   R(14,22)                1.4733         estimate D2E/DX2                !
 ! R25   R(15,23)                1.0453         estimate D2E/DX2                !
 ! R26   R(17,19)                1.7094         estimate D2E/DX2                !
 ! A1    A(2,1,3)               81.2358         estimate D2E/DX2                !
 ! A2    A(1,2,5)              112.2246         estimate D2E/DX2                !
 ! A3    A(1,3,4)              132.1907         estimate D2E/DX2                !
 ! A4    A(1,3,15)             124.2767         estimate D2E/DX2                !
 ! A5    A(4,3,15)             103.3871         estimate D2E/DX2                !
 ! A6    A(2,5,14)             137.117          estimate D2E/DX2                !
 ! A7    A(2,5,15)             138.6749         estimate D2E/DX2                !
 ! A8    A(6,7,16)             156.1299         estimate D2E/DX2                !
 ! A9    A(9,8,16)             107.8207         estimate D2E/DX2                !
 ! A10   A(9,8,17)              78.5887         estimate D2E/DX2                !
 ! A11   A(10,8,16)            111.6864         estimate D2E/DX2                !
 ! A12   A(10,8,17)             95.1836         estimate D2E/DX2                !
 ! A13   A(16,8,17)            152.4188         estimate D2E/DX2                !
 ! A14   A(8,9,18)              90.1001         estimate D2E/DX2                !
 ! A15   A(10,9,18)            155.1861         estimate D2E/DX2                !
 ! A16   A(8,10,11)            101.1867         estimate D2E/DX2                !
 ! A17   A(8,10,19)             73.165          estimate D2E/DX2                !
 ! A18   A(9,10,11)             82.1407         estimate D2E/DX2                !
 ! A19   A(9,10,19)             93.2879         estimate D2E/DX2                !
 ! A20   A(10,11,12)            93.8906         estimate D2E/DX2                !
 ! A21   A(10,11,20)           115.7111         estimate D2E/DX2                !
 ! A22   A(12,11,20)           127.1999         estimate D2E/DX2                !
 ! A23   A(11,12,13)            77.3381         estimate D2E/DX2                !
 ! A24   A(12,13,14)            98.3214         estimate D2E/DX2                !
 ! A25   A(12,13,21)           127.2542         estimate D2E/DX2                !
 ! A26   A(14,13,21)           108.0795         estimate D2E/DX2                !
 ! A27   A(5,14,13)            113.3314         estimate D2E/DX2                !
 ! A28   A(5,14,22)             80.0967         estimate D2E/DX2                !
 ! A29   A(13,14,15)           119.6034         estimate D2E/DX2                !
 ! A30   A(13,14,22)           111.0283         estimate D2E/DX2                !
 ! A31   A(15,14,22)           121.5213         estimate D2E/DX2                !
 ! A32   A(3,15,5)              75.6223         estimate D2E/DX2                !
 ! A33   A(3,15,14)            109.3923         estimate D2E/DX2                !
 ! A34   A(3,15,23)            108.3201         estimate D2E/DX2                !
 ! A35   A(5,15,23)            117.2748         estimate D2E/DX2                !
 ! A36   A(14,15,23)           137.7235         estimate D2E/DX2                !
 ! A37   A(7,16,8)             111.6483         estimate D2E/DX2                !
 ! A38   A(8,17,19)             64.6271         estimate D2E/DX2                !
 ! A39   A(10,19,17)           107.8306         estimate D2E/DX2                !
 ! A40   L(11,10,19,9,-1)      175.4285         estimate D2E/DX2                !
 ! A41   L(11,10,19,9,-2)      183.4879         estimate D2E/DX2                !
 ! D1    D(3,1,2,5)             24.1612         estimate D2E/DX2                !
 ! D2    D(2,1,3,4)            152.1261         estimate D2E/DX2                !
 ! D3    D(2,1,3,15)           -22.725          estimate D2E/DX2                !
 ! D4    D(1,2,5,14)            81.9488         estimate D2E/DX2                !
 ! D5    D(1,2,5,15)           -32.3091         estimate D2E/DX2                !
 ! D6    D(1,3,15,5)            11.3781         estimate D2E/DX2                !
 ! D7    D(1,3,15,14)          -34.7338         estimate D2E/DX2                !
 ! D8    D(1,3,15,23)          125.8002         estimate D2E/DX2                !
 ! D9    D(4,3,15,5)          -164.7028         estimate D2E/DX2                !
 ! D10   D(4,3,15,14)          149.1854         estimate D2E/DX2                !
 ! D11   D(4,3,15,23)          -50.2806         estimate D2E/DX2                !
 ! D12   D(2,5,14,13)          109.5472         estimate D2E/DX2                !
 ! D13   D(2,5,14,22)            0.8            estimate D2E/DX2                !
 ! D14   D(2,5,15,3)            12.7461         estimate D2E/DX2                !
 ! D15   D(2,5,15,23)          -90.7225         estimate D2E/DX2                !
 ! D16   D(6,7,16,8)           130.3006         estimate D2E/DX2                !
 ! D17   D(16,8,9,18)          -65.3604         estimate D2E/DX2                !
 ! D18   D(17,8,9,18)           86.8811         estimate D2E/DX2                !
 ! D19   D(16,8,10,11)         -29.2843         estimate D2E/DX2                !
 ! D20   D(16,8,10,19)         151.7667         estimate D2E/DX2                !
 ! D21   D(17,8,10,11)         144.3649         estimate D2E/DX2                !
 ! D22   D(17,8,10,19)         -34.5841         estimate D2E/DX2                !
 ! D23   D(9,8,16,7)          -103.8578         estimate D2E/DX2                !
 ! D24   D(10,8,16,7)          -37.2091         estimate D2E/DX2                !
 ! D25   D(17,8,16,7)          156.5554         estimate D2E/DX2                !
 ! D26   D(9,8,17,19)           86.7143         estimate D2E/DX2                !
 ! D27   D(10,8,17,19)          26.2743         estimate D2E/DX2                !
 ! D28   D(16,8,17,19)        -166.5521         estimate D2E/DX2                !
 ! D29   D(18,9,10,11)         -89.5071         estimate D2E/DX2                !
 ! D30   D(18,9,10,19)          87.005          estimate D2E/DX2                !
 ! D31   D(8,10,11,12)         128.9398         estimate D2E/DX2                !
 ! D32   D(8,10,11,20)          -5.9164         estimate D2E/DX2                !
 ! D33   D(9,10,11,12)         176.4467         estimate D2E/DX2                !
 ! D34   D(9,10,11,20)          41.5905         estimate D2E/DX2                !
 ! D35   D(12,11,19,17)        162.0085         estimate D2E/DX2                !
 ! D36   D(20,11,19,17)         27.2171         estimate D2E/DX2                !
 ! D37   D(8,10,19,17)          33.8291         estimate D2E/DX2                !
 ! D38   D(9,10,19,17)         -13.5935         estimate D2E/DX2                !
 ! D39   D(10,11,12,13)       -164.3869         estimate D2E/DX2                !
 ! D40   D(20,11,12,13)        -37.6936         estimate D2E/DX2                !
 ! D41   D(11,12,13,14)       -179.0082         estimate D2E/DX2                !
 ! D42   D(11,12,13,21)         60.6419         estimate D2E/DX2                !
 ! D43   D(12,13,14,5)        -100.4186         estimate D2E/DX2                !
 ! D44   D(12,13,14,15)       -162.0287         estimate D2E/DX2                !
 ! D45   D(12,13,14,22)        -12.416          estimate D2E/DX2                !
 ! D46   D(21,13,14,5)          33.3159         estimate D2E/DX2                !
 ! D47   D(21,13,14,15)        -28.2942         estimate D2E/DX2                !
 ! D48   D(21,13,14,22)        121.3186         estimate D2E/DX2                !
 ! D49   D(13,14,15,3)         155.8301         estimate D2E/DX2                !
 ! D50   D(13,14,15,23)          3.882          estimate D2E/DX2                !
 ! D51   D(22,14,15,3)           9.4638         estimate D2E/DX2                !
 ! D52   D(22,14,15,23)       -142.4842         estimate D2E/DX2                !
 ! D53   D(8,17,19,10)         -37.7891         estimate D2E/DX2                !
 --------------------------------------------------------------------------------
 Trust Radius=3.00D-01 FncErr=1.00D-07 GrdErr=1.00D-06 EigMax=2.50D+02 EigMin=1.00D-04
 Number of steps in this run=    130 maximum allowed number of steps=    138.
 GradGradGradGradGradGradGradGradGradGradGradGradGradGradGradGradGradGrad

                          Input orientation:                          
 ---------------------------------------------------------------------
 Center     Atomic      Atomic             Coordinates (Angstroms)
 Number     Number       Type             X           Y           Z
 ---------------------------------------------------------------------
      1          8           0        3.541630   -1.293460   -1.449680
      2          6           0        4.603490   -1.292470   -2.507680
      3          6           0        4.351650    0.000900   -0.980340
      4          8           0        3.951800    1.185120   -0.270820
      5          6           0        5.661370   -0.685080   -2.129730
      6          6           0        6.489660   -1.820950   -3.634880
      7          6           0        7.810160   -2.579220   -4.721110
      8          6           0        9.747670   -3.446800   -5.344230
      9          6           0       10.796330   -3.089220   -4.474780
     10          6           0        9.602010   -3.874910   -3.741700
     11          6           0        9.406020   -2.635760   -3.148760
     12         16           0        7.977010   -3.148700   -2.270640
     13          6           0        7.865940   -1.057100   -2.148210
     14          6           0        6.730170   -0.963500   -1.410130
     15          6           0        5.991940    0.307360   -1.371240
     16          1           0        9.235790   -2.630540   -5.551060
     17          1           0       10.843450   -4.562920   -5.693240
     18          1           0       11.329300   -2.373590   -5.408270
     19          1           0        9.808280   -4.936500   -4.385250
     20          1           0        9.526130   -1.524450   -4.003130
     21          1           0        7.782240   -0.265880   -3.074410
     22          1           0        6.034720   -2.260650   -1.343260
     23          1           0        6.052790    1.251080   -1.816560
 ---------------------------------------------------------------------
                    Distance matrix (angstroms):
                    1          2          3          4          5
     1  O    0.000000
     2  C    1.498970   0.000000
     3  C    1.597429   2.017175   0.000000
     4  O    2.775123   3.400984   1.437246   0.000000
     5  C    2.307789   1.277059   1.872707   3.142582   0.000000
     6  C    3.707321   2.259980   3.864817   5.176301   2.059549
     7  C    5.529537   4.103380   5.710663   6.990156   3.862682
     8  C    7.636709   6.256975   7.749013   8.988119   5.887101
     9  C    8.062671   6.741592   7.955743   9.098948   6.135712
    10  C    6.974629   5.759948   7.086134   8.341210   5.319972
    11  C    6.251377   5.027893   6.099236   7.254666   4.343498
    12  S    4.877344   3.857773   4.972735   6.243684   3.384002
    13  C    4.386738   3.290623   3.851431   4.885963   2.235815
    14  C    3.205811   2.415700   2.602334   3.692416   1.318209
    15  C    2.927934   2.403902   1.713847   2.478620   1.292099
    16  H    7.143708   5.701824   7.188239   8.388131   5.316652
    17  H    9.056144   7.731800   9.229482  10.485106   7.388518
    18  H    8.802552   7.403969   8.598393   9.668780   6.762050
    19  H    7.820500   6.625259   8.108399   9.418127   6.352858
    20  H    6.510584   5.150007   6.183785   7.234989   4.376133
    21  H    4.656011   3.388144   4.028058   4.963647   2.359288
    22  H    2.676244   2.083666   2.842366   4.166775   1.800096
    23  H    3.593774   3.007950   2.270703   2.609180   2.000000
                    6          7          8          9         10
     6  C    0.000000
     7  C    1.870452   0.000000
     8  C    4.022424   2.212446   0.000000
     9  C    4.567422   3.039406   1.408366   0.000000
    10  C    3.730534   2.418426   1.665112   1.606585   0.000000
    11  C    3.066820   2.241038   2.365290   1.974061   1.387618
    12  S    2.415840   2.521299   3.559643   3.579153   2.309117
    13  C    2.165133   2.989946   4.412042   4.257890   3.673309
    14  C    2.396368   3.839208   5.545199   5.517646   4.707440
    15  C    3.146664   4.781202   6.632034   6.652133   6.011911
    16  H    3.445056   1.650416   0.985434   1.950398   2.226288
    17  H    5.541727   3.752459   1.602581   1.912762   2.413097
    18  H    5.183863   3.591493   1.912442   1.291351   2.831068
    19  H    4.613344   3.108385   1.772716   2.096831   1.258442
    20  H    3.073056   2.138361   2.354370   2.069871   2.366171
    21  H    2.098364   2.839708   4.374157   4.360851   4.096576
    22  H    2.377358   3.829301   5.585760   5.758982   4.591722
    23  H    3.596458   5.118199   6.940221   6.957407   6.525251
                   11         12         13         14         15
    11  C    0.000000
    12  S    1.753930   0.000000
    13  C    2.421800   2.098122   0.000000
    14  C    3.602702   2.658982   1.357754   0.000000
    15  C    4.845356   4.085802   2.444854   1.470232   0.000000
    16  H    2.408329   3.551644   3.991440   5.119029   6.051836
    17  H    3.500647   4.683021   5.807200   6.944057   8.120127
    18  H    2.978779   4.656540   4.935180   6.255036   7.209197
    19  H    2.642750   3.319842   4.881268   5.840448   7.151697
    20  H    1.406906   2.835398   2.532859   3.854310   4.772093
    21  H    2.873764   2.999105   1.221016   2.088864   2.536645
    22  H    3.842682   2.328338   2.334490   1.473336   2.568519
    23  H    5.303436   4.823575   2.953845   2.351254   1.045285
                   16         17         18         19         20
    16  H    0.000000
    17  H    2.517713   0.000000
    18  H    2.114047   2.260625   0.000000
    19  H    2.646566   1.709379   3.150965   0.000000
    20  H    1.924531   3.718078   2.438622   3.444954   0.000000
    21  H    3.719976   5.890147   4.740356   5.257169   2.342578
    22  H    5.299929   6.880891   6.676050   5.536572   4.450488
    23  H    6.256593   8.472406   7.340311   7.680366   4.954669
                   21         22         23
    21  H    0.000000
    22  H    3.166988   0.000000
    23  H    2.621898   3.543527   0.000000
 Stoichiometry    C12H8O2S
 Framework group  C1[X(C12H8O2S)]
 Deg. of freedom    63
 Full point group                 C1      NOp   1
 Largest Abelian subgroup         C1      NOp   1
 Largest concise Abelian subgroup C1      NOp   1
                         Standard orientation:                         
 ---------------------------------------------------------------------
 Center     Atomic      Atomic             Coordinates (Angstroms)
 Number     Number       Type             X           Y           Z
 ---------------------------------------------------------------------
      1          8           0        3.424111    1.510099    0.307842
      2          6           0        2.142290    1.250844   -0.424710
      3          6           0        3.633578   -0.041824   -0.007498
      4          8           0        4.815618   -0.838524   -0.191144
      5          6           0        1.798808    0.021766   -0.377100
      6          6           0       -0.044556    0.831364   -0.811038
      7          6           0       -1.893020    0.909465   -1.086126
      8          6           0       -4.050711    0.473800   -0.863676
      9          6           0       -4.282770   -0.785281   -0.276857
     10          6           0       -3.417679    0.199743    0.651830
     11          6           0       -2.416778   -0.717142    0.363728
     12         16           0       -1.179800    0.183788    1.220747
     13          6           0       -0.053923   -1.151567    0.058272
     14          6           0        1.183792   -0.777080    0.472179
     15          6           0        2.359597   -1.141411   -0.331766
     16          1           0       -3.371771    0.357563   -1.568382
     17          1           0       -5.564450    0.632015   -0.361853
     18          1           0       -4.770867   -1.217387   -1.391591
     19          1           0       -4.365508    1.015140    0.794749
     20          1           0       -2.369942   -1.171622   -0.966925
     21          1           0       -0.036237   -1.237837   -1.159564
     22          1           0        1.128751    0.486615    1.227669
     23          1           0        2.557230   -1.613749   -1.243061
 ---------------------------------------------------------------------
 Rotational constants (GHZ):           1.9677753           0.2789073           0.2720562
 Standard basis: 6-31G(2df,p) (6D, 7F)
 There are   509 symmetry adapted cartesian basis functions of A   symmetry.
 There are   464 symmetry adapted basis functions of A   symmetry.
   464 basis functions,   740 primitive gaussians,   509 cartesian basis functions
    56 alpha electrons       56 beta electrons
       nuclear repulsion energy      1001.7049981258 Hartrees.
 NAtoms=   23 NActive=   23 NUniq=   23 SFac= 1.00D+00 NAtFMM=   60 NAOKFM=F Big=F
 Integral buffers will be    131072 words long.
 Raffenetti 2 integral format.
 Two-electron integral symmetry is turned on.
 One-electron integrals computed using PRISM.
 PrsmSu:  requested number of processors reduced to:  12 ShMem   1 Linda.
 NBasis=   464 RedAO= T EigKep=  2.88D-04  NBF=   464
 NBsUse=   464 1.00D-06 EigRej= -1.00D+00 NBFU=   464
 ExpMin= 1.17D-01 ExpMax= 2.19D+04 ExpMxC= 3.30D+03 IAcc=3 IRadAn=         5 AccDes= 0.00D+00
 Harris functional with IExCor=  402 and IRadAn=       5 diagonalized for initial guess.
 HarFok:  IExCor=  402 AccDes= 0.00D+00 IRadAn=         5 IDoV= 1 UseB2=F ITyADJ=14
 ICtDFT=  3500011 ScaDFX=  1.000000  1.000000  1.000000  1.000000
 FoFCou: FMM=F IPFlag=           0 FMFlag=      100000 FMFlg1=           0
         NFxFlg=           0 DoJE=T BraDBF=F KetDBF=T FulRan=T
         wScrn=  0.000000 ICntrl=       500 IOpCl=  0 I1Cent=   200000004 NGrid=           0
         NMat0=    1 NMatS0=      1 NMatT0=    0 NMatD0=    1 NMtDS0=    0 NMtDT0=    0
 Petite list used in FoFCou.
 Requested convergence on RMS density matrix=1.00D-08 within 128 cycles.
 Requested convergence on MAX density matrix=1.00D-06.
 Requested convergence on             energy=1.00D-06.
 No special actions if energy rises.
 Integral accuracy reduced to 1.0D-05 until final iterations.
 EnCoef did     6 forward-backward iterations
 EnCoef did   100 forward-backward iterations
 EnCoef did   100 forward-backward iterations
 EnCoef did     3 forward-backward iterations
 EnCoef did     6 forward-backward iterations
 Initial convergence to 1.0D-05 achieved.  Increase integral accuracy.
 SCF Done:  E(RB3LYP) =  -1009.01806208     A.U. after   30 cycles
            NFock= 30  Conv=0.70D-08     -V/T= 2.0049

 **********************************************************************

            Population analysis using the SCF density.

 **********************************************************************

 Orbital symmetries:
       Occupied  (A) (A) (A) (A) (A) (A) (A) (A) (A) (A) (A) (A)
                 (A) (A) (A) (A) (A) (A) (A) (A) (A) (A) (A) (A)
                 (A) (A) (A) (A) (A) (A) (A) (A) (A) (A) (A) (A)
                 (A) (A) (A) (A) (A) (A) (A) (A) (A) (A) (A) (A)
                 (A) (A) (A) (A) (A) (A) (A) (A)
       Virtual   (A) (A) (A) (A) (A) (A) (A) (A) (A) (A) (A) (A)
                 (A) (A) (A) (A) (A) (A) (A) (A) (A) (A) (A) (A)
                 (A) (A) (A) (A) (A) (A) (A) (A) (A) (A) (A) (A)
                 (A) (A) (A) (A) (A) (A) (A) (A) (A) (A) (A) (A)
                 (A) (A) (A) (A) (A) (A) (A) (A) (A) (A) (A) (A)
                 (A) (A) (A) (A) (A) (A) (A) (A) (A) (A) (A) (A)
                 (A) (A) (A) (A) (A) (A) (A) (A) (A) (A) (A) (A)
                 (A) (A) (A) (A) (A) (A) (A) (A) (A) (A) (A) (A)
                 (A) (A) (A) (A) (A) (A) (A) (A) (A) (A) (A) (A)
                 (A) (A) (A) (A) (A) (A) (A) (A) (A) (A) (A) (A)
                 (A) (A) (A) (A) (A) (A) (A) (A) (A) (A) (A) (A)
                 (A) (A) (A) (A) (A) (A) (A) (A) (A) (A) (A) (A)
                 (A) (A) (A) (A) (A) (A) (A) (A) (A) (A) (A) (A)
                 (A) (A) (A) (A) (A) (A) (A) (A) (A) (A) (A) (A)
                 (A) (A) (A) (A) (A) (A) (A) (A) (A) (A) (A) (A)
                 (A) (A) (A) (A) (A) (A) (A) (A) (A) (A) (A) (A)
                 (A) (A) (A) (A) (A) (A) (A) (A) (A) (A) (A) (A)
                 (A) (A) (A) (A) (A) (A) (A) (A) (A) (A) (A) (A)
                 (A) (A) (A) (A) (A) (A) (A) (A) (A) (A) (A) (A)
                 (A) (A) (A) (A) (A) (A) (A) (A) (A) (A) (A) (A)
                 (A) (A) (A) (A) (A) (A) (A) (A) (A) (A) (A) (A)
                 (A) (A) (A) (A) (A) (A) (A) (A) (A) (A) (A) (A)
                 (A) (A) (A) (A) (A) (A) (A) (A) (A) (A) (A) (A)
                 (A) (A) (A) (A) (A) (A) (A) (A) (A) (A) (A) (A)
                 (A) (A) (A) (A) (A) (A) (A) (A) (A) (A) (A) (A)
                 (A) (A) (A) (A) (A) (A) (A) (A) (A) (A) (A) (A)
                 (A) (A) (A) (A) (A) (A) (A) (A) (A) (A) (A) (A)
                 (A) (A) (A) (A) (A) (A) (A) (A) (A) (A) (A) (A)
                 (A) (A) (A) (A) (A) (A) (A) (A) (A) (A) (A) (A)
                 (A) (A) (A) (A) (A) (A) (A) (A) (A) (A) (A) (A)
                 (A) (A) (A) (A) (A) (A) (A) (A) (A) (A) (A) (A)
                 (A) (A) (A) (A) (A) (A) (A) (A) (A) (A) (A) (A)
                 (A) (A) (A) (A) (A) (A) (A) (A) (A) (A) (A) (A)
                 (A) (A) (A) (A) (A) (A) (A) (A) (A) (A) (A) (A)
 The electronic state is 1-A.
 Alpha  occ. eigenvalues --  -88.95976 -19.23768 -19.16367 -10.38192 -10.30239
 Alpha  occ. eigenvalues --  -10.29723 -10.28738 -10.28231 -10.27860 -10.27084
 Alpha  occ. eigenvalues --  -10.26680 -10.24327 -10.23215 -10.23154 -10.22308
 Alpha  occ. eigenvalues --   -8.01436  -5.97716  -5.97562  -5.97327  -1.07086
 Alpha  occ. eigenvalues --   -1.00761  -0.97336  -0.95250  -0.84732  -0.78463
 Alpha  occ. eigenvalues --   -0.75231  -0.70028  -0.66410  -0.64233  -0.62988
 Alpha  occ. eigenvalues --   -0.60150  -0.59062  -0.52543  -0.52476  -0.49865
 Alpha  occ. eigenvalues --   -0.48377  -0.46836  -0.44511  -0.43882  -0.43661
 Alpha  occ. eigenvalues --   -0.42771  -0.42177  -0.39880  -0.37984  -0.37791
 Alpha  occ. eigenvalues --   -0.34416  -0.33013  -0.31853  -0.30795  -0.27594
 Alpha  occ. eigenvalues --   -0.26860  -0.25726  -0.24971  -0.21264  -0.19088
 Alpha  occ. eigenvalues --   -0.17504
 Alpha virt. eigenvalues --   -0.12208  -0.11865  -0.10791  -0.09504  -0.08295
 Alpha virt. eigenvalues --   -0.07841  -0.06648  -0.05910  -0.04030  -0.03328
 Alpha virt. eigenvalues --   -0.02476  -0.01069   0.01184   0.02955   0.05330
 Alpha virt. eigenvalues --    0.09193   0.10336   0.11101   0.13049   0.13535
 Alpha virt. eigenvalues --    0.17596   0.19218   0.19239   0.21432   0.21804
 Alpha virt. eigenvalues --    0.23780   0.26411   0.27913   0.28713   0.30636
 Alpha virt. eigenvalues --    0.31708   0.32304   0.34178   0.36275   0.37546
 Alpha virt. eigenvalues --    0.39835   0.40336   0.41912   0.43041   0.43368
 Alpha virt. eigenvalues --    0.44948   0.45506   0.47133   0.47648   0.48254
 Alpha virt. eigenvalues --    0.48918   0.50297   0.51077   0.51976   0.52380
 Alpha virt. eigenvalues --    0.53546   0.54998   0.55373   0.56030   0.56356
 Alpha virt. eigenvalues --    0.57323   0.58651   0.58746   0.59315   0.60607
 Alpha virt. eigenvalues --    0.61034   0.61786   0.62728   0.64265   0.65345
 Alpha virt. eigenvalues --    0.65591   0.66903   0.67561   0.68308   0.69261
 Alpha virt. eigenvalues --    0.69536   0.70944   0.71682   0.72543   0.72793
 Alpha virt. eigenvalues --    0.74445   0.75544   0.76364   0.77019   0.78135
 Alpha virt. eigenvalues --    0.78596   0.79907   0.81134   0.82238   0.82785
 Alpha virt. eigenvalues --    0.84247   0.85522   0.85817   0.87448   0.87821
 Alpha virt. eigenvalues --    0.88581   0.90364   0.92332   0.92725   0.93048
 Alpha virt. eigenvalues --    0.94974   0.96194   0.96735   0.97126   0.99003
 Alpha virt. eigenvalues --    1.00304   1.00815   1.02348   1.03283   1.05225
 Alpha virt. eigenvalues --    1.05705   1.06518   1.07932   1.08520   1.09165
 Alpha virt. eigenvalues --    1.12017   1.13005   1.14257   1.14611   1.17031
 Alpha virt. eigenvalues --    1.19200   1.19424   1.20883   1.21260   1.23838
 Alpha virt. eigenvalues --    1.24740   1.26233   1.28256   1.29647   1.31327
 Alpha virt. eigenvalues --    1.32116   1.33483   1.35552   1.35833   1.37175
 Alpha virt. eigenvalues --    1.38332   1.40830   1.42914   1.43985   1.44312
 Alpha virt. eigenvalues --    1.45429   1.47112   1.47736   1.49048   1.50089
 Alpha virt. eigenvalues --    1.51008   1.52276   1.53623   1.54664   1.56341
 Alpha virt. eigenvalues --    1.56788   1.59045   1.59863   1.61369   1.62257
 Alpha virt. eigenvalues --    1.63819   1.64527   1.66430   1.66770   1.68568
 Alpha virt. eigenvalues --    1.70067   1.71592   1.73063   1.73504   1.75408
 Alpha virt. eigenvalues --    1.76781   1.77868   1.79570   1.82165   1.83328
 Alpha virt. eigenvalues --    1.84380   1.85413   1.86678   1.88047   1.89098
 Alpha virt. eigenvalues --    1.90596   1.91789   1.96471   1.98409   1.99451
 Alpha virt. eigenvalues --    2.02528   2.04864   2.06076   2.07297   2.09745
 Alpha virt. eigenvalues --    2.11056   2.12994   2.13898   2.14748   2.18134
 Alpha virt. eigenvalues --    2.18643   2.21025   2.22729   2.24915   2.28216
 Alpha virt. eigenvalues --    2.30707   2.31121   2.32584   2.34675   2.38273
 Alpha virt. eigenvalues --    2.39755   2.42145   2.43771   2.45562   2.47719
 Alpha virt. eigenvalues --    2.48650   2.49885   2.51454   2.52559   2.55043
 Alpha virt. eigenvalues --    2.57282   2.59255   2.61819   2.62137   2.63556
 Alpha virt. eigenvalues --    2.64804   2.67344   2.69402   2.71187   2.73400
 Alpha virt. eigenvalues --    2.76181   2.76689   2.80002   2.80813   2.81841
 Alpha virt. eigenvalues --    2.83524   2.85662   2.86070   2.87063   2.89124
 Alpha virt. eigenvalues --    2.89631   2.91051   2.92500   2.94758   2.95758
 Alpha virt. eigenvalues --    2.97436   2.98510   2.99148   3.01619   3.03598
 Alpha virt. eigenvalues --    3.05221   3.05753   3.06712   3.07837   3.08737
 Alpha virt. eigenvalues --    3.10272   3.11718   3.13033   3.14396   3.15737
 Alpha virt. eigenvalues --    3.16552   3.18714   3.20475   3.21902   3.23117
 Alpha virt. eigenvalues --    3.23295   3.24849   3.28088   3.28612   3.30496
 Alpha virt. eigenvalues --    3.31881   3.33252   3.36352   3.36844   3.38802
 Alpha virt. eigenvalues --    3.39565   3.40663   3.44458   3.44999   3.46285
 Alpha virt. eigenvalues --    3.48197   3.50993   3.54262   3.55000   3.56682
 Alpha virt. eigenvalues --    3.58965   3.61813   3.62486   3.65054   3.66935
 Alpha virt. eigenvalues --    3.68155   3.69297   3.71884   3.75128   3.77355
 Alpha virt. eigenvalues --    3.77909   3.80997   3.82054   3.83345   3.87055
 Alpha virt. eigenvalues --    3.88048   3.91740   3.92444   3.94527   3.97054
 Alpha virt. eigenvalues --    3.99498   4.03608   4.05265   4.11190   4.12493
 Alpha virt. eigenvalues --    4.13198   4.16226   4.17429   4.18100   4.19214
 Alpha virt. eigenvalues --    4.20713   4.22204   4.23232   4.24973   4.25414
 Alpha virt. eigenvalues --    4.26510   4.28725   4.31484   4.32425   4.34952
 Alpha virt. eigenvalues --    4.35675   4.38313   4.38805   4.40529   4.42570
 Alpha virt. eigenvalues --    4.44044   4.44793   4.46986   4.47158   4.48416
 Alpha virt. eigenvalues --    4.50848   4.52141   4.52881   4.53874   4.55214
 Alpha virt. eigenvalues --    4.56732   4.57640   4.59428   4.60033   4.62367
 Alpha virt. eigenvalues --    4.63509   4.64925   4.65875   4.68288   4.68913
 Alpha virt. eigenvalues --    4.70498   4.72977   4.74680   4.77202   4.78579
 Alpha virt. eigenvalues --    4.79567   4.81054   4.82540   4.84428   4.86108
 Alpha virt. eigenvalues --    4.87759   4.90425   4.91873   4.93280   4.93815
 Alpha virt. eigenvalues --    4.98550   4.99354   5.02554   5.03235   5.04311
 Alpha virt. eigenvalues --    5.05894   5.06466   5.07643   5.09390   5.10437
 Alpha virt. eigenvalues --    5.12773   5.13705   5.15902   5.18900   5.20111
 Alpha virt. eigenvalues --    5.21839   5.22898   5.23671   5.27133   5.33779
 Alpha virt. eigenvalues --    5.36491   5.38289   5.43015   5.45107   5.48625
 Alpha virt. eigenvalues --    5.51093   5.52920   5.55907   5.58279   5.62191
 Alpha virt. eigenvalues --    5.64321   5.70218   5.73951   5.74402   5.80394
 Alpha virt. eigenvalues --    5.93032   5.97465   6.06420   6.11111   6.37802
 Alpha virt. eigenvalues --    6.50744   6.65286   6.84667   6.95298  10.14992
 Alpha virt. eigenvalues --   10.60555  10.71865  10.76873  11.15094  11.41932
 Alpha virt. eigenvalues --   11.50221  11.61541  11.76066  11.92017  12.50662
 Alpha virt. eigenvalues --   12.87596  12.96542  13.19415
          Condensed to atoms (all electrons):
               1          2          3          4          5          6
     1  O    7.858919   0.278843   0.221603  -0.015265  -0.069081   0.001293
     2  C    0.278843   5.494877  -0.127148   0.003446   0.696053  -0.003275
     3  C    0.221603  -0.127148   4.790831   0.499122  -0.011965   0.001680
     4  O   -0.015265   0.003446   0.499122   7.939854  -0.007719  -0.000018
     5  C   -0.069081   0.696053  -0.011965  -0.007719   4.533118   0.096037
     6  C    0.001293  -0.003275   0.001680  -0.000018   0.096037   5.995670
     7  C   -0.000010   0.001425  -0.000023  -0.000000  -0.004529   0.090724
     8  C   -0.000000  -0.000001   0.000000   0.000000  -0.000005   0.001455
     9  C    0.000000  -0.000000  -0.000000  -0.000000   0.000005   0.000045
    10  C    0.000000  -0.000013  -0.000000   0.000000   0.000051   0.001057
    11  C   -0.000000   0.000042   0.000003  -0.000000  -0.001199   0.006448
    12  S   -0.000356   0.004883   0.000036   0.000004  -0.029577   0.067925
    13  C   -0.000033  -0.007081   0.003460  -0.000106  -0.024303  -0.025637
    14  C    0.005020  -0.059717  -0.008937   0.000924   0.292536  -0.096831
    15  C   -0.037123  -0.166914   0.259496  -0.037226   0.200826  -0.020260
    16  H   -0.000000   0.000000   0.000000  -0.000000  -0.000025  -0.000216
    17  H    0.000000   0.000000  -0.000000   0.000000   0.000000  -0.000008
    18  H   -0.000000   0.000000   0.000000   0.000000  -0.000000   0.000013
    19  H   -0.000000   0.000000   0.000000  -0.000000  -0.000001   0.000135
    20  H    0.000000  -0.000007  -0.000000  -0.000000   0.000184   0.000477
    21  H   -0.000032  -0.001455   0.000523   0.000002  -0.014024   0.001061
    22  H   -0.000751  -0.013911   0.008073   0.000063  -0.117858   0.010888
    23  H    0.000663   0.003349  -0.021105  -0.002007  -0.001760  -0.000616
               7          8          9         10         11         12
     1  O   -0.000010  -0.000000   0.000000   0.000000  -0.000000  -0.000356
     2  C    0.001425  -0.000001  -0.000000  -0.000013   0.000042   0.004883
     3  C   -0.000023   0.000000  -0.000000  -0.000000   0.000003   0.000036
     4  O   -0.000000   0.000000  -0.000000   0.000000  -0.000000   0.000004
     5  C   -0.004529  -0.000005   0.000005   0.000051  -0.001199  -0.029577
     6  C    0.090724   0.001455   0.000045   0.001057   0.006448   0.067925
     7  C    6.054801  -0.094306  -0.022082  -0.015365   0.049999   0.038697
     8  C   -0.094306   5.422650   0.251000   0.145513  -0.045582  -0.000750
     9  C   -0.022082   0.251000   5.600524   0.181073  -0.061989   0.026098
    10  C   -0.015365   0.145513   0.181073   5.145180   0.424501  -0.035154
    11  C    0.049999  -0.045582  -0.061989   0.424501   5.421781   0.158449
    12  S    0.038697  -0.000750   0.026098  -0.035154   0.158449  15.693920
    13  C   -0.004574  -0.001010   0.001904   0.006942  -0.140404   0.109506
    14  C    0.003514  -0.000015  -0.000001   0.000004  -0.004123  -0.069853
    15  C   -0.000120   0.000001  -0.000002   0.000001   0.000320   0.009713
    16  H    0.024966   0.355722  -0.068828  -0.046199   0.010834  -0.002919
    17  H    0.002345   0.180736   0.041237  -0.026215   0.006406  -0.000704
    18  H    0.000773  -0.060474   0.288973   0.001937   0.001319  -0.001543
    19  H   -0.005327   0.010628  -0.053540   0.318230  -0.001752  -0.010249
    20  H    0.018237  -0.003535   0.002817  -0.050296   0.269660  -0.018434
    21  H    0.007776   0.000039  -0.000328   0.000409   0.003843  -0.013356
    22  H   -0.000260   0.000011  -0.000014  -0.000157   0.004357   0.054605
    23  H    0.000027   0.000000   0.000000   0.000000  -0.000008  -0.000421
              13         14         15         16         17         18
     1  O   -0.000033   0.005020  -0.037123  -0.000000   0.000000  -0.000000
     2  C   -0.007081  -0.059717  -0.166914   0.000000   0.000000   0.000000
     3  C    0.003460  -0.008937   0.259496   0.000000  -0.000000   0.000000
     4  O   -0.000106   0.000924  -0.037226  -0.000000   0.000000   0.000000
     5  C   -0.024303   0.292536   0.200826  -0.000025   0.000000  -0.000000
     6  C   -0.025637  -0.096831  -0.020260  -0.000216  -0.000008   0.000013
     7  C   -0.004574   0.003514  -0.000120   0.024966   0.002345   0.000773
     8  C   -0.001010  -0.000015   0.000001   0.355722   0.180736  -0.060474
     9  C    0.001904  -0.000001  -0.000002  -0.068828   0.041237   0.288973
    10  C    0.006942   0.000004   0.000001  -0.046199  -0.026215   0.001937
    11  C   -0.140404  -0.004123   0.000320   0.010834   0.006406   0.001319
    12  S    0.109506  -0.069853   0.009713  -0.002919  -0.000704  -0.001543
    13  C    5.560405   0.562759  -0.021293  -0.000824   0.000004  -0.000133
    14  C    0.562759   5.029119   0.256378   0.000007   0.000000  -0.000000
    15  C   -0.021293   0.256378   5.503766   0.000002   0.000000   0.000000
    16  H   -0.000824   0.000007   0.000002   0.548157   0.002058  -0.007230
    17  H    0.000004   0.000000   0.000000   0.002058   0.699576  -0.005642
    18  H   -0.000133  -0.000000   0.000000  -0.007230  -0.005642   0.598435
    19  H   -0.000125  -0.000001   0.000000   0.004905  -0.005354   0.003887
    20  H    0.008092   0.000894  -0.000091   0.011454   0.001066  -0.007603
    21  H    0.299626  -0.057364   0.011060   0.000086  -0.000001   0.000037
    22  H   -0.047356   0.223972   0.003153   0.000007  -0.000000   0.000000
    23  H   -0.003919  -0.019154   0.360519  -0.000000  -0.000000  -0.000000
              19         20         21         22         23
     1  O   -0.000000   0.000000  -0.000032  -0.000751   0.000663
     2  C    0.000000  -0.000007  -0.001455  -0.013911   0.003349
     3  C    0.000000  -0.000000   0.000523   0.008073  -0.021105
     4  O   -0.000000  -0.000000   0.000002   0.000063  -0.002007
     5  C   -0.000001   0.000184  -0.014024  -0.117858  -0.001760
     6  C    0.000135   0.000477   0.001061   0.010888  -0.000616
     7  C   -0.005327   0.018237   0.007776  -0.000260   0.000027
     8  C    0.010628  -0.003535   0.000039   0.000011   0.000000
     9  C   -0.053540   0.002817  -0.000328  -0.000014   0.000000
    10  C    0.318230  -0.050296   0.000409  -0.000157   0.000000
    11  C   -0.001752   0.269660   0.003843   0.004357  -0.000008
    12  S   -0.010249  -0.018434  -0.013356   0.054605  -0.000421
    13  C   -0.000125   0.008092   0.299626  -0.047356  -0.003919
    14  C   -0.000001   0.000894  -0.057364   0.223972  -0.019154
    15  C    0.000000  -0.000091   0.011060   0.003153   0.360519
    16  H    0.004905   0.011454   0.000086   0.000007  -0.000000
    17  H   -0.005354   0.001066  -0.000001  -0.000000  -0.000000
    18  H    0.003887  -0.007603   0.000037   0.000000  -0.000000
    19  H    0.469019   0.001667   0.000002   0.000005  -0.000000
    20  H    0.001667   0.586481  -0.003519  -0.000109   0.000008
    21  H    0.000002  -0.003519   0.620084   0.010132  -0.000238
    22  H    0.000005  -0.000109   0.010132   0.809403   0.000208
    23  H   -0.000000   0.000008  -0.000238   0.000208   0.489426
 Mulliken charges:
               1
     1  O   -0.243689
     2  C   -0.103397
     3  C    0.384353
     4  O   -0.381072
     5  C    0.463237
     6  C   -0.128045
     7  C   -0.146687
     8  C   -0.162076
     9  C   -0.186893
    10  C   -0.051501
    11  C   -0.102904
    12  S    0.019481
    13  C   -0.275898
    14  C   -0.059130
    15  C   -0.322208
    16  H    0.168044
    17  H    0.104495
    18  H    0.187253
    19  H    0.267871
    20  H    0.182558
    21  H    0.135637
    22  H    0.055542
    23  H    0.195029
 Sum of Mulliken charges =  -0.00000
 Mulliken charges with hydrogens summed into heavy atoms:
               1
     1  O   -0.243689
     2  C   -0.103397
     3  C    0.384353
     4  O   -0.381072
     5  C    0.463237
     6  C   -0.128045
     7  C   -0.146687
     8  C    0.110463
     9  C    0.000360
    10  C    0.216370
    11  C    0.079653
    12  S    0.019481
    13  C   -0.140261
    14  C   -0.003588
    15  C   -0.127178
 Electronic spatial extent (au):  <R**2>=           3930.5040
 Charge=             -0.0000 electrons
 Dipole moment (field-independent basis, Debye):
    X=             -8.8418    Y=             -1.6620    Z=             -2.1236  Tot=              9.2439
 Quadrupole moment (field-independent basis, Debye-Ang):
   XX=            -94.8753   YY=           -103.2253   ZZ=            -91.1625
   XY=             -3.5079   XZ=              3.3336   YZ=              7.4519
 Traceless Quadrupole moment (field-independent basis, Debye-Ang):
   XX=              1.5457   YY=             -6.8043   ZZ=              5.2585
   XY=             -3.5079   XZ=              3.3336   YZ=              7.4519
 Octapole moment (field-independent basis, Debye-Ang**2):
  XXX=           -208.1767  YYY=             -8.5006  ZZZ=             -1.2699  XYY=              8.0027
  XXY=             25.9853  XXZ=            -18.5470  XZZ=              5.3702  YZZ=             -6.0287
  YYZ=              0.8594  XYZ=             -8.6447
 Hexadecapole moment (field-independent basis, Debye-Ang**3):
 XXXX=          -4576.1879 YYYY=           -527.2852 ZZZZ=           -379.6314 XXXY=            -31.5997
 XXXZ=             86.5071 YYYX=            -21.0630 YYYZ=             28.4451 ZZZX=              4.2365
 ZZZY=             20.8274 XXYY=           -894.7599 XXZZ=           -770.0910 YYZZ=           -142.8827
 XXYZ=             71.3864 YYXZ=             -4.4224 ZZXY=              4.3004
 N-N= 1.001704998126D+03 E-N=-4.370629267347D+03  KE= 1.004103112108D+03
 PrsmSu:  requested number of processors reduced to:  13 ShMem   1 Linda.
 Calling FoFJK, ICntrl=      2127 FMM=F ISym2X=0 I1Cent= 0 IOpClX= 0 NMat=1 NMatS=1 NMatT=0.
 ***** Axes restored to original set *****
 -------------------------------------------------------------------
 Center     Atomic                   Forces (Hartrees/Bohr)
 Number     Number              X              Y              Z
 -------------------------------------------------------------------
      1        8           0.100882412    0.101241517   -0.004029006
      2        6          -0.131395579   -0.093377794   -0.061168948
      3        6          -0.067969556    0.150449668    0.153559941
      4        8           0.025853608   -0.158744436   -0.101532981
      5        6          -0.080388459   -0.044583554   -0.206826751
      6        6           0.053377220   -0.041879217   -0.012135049
      7        6          -0.071582311    0.019056964    0.059547421
      8        6           0.086832197   -0.145847085    0.019412829
      9        6           0.103804144    0.011643412   -0.081409792
     10        6           0.075160735   -0.060511665   -0.114297785
     11        6          -0.020129886    0.026933274   -0.022357716
     12       16          -0.032452407    0.060065866   -0.024962702
     13        6           0.013006661    0.032113808   -0.044947550
     14        6           0.041793712   -0.043689913    0.126086963
     15        6          -0.021744827    0.058176175    0.099788137
     16        1          -0.067257969    0.077734398   -0.062860548
     17        1          -0.039644677    0.057548036    0.001537582
     18        1          -0.001144900   -0.019239080    0.072746187
     19        1          -0.032385437    0.038832132    0.069727538
     20        1          -0.012849288   -0.056591946    0.051373912
     21        1           0.019666692   -0.029567964    0.037618448
     22        1           0.045737756    0.025459140    0.035707199
     23        1           0.012830161    0.034778265    0.009422669
 -------------------------------------------------------------------
 Cartesian Forces:  Max     0.206826751 RMS     0.072376301

 GradGradGradGradGradGradGradGradGradGradGradGradGradGradGradGradGradGrad
 Berny optimization.
 FormGI is forming the generalized inverse of G from B-inverse, IUseBI=4.
 Internal  Forces:  Max     0.203236026 RMS     0.053677816
 Search for a local minimum.
 Step number   1 out of a maximum of  130
 All quantities printed in internal units (Hartrees-Bohrs-Radians)
 Mixed Optimization -- RFO/linear search
 Second derivative matrix not updated -- first step.
 ITU=  0
     Eigenvalues ---    0.00230   0.00230   0.00241   0.00518   0.00917
     Eigenvalues ---    0.00953   0.00980   0.01569   0.01618   0.01815
     Eigenvalues ---    0.02242   0.02555   0.02648   0.03906   0.04146
     Eigenvalues ---    0.04277   0.04844   0.04898   0.05030   0.07405
     Eigenvalues ---    0.08187   0.08656   0.09542   0.11073   0.11584
     Eigenvalues ---    0.11726   0.11796   0.11894   0.11990   0.12052
     Eigenvalues ---    0.12928   0.13440   0.14128   0.14547   0.15662
     Eigenvalues ---    0.16000   0.16050   0.17872   0.18456   0.19040
     Eigenvalues ---    0.19482   0.19859   0.20199   0.22606   0.22764
     Eigenvalues ---    0.23193   0.23582   0.23924   0.24929   0.25000
     Eigenvalues ---    0.25000   0.30070   0.30110   0.31354   0.36924
     Eigenvalues ---    0.39966   0.40537   0.44656   0.47736   0.50344
     Eigenvalues ---    0.53404   0.56308   0.69428
 RFO step:  Lambda=-4.66217573D-01 EMin= 2.30000000D-03
 Linear search not attempted -- first point.
 Maximum step size (   0.300) exceeded in Quadratic search.
    -- Step size scaled by   0.409
 Iteration  1 RMS(Cart)=  0.16143536 RMS(Int)=  0.00830743
 Iteration  2 RMS(Cart)=  0.01647793 RMS(Int)=  0.00031643
 Iteration  3 RMS(Cart)=  0.00017510 RMS(Int)=  0.00031148
 Iteration  4 RMS(Cart)=  0.00000004 RMS(Int)=  0.00031148
 Variable       Old X    -DE/DX   Delta X   Delta X   Delta X     New X
                                 (Linear)    (Quad)   (Total)
    R1        2.83264  -0.01630   0.00000  -0.00824  -0.00782   2.82483
    R2        3.01870  -0.05010   0.00000  -0.03508  -0.03504   2.98367
    R3        2.41329   0.08833   0.00000   0.03389   0.03398   2.44727
    R4        2.71600  -0.18811   0.00000  -0.08883  -0.08883   2.62717
    R5        3.23870  -0.00527   0.00000  -0.00792  -0.00825   3.23045
    R6        2.49105   0.15957   0.00000   0.06515   0.06535   2.55641
    R7        2.44171   0.15173   0.00000   0.06096   0.06092   2.50263
    R8        3.53464  -0.06171   0.00000  -0.04319  -0.04319   3.49145
    R9        3.11883   0.03886   0.00000   0.02899   0.02899   3.14782
   R10        2.66143   0.05605   0.00000   0.02819   0.02823   2.68966
   R11        3.14661  -0.06085   0.00000  -0.04059  -0.04085   3.10575
   R12        1.86220   0.09312   0.00000   0.03927   0.03927   1.90147
   R13        3.02844  -0.06073   0.00000  -0.04546  -0.04546   2.98298
   R14        3.03601   0.04875   0.00000   0.02788   0.02830   3.06430
   R15        2.44030  -0.06372   0.00000  -0.03968  -0.03968   2.40062
   R16        2.62222   0.09146   0.00000   0.03963   0.03963   2.66185
   R17        2.37811  -0.07220   0.00000  -0.04444  -0.04452   2.33359
   R18        3.31445   0.04281   0.00000   0.02281   0.02281   3.33726
   R19        2.65867  -0.07700   0.00000  -0.05182  -0.05182   2.60684
   R20        3.96488   0.03691   0.00000   0.02579   0.02579   3.99067
   R21        2.56578   0.09201   0.00000   0.03761   0.03761   2.60340
   R22        2.30739  -0.04904   0.00000  -0.02872  -0.02872   2.27866
   R23        2.77834   0.05611   0.00000   0.01687   0.01655   2.79488
   R24        2.78420  -0.04238   0.00000  -0.02954  -0.02954   2.75467
   R25        1.97530   0.02813   0.00000   0.01320   0.01320   1.98850
   R26        3.23026   0.01498   0.00000   0.01400   0.01387   3.24413
    A1        1.41783   0.12106   0.00000   0.06271   0.06330   1.48113
    A2        1.95869  -0.10626   0.00000  -0.05137  -0.05107   1.90762
    A3        2.30716  -0.02192   0.00000  -0.01006  -0.00993   2.29723
    A4        2.16904  -0.02715   0.00000  -0.02027  -0.02062   2.14841
    A5        1.80444   0.04817   0.00000   0.02943   0.02956   1.83400
    A6        2.39314   0.04566   0.00000   0.02041   0.01984   2.41299
    A7        2.42033  -0.00280   0.00000  -0.00525  -0.00508   2.41525
    A8        2.72498   0.02549   0.00000   0.01664   0.01664   2.74162
    A9        1.88183   0.00994   0.00000   0.00942   0.00982   1.89164
   A10        1.37163  -0.02583   0.00000  -0.01827  -0.01846   1.35318
   A11        1.94930  -0.08078   0.00000  -0.05798  -0.05829   1.89100
   A12        1.66127   0.01772   0.00000   0.01386   0.01406   1.67533
   A13        2.66021   0.06651   0.00000   0.04693   0.04683   2.70704
   A14        1.57254   0.04938   0.00000   0.03241   0.03234   1.60489
   A15        2.70851  -0.00108   0.00000   0.00172   0.00185   2.71036
   A16        1.76604   0.00330   0.00000  -0.00053  -0.00084   1.76520
   A17        1.27697   0.00319   0.00000   0.00268   0.00277   1.27974
   A18        1.43363   0.02365   0.00000   0.01769   0.01770   1.45133
   A19        1.62818   0.00053   0.00000  -0.00138  -0.00133   1.62685
   A20        1.63870   0.14114   0.00000   0.08386   0.08394   1.72264
   A21        2.01954  -0.01956   0.00000  -0.00707  -0.00642   2.01312
   A22        2.22006  -0.08038   0.00000  -0.05088  -0.05160   2.16846
   A23        1.34980   0.13904   0.00000   0.07938   0.07938   1.42918
   A24        1.71603   0.05992   0.00000   0.03643   0.03630   1.75234
   A25        2.22101  -0.02127   0.00000  -0.01232  -0.01276   2.20825
   A26        1.88634   0.00243   0.00000   0.00527   0.00526   1.89160
   A27        1.97801  -0.00874   0.00000  -0.00477  -0.00441   1.97360
   A28        1.39795   0.01496   0.00000   0.01636   0.01638   1.41433
   A29        2.08747   0.01006   0.00000   0.00672   0.00679   2.09426
   A30        1.93781  -0.00712   0.00000  -0.00322  -0.00336   1.93445
   A31        2.12095   0.01728   0.00000   0.01111   0.01073   2.13167
   A32        1.31986   0.01832   0.00000   0.01704   0.01644   1.33629
   A33        1.90926   0.03434   0.00000   0.01966   0.01937   1.92863
   A34        1.89054  -0.02086   0.00000  -0.01131  -0.01125   1.87929
   A35        2.04683  -0.01816   0.00000  -0.00872  -0.00840   2.03843
   A36        2.40373  -0.00403   0.00000  -0.00123  -0.00131   2.40242
   A37        1.94863  -0.20324   0.00000  -0.11603  -0.11603   1.83260
   A38        1.12796  -0.01829   0.00000  -0.01110  -0.01131   1.11665
   A39        1.88200  -0.00783   0.00000  -0.00871  -0.00894   1.87306
   A40        3.06181   0.02418   0.00000   0.01631   0.01637   3.07818
   A41        3.20247   0.01411   0.00000   0.01251   0.01236   3.21482
    D1        0.42169  -0.01162   0.00000  -0.00625  -0.00570   0.41599
    D2        2.65510  -0.02832   0.00000  -0.01718  -0.01708   2.63802
    D3       -0.39663  -0.01458   0.00000  -0.00257  -0.00245  -0.39908
    D4        1.43028  -0.02063   0.00000  -0.01271  -0.01253   1.41775
    D5       -0.56390   0.03801   0.00000   0.02125   0.02103  -0.54287
    D6        0.19858   0.00021   0.00000  -0.00281  -0.00315   0.19544
    D7       -0.60622  -0.02945   0.00000  -0.02017  -0.02014  -0.62635
    D8        2.19563  -0.01180   0.00000  -0.00637  -0.00661   2.18902
    D9       -2.87461   0.01281   0.00000   0.00941   0.00929  -2.86531
   D10        2.60378  -0.01686   0.00000  -0.00796  -0.00769   2.59608
   D11       -0.87756   0.00079   0.00000   0.00584   0.00583  -0.87173
   D12        1.91196   0.02178   0.00000   0.01345   0.01371   1.92567
   D13        0.01396   0.02329   0.00000   0.01030   0.01074   0.02471
   D14        0.22246  -0.00644   0.00000  -0.00316  -0.00336   0.21910
   D15       -1.58341   0.00609   0.00000   0.00045   0.00058  -1.58283
   D16        2.27417  -0.04268   0.00000  -0.03725  -0.03725   2.23693
   D17       -1.14075  -0.08842   0.00000  -0.06534  -0.06524  -1.20600
   D18        1.51636  -0.02372   0.00000  -0.01928  -0.01915   1.49721
   D19       -0.51111  -0.01625   0.00000  -0.01201  -0.01138  -0.52249
   D20        2.64883  -0.04138   0.00000  -0.03124  -0.03062   2.61821
   D21        2.51964   0.00785   0.00000   0.00665   0.00635   2.52599
   D22       -0.60361  -0.01728   0.00000  -0.01257  -0.01288  -0.61649
   D23       -1.81266   0.01979   0.00000   0.01929   0.02022  -1.79244
   D24       -0.64942   0.03726   0.00000   0.03059   0.02983  -0.61959
   D25        2.73241   0.01501   0.00000   0.01121   0.01103   2.74344
   D26        1.51345   0.01688   0.00000   0.01076   0.01046   1.52391
   D27        0.45857  -0.00014   0.00000   0.00064   0.00075   0.45933
   D28       -2.90688   0.01286   0.00000   0.01311   0.01344  -2.89344
   D29       -1.56219   0.03623   0.00000   0.02971   0.02959  -1.53260
   D30        1.51852   0.02212   0.00000   0.01720   0.01724   1.53576
   D31        2.25042  -0.03698   0.00000  -0.02846  -0.02779   2.22264
   D32       -0.10326  -0.03068   0.00000  -0.02343  -0.02360  -0.12686
   D33        3.07958  -0.00361   0.00000  -0.00729  -0.00708   3.07249
   D34        0.72589   0.00270   0.00000  -0.00227  -0.00290   0.72300
   D35        2.82758  -0.04077   0.00000  -0.03234  -0.03210   2.79548
   D36        0.47503  -0.02406   0.00000  -0.01996  -0.02030   0.45473
   D37        0.59043  -0.00251   0.00000  -0.00346  -0.00346   0.58697
   D38       -0.23725  -0.02912   0.00000  -0.01930  -0.01900  -0.25625
   D39       -2.86909  -0.05897   0.00000  -0.04481  -0.04381  -2.91290
   D40       -0.65788   0.00185   0.00000  -0.00427  -0.00526  -0.66314
   D41       -3.12428   0.03019   0.00000   0.02279   0.02262  -3.10166
   D42        1.05840  -0.01808   0.00000  -0.01223  -0.01205   1.04635
   D43       -1.75264   0.00369   0.00000  -0.00293  -0.00321  -1.75585
   D44       -2.82793  -0.02593   0.00000  -0.01618  -0.01617  -2.84410
   D45       -0.21670   0.01469   0.00000   0.01277   0.01258  -0.20412
   D46        0.58147   0.01549   0.00000   0.00691   0.00694   0.58841
   D47       -0.49383  -0.01413   0.00000  -0.00634  -0.00602  -0.49985
   D48        2.11741   0.02648   0.00000   0.02261   0.02273   2.14013
   D49        2.71975   0.01369   0.00000   0.01262   0.01235   2.73210
   D50        0.06775  -0.01161   0.00000  -0.00691  -0.00685   0.06091
   D51        0.16517  -0.02350   0.00000  -0.01487  -0.01524   0.14994
   D52       -2.48682  -0.04880   0.00000  -0.03440  -0.03444  -2.52126
   D53       -0.65954  -0.00512   0.00000  -0.00234  -0.00245  -0.66199
         Item               Value     Threshold  Converged?
 Maximum Force            0.203236     0.000450     NO 
 RMS     Force            0.053678     0.000300     NO 
 Maximum Displacement     1.238070     0.001800     NO 
 RMS     Displacement     0.172459     0.001200     NO 
 Predicted change in Energy=-1.773645D-01
 GradGradGradGradGradGradGradGradGradGradGradGradGradGradGradGradGradGrad

                          Input orientation:                          
 ---------------------------------------------------------------------
 Center     Atomic      Atomic             Coordinates (Angstroms)
 Number     Number       Type             X           Y           Z
 ---------------------------------------------------------------------
      1          8           0        3.446411   -1.090991   -1.443132
      2          6           0        4.457829   -1.128137   -2.543215
      3          6           0        4.290345    0.128111   -0.900495
      4          8           0        3.927468    1.242158   -0.152176
      5          6           0        5.556970   -0.579919   -2.132751
      6          6           0        6.618685   -2.476109   -3.390485
      7          6           0        7.915661   -2.884001   -4.641518
      8          6           0        9.844010   -3.457385   -5.420971
      9          6           0       10.893559   -3.098492   -4.529096
     10          6           0        9.667428   -3.916154   -3.852718
     11          6           0        9.404499   -2.677882   -3.234917
     12         16           0        7.917962   -3.112924   -2.386559
     13          6           0        7.792343   -1.017894   -2.152797
     14          6           0        6.642387   -0.920074   -1.400485
     15          6           0        5.935030    0.374600   -1.296194
     16          1           0        9.271139   -2.645583   -5.579910
     17          1           0       10.966594   -4.509196   -5.774872
     18          1           0       11.446388   -2.364217   -5.406032
     19          1           0        9.904493   -4.942271   -4.497564
     20          1           0        9.538791   -1.571851   -4.048322
     21          1           0        7.739445   -0.199100   -3.036410
     22          1           0        5.935958   -2.194677   -1.365086
     23          1           0        6.026154    1.344748   -1.693405
 ---------------------------------------------------------------------
                    Distance matrix (angstroms):
                    1          2          3          4          5
     1  O    0.000000
     2  C    1.494834   0.000000
     3  C    1.578889   2.074787   0.000000
     4  O    2.709533   3.408320   1.390237   0.000000
     5  C    2.278426   1.295042   1.903707   3.146095   0.000000
     6  C    3.971656   2.684063   4.289893   5.617366   2.510910
     7  C    5.780895   4.409369   6.017557   7.285950   4.143204
     8  C    7.896347   6.535888   8.008352   9.211481   6.121350
     9  C    8.307421   7.017453   8.196350   9.301887   6.369056
    10  C    7.244908   6.052087   7.347430   8.558582   5.566383
    11  C    6.420866   5.229695   6.283128   7.407285   4.518817
    12  S    4.997303   3.992047   5.086483   6.315319   3.472006
    13  C    4.404100   3.359102   3.891733   4.903833   2.277964
    14  C    3.200827   2.474149   2.623125   3.688401   1.352793
    15  C    2.891846   2.448551   1.709481   2.468145   1.324334
    16  H    7.311439   5.890001   7.375542   8.551587   5.472197
    17  H    9.327445   8.014935   9.478210  10.688408   7.613691
    18  H    9.018054   7.652684   8.815924   9.856120   6.970175
    19  H    8.115954   6.930601   8.376535   9.636097   6.597228
    20  H    6.643443   5.317744   6.351762   7.388203   4.528603
    21  H    4.665205   3.446063   4.070073   4.992714   2.392660
    22  H    2.724345   2.170336   2.884308   4.161371   1.827672
    23  H    3.556760   3.049096   2.263172   2.605839   2.029163
                    6          7          8          9         10
     6  C    0.000000
     7  C    1.847595   0.000000
     8  C    3.935543   2.157509   0.000000
     9  C    4.467476   2.987728   1.423306   0.000000
    10  C    3.403266   2.180878   1.643493   1.621560   0.000000
    11  C    2.797440   2.058555   2.362124   2.017204   1.408590
    12  S    1.761114   2.266551   3.610536   3.666722   2.419799
    13  C    2.244044   3.113085   4.565240   4.426423   3.847802
    14  C    2.526244   3.997817   5.731724   5.710182   4.913331
    15  C    3.602773   5.072728   6.854052   6.863019   6.235156
    16  H    3.443518   1.665756   1.006214   1.985343   2.180502
    17  H    5.359389   3.637848   1.578526   1.883448   2.394620
    18  H    5.232749   3.649751   1.939807   1.270353   2.825950
    19  H    4.254892   2.865771   1.749636   2.092550   1.234885
    20  H    3.126891   2.169832   2.352141   2.096944   2.355964
    21  H    2.562467   3.133068   4.553213   4.536852   4.266142
    22  H    2.155820   3.889653   5.772133   5.950265   4.803714
    23  H    4.222573   5.490349   7.178528   7.174619   6.752674
                   11         12         13         14         15
    11  C    0.000000
    12  S    1.766002   0.000000
    13  C    2.554524   2.111771   0.000000
    14  C    3.752905   2.721770   1.377659   0.000000
    15  C    5.011338   4.157372   2.474352   1.478989   0.000000
    16  H    2.349005   3.499570   4.072016   5.230231   6.212998
    17  H    3.499317   4.767011   5.948485   7.121504   8.320255
    18  H    2.996904   4.703994   5.074265   6.419376   7.400469
    19  H    2.640403   3.427704   5.035855   6.034178   7.367124
    20  H    1.379482   2.786297   2.636278   3.978067   4.934569
    21  H    2.992686   2.990743   1.205816   2.097520   2.571652
    22  H    3.969954   2.411416   2.334839   1.457706   2.570200
    23  H    5.474581   4.891855   2.985389   2.365367   1.052268
                   16         17         18         19         20
    16  H    0.000000
    17  H    2.526980   0.000000
    18  H    2.200251   2.228717   0.000000
    19  H    2.616751   1.716720   3.138330   0.000000
    20  H    1.889524   3.694265   2.471871   3.419837   0.000000
    21  H    3.847175   6.040744   4.903495   5.414801   2.479124
    22  H    5.393654   7.078878   6.835410   5.754212   4.535204
    23  H    6.446518   8.679572   7.544465   7.901356   5.137198
                   21         22         23
    21  H    0.000000
    22  H    3.166735   0.000000
    23  H    2.668801   3.555764   0.000000
 Stoichiometry    C12H8O2S
 Framework group  C1[X(C12H8O2S)]
 Deg. of freedom    63
 Full point group                 C1      NOp   1
 Largest Abelian subgroup         C1      NOp   1
 Largest concise Abelian subgroup C1      NOp   1
                         Standard orientation:                         
 ---------------------------------------------------------------------
 Center     Atomic      Atomic             Coordinates (Angstroms)
 Number     Number       Type             X           Y           Z
 ---------------------------------------------------------------------
      1          8           0        3.566413    1.476261    0.085904
      2          6           0        2.287769    1.226785   -0.647143
      3          6           0        3.766547   -0.086328   -0.019699
      4          8           0        4.914476   -0.868561   -0.075670
      5          6           0        1.914799    0.001980   -0.452514
      6          6           0       -0.364428    1.041055   -0.278975
      7          6           0       -2.103686    0.911700   -0.888777
      8          6           0       -4.179528    0.325003   -0.927653
      9          6           0       -4.385876   -0.904413   -0.240808
     10          6           0       -3.549776    0.212041    0.586191
     11          6           0       -2.476894   -0.674492    0.369142
     12         16           0       -1.183717    0.290267    1.087262
     13          6           0        0.021180   -1.136626    0.101475
     14          6           0        1.273617   -0.719337    0.495450
     15          6           0        2.471587   -1.180521   -0.239114
     16          1           0       -3.434079    0.196564   -1.591185
     17          1           0       -5.686353    0.438370   -0.471175
     18          1           0       -4.849272   -1.460109   -1.284964
     19          1           0       -4.513995    0.980019    0.659896
     20          1           0       -2.419560   -1.235016   -0.890022
     21          1           0        0.048997   -1.356345   -1.083827
     22          1           0        1.208265    0.593345    1.125928
     23          1           0        2.686510   -1.763782   -1.088163
 ---------------------------------------------------------------------
 Rotational constants (GHZ):           2.0880948           0.2644077           0.2547726
 Standard basis: 6-31G(2df,p) (6D, 7F)
 There are   509 symmetry adapted cartesian basis functions of A   symmetry.
 There are   464 symmetry adapted basis functions of A   symmetry.
   464 basis functions,   740 primitive gaussians,   509 cartesian basis functions
    56 alpha electrons       56 beta electrons
       nuclear repulsion energy       996.1920888539 Hartrees.
 NAtoms=   23 NActive=   23 NUniq=   23 SFac= 1.00D+00 NAtFMM=   60 NAOKFM=F Big=F
 Integral buffers will be    131072 words long.
 Raffenetti 2 integral format.
 Two-electron integral symmetry is turned on.
 One-electron integrals computed using PRISM.
 PrsmSu:  requested number of processors reduced to:  12 ShMem   1 Linda.
 NBasis=   464 RedAO= T EigKep=  3.37D-04  NBF=   464
 NBsUse=   464 1.00D-06 EigRej= -1.00D+00 NBFU=   464
 Initial guess from the checkpoint file:  "Odc1cqdOrc2c1dCCdCCdCSCdCCd2.chk"
 B after Tr=    -0.000000   -0.000000   -0.000000
         Rot=    0.999569    0.029170   -0.001972   -0.002590 Ang=   3.36 deg.
 ExpMin= 1.17D-01 ExpMax= 2.19D+04 ExpMxC= 3.30D+03 IAcc=2 IRadAn=         4 AccDes= 0.00D+00
 Harris functional with IExCor=  402 and IRadAn=       4 diagonalized for initial guess.
 HarFok:  IExCor=  402 AccDes= 0.00D+00 IRadAn=         4 IDoV= 1 UseB2=F ITyADJ=14
 ICtDFT=  3500011 ScaDFX=  1.000000  1.000000  1.000000  1.000000
 FoFCou: FMM=F IPFlag=           0 FMFlag=      100000 FMFlg1=           0
         NFxFlg=           0 DoJE=T BraDBF=F KetDBF=T FulRan=T
         wScrn=  0.000000 ICntrl=       500 IOpCl=  0 I1Cent=   200000004 NGrid=           0
         NMat0=    1 NMatS0=      1 NMatT0=    0 NMatD0=    1 NMtDS0=    0 NMtDT0=    0
 Petite list used in FoFCou.
 Requested convergence on RMS density matrix=1.00D-08 within 128 cycles.
 Requested convergence on MAX density matrix=1.00D-06.
 Requested convergence on             energy=1.00D-06.
 No special actions if energy rises.
 Integral accuracy reduced to 1.0D-05 until final iterations.
 Initial convergence to 1.0D-05 achieved.  Increase integral accuracy.
 SCF Done:  E(RB3LYP) =  -1009.19285216     A.U. after   22 cycles
            NFock= 22  Conv=0.96D-08     -V/T= 2.0055
 PrsmSu:  requested number of processors reduced to:  13 ShMem   1 Linda.
 Calling FoFJK, ICntrl=      2127 FMM=F ISym2X=0 I1Cent= 0 IOpClX= 0 NMat=1 NMatS=1 NMatT=0.
 ***** Axes restored to original set *****
 -------------------------------------------------------------------
 Center     Atomic                   Forces (Hartrees/Bohr)
 Number     Number              X              Y              Z
 -------------------------------------------------------------------
      1        8           0.095596696    0.095184359   -0.013426322
      2        6          -0.074156189   -0.062580035   -0.024849561
      3        6          -0.057861271    0.141832122    0.155646145
      4        8           0.020341498   -0.148979577   -0.106441909
      5        6          -0.090814131   -0.021666052   -0.176318056
      6        6           0.061259390   -0.013110947   -0.035908394
      7        6          -0.077476896    0.005074946    0.067352010
      8        6           0.099006556   -0.130715795    0.015238329
      9        6           0.088503123    0.003986952   -0.080901257
     10        6           0.063819750   -0.045857300   -0.094922379
     11        6          -0.021573232    0.043012045   -0.034222339
     12       16          -0.015726703    0.041288590   -0.002279327
     13        6          -0.002417280    0.025159440   -0.050827008
     14        6           0.023133487   -0.078150833    0.085723055
     15        6          -0.040965532    0.022733438    0.084436508
     16        1          -0.056279537    0.061178608   -0.058808159
     17        1          -0.045466083    0.056974689    0.003108454
     18        1          -0.008332776   -0.009018324    0.069574500
     19        1          -0.034316000    0.032165243    0.063041195
     20        1          -0.009883212   -0.055834899    0.056260053
     21        1           0.018273834   -0.034210298    0.029703355
     22        1           0.048480777    0.045082774    0.039721393
     23        1           0.016853733    0.026450855    0.009099715
 -------------------------------------------------------------------
 Cartesian Forces:  Max     0.176318056 RMS     0.065604224

 GradGradGradGradGradGradGradGradGradGradGradGradGradGradGradGradGradGrad
 Berny optimization.
 Using GEDIIS/GDIIS optimizer.
 FormGI is forming the generalized inverse of G from B-inverse, IUseBI=4.
 Internal  Forces:  Max     0.181986366 RMS     0.041665248
 Search for a local minimum.
 Step number   2 out of a maximum of  130
 All quantities printed in internal units (Hartrees-Bohrs-Radians)
 Mixed Optimization -- RFO/linear search
 Update second derivatives using D2CorX and points    1    2
 DE= -1.75D-01 DEPred=-1.77D-01 R= 9.85D-01
 TightC=F SS=  1.41D+00  RLast= 3.32D-01 DXNew= 5.0454D-01 9.9720D-01
 Trust test= 9.85D-01 RLast= 3.32D-01 DXMaxT set to 5.05D-01
 ITU=  1  0
 Use linear search instead of GDIIS.
     Eigenvalues ---    0.00227   0.00233   0.00246   0.00517   0.00939
     Eigenvalues ---    0.00968   0.00990   0.01507   0.01589   0.01801
     Eigenvalues ---    0.02276   0.02537   0.02648   0.03739   0.03895
     Eigenvalues ---    0.04289   0.04522   0.04864   0.05173   0.06994
     Eigenvalues ---    0.08219   0.08322   0.08780   0.10769   0.11652
     Eigenvalues ---    0.11808   0.11887   0.11987   0.12054   0.12616
     Eigenvalues ---    0.13027   0.13298   0.13792   0.14625   0.15080
     Eigenvalues ---    0.15853   0.16035   0.17865   0.18092   0.18994
     Eigenvalues ---    0.19422   0.19761   0.20046   0.21290   0.22933
     Eigenvalues ---    0.23232   0.23250   0.23758   0.24518   0.24926
     Eigenvalues ---    0.29711   0.30253   0.31257   0.34129   0.37110
     Eigenvalues ---    0.40514   0.44265   0.45596   0.48922   0.50996
     Eigenvalues ---    0.53578   0.67227   1.27281
 RFO step:  Lambda=-1.93135736D-01 EMin= 2.27434588D-03
 Quartic linear search produced a step of  0.52657.
 Maximum step size (   0.505) exceeded in Quadratic search.
    -- Step size scaled by   0.709
 Iteration  1 RMS(Cart)=  0.28643884 RMS(Int)=  0.01214175
 Iteration  2 RMS(Cart)=  0.01610405 RMS(Int)=  0.00116600
 Iteration  3 RMS(Cart)=  0.00012698 RMS(Int)=  0.00116316
 Iteration  4 RMS(Cart)=  0.00000012 RMS(Int)=  0.00116316
 Variable       Old X    -DE/DX   Delta X   Delta X   Delta X     New X
                                 (Linear)    (Quad)   (Total)
    R1        2.82483  -0.01769  -0.00412  -0.02318  -0.02514   2.79968
    R2        2.98367  -0.05292  -0.01845  -0.06258  -0.08035   2.90332
    R3        2.44727   0.03134   0.01789   0.03386   0.05182   2.49909
    R4        2.62717  -0.18199  -0.04678  -0.19947  -0.24625   2.38092
    R5        3.23045  -0.01174  -0.00434  -0.01323  -0.01898   3.21147
    R6        2.55641   0.12383   0.03441   0.12060   0.15588   2.71229
    R7        2.50263   0.11449   0.03208   0.11157   0.14278   2.64541
    R8        3.49145  -0.07021  -0.02274  -0.09265  -0.11540   3.37605
    R9        3.14782   0.03206   0.01527   0.02423   0.03949   3.18732
   R10        2.68966   0.04048   0.01487   0.03850   0.05290   2.74256
   R11        3.10575  -0.02475  -0.02151   0.00260  -0.01891   3.08684
   R12        1.90147   0.08847   0.02068   0.09090   0.11157   2.01304
   R13        2.98298  -0.06860  -0.02394  -0.07867  -0.10285   2.88014
   R14        3.06430   0.04106   0.01490   0.04707   0.06279   3.12709
   R15        2.40062  -0.05687  -0.02089  -0.06310  -0.08400   2.31662
   R16        2.66185   0.07438   0.02087   0.07659   0.09746   2.75931
   R17        2.33359  -0.06524  -0.02344  -0.07810  -0.10148   2.23211
   R18        3.33726   0.05154   0.01201   0.06326   0.07527   3.41253
   R19        2.60684  -0.07890  -0.02729  -0.09573  -0.12302   2.48382
   R20        3.99067   0.01695   0.01358  -0.00534   0.00824   3.99891
   R21        2.60340   0.08025   0.01981   0.08065   0.10046   2.70386
   R22        2.27866  -0.04580  -0.01513  -0.05289  -0.06802   2.21065
   R23        2.79488   0.04645   0.00871   0.05050   0.05793   2.85281
   R24        2.75467  -0.06195  -0.01555  -0.09678  -0.11233   2.64233
   R25        1.98850   0.02241   0.00695   0.02365   0.03060   2.01910
   R26        3.24413   0.00857   0.00730  -0.01605  -0.00896   3.23517
    A1        1.48113   0.10230   0.03333   0.11238   0.14900   1.63014
    A2        1.90762  -0.07651  -0.02689  -0.07975  -0.10522   1.80240
    A3        2.29723  -0.01727  -0.00523  -0.02077  -0.02543   2.27180
    A4        2.14841  -0.03642  -0.01086  -0.04264  -0.05494   2.09347
    A5        1.83400   0.05230   0.01556   0.06201   0.07804   1.91204
    A6        2.41299   0.03547   0.01045   0.03916   0.04722   2.46021
    A7        2.41525  -0.00560  -0.00268  -0.00786  -0.00995   2.40531
    A8        2.74162  -0.03166   0.00876  -0.09203  -0.08327   2.65835
    A9        1.89164   0.01259   0.00517  -0.00038   0.00461   1.89625
   A10        1.35318  -0.01170  -0.00972   0.01222   0.00282   1.35600
   A11        1.89100  -0.02012  -0.03069   0.06483   0.03419   1.92520
   A12        1.67533   0.01153   0.00741  -0.00519   0.00247   1.67780
   A13        2.70704   0.01074   0.02466  -0.05947  -0.03520   2.67184
   A14        1.60489   0.04460   0.01703   0.04391   0.06031   1.66520
   A15        2.71036   0.01449   0.00098   0.02269   0.02397   2.73433
   A16        1.76520   0.03731  -0.00044   0.08829   0.08733   1.85253
   A17        1.27974  -0.00109   0.00146   0.00252   0.00414   1.28388
   A18        1.45133   0.04524   0.00932   0.07051   0.07935   1.53068
   A19        1.62685   0.00196  -0.00070   0.01913   0.01843   1.64528
   A20        1.72264   0.07251   0.04420   0.04840   0.09122   1.81386
   A21        2.01312   0.00455  -0.00338   0.01726   0.01344   2.02655
   A22        2.16846  -0.03918  -0.02717  -0.00292  -0.03322   2.13524
   A23        1.42918   0.11852   0.04180   0.13041   0.17221   1.60139
   A24        1.75234   0.06665   0.01912   0.08519   0.10303   1.85537
   A25        2.20825  -0.02768  -0.00672  -0.03771  -0.04837   2.15987
   A26        1.89160   0.00923   0.00277   0.02013   0.02267   1.91428
   A27        1.97360  -0.00751  -0.00232  -0.01157  -0.01185   1.96175
   A28        1.41433   0.01607   0.00863   0.01543   0.02431   1.43864
   A29        2.09426   0.00533   0.00357   0.00147   0.00564   2.09990
   A30        1.93445   0.00262  -0.00177   0.01204   0.00992   1.94438
   A31        2.13167   0.00926   0.00565   0.00312   0.00693   2.13861
   A32        1.33629   0.02167   0.00865   0.02778   0.03306   1.36936
[...]
    R2        2.74231  -0.00130  -0.00167   0.00909   0.00790   2.75021
    R3        2.76687   0.00149   0.00007  -0.01105  -0.01174   2.75513
    R4        2.23233   0.00028  -0.00147   0.00546   0.00399   2.23631
    R5        2.84311   0.00118  -0.00100   0.00324   0.00300   2.84611
    R6        2.95486   0.00242   0.00239  -0.02475  -0.02263   2.93223
    R7        2.84047  -0.00045  -0.00021  -0.00337  -0.00359   2.83688
    R8        2.38921   0.00904   0.00198  -0.01644  -0.01445   2.37476
    R9        5.83328   0.00805  -0.00381   0.11613   0.11232   5.94561
   R10        2.78754   0.00298  -0.00030   0.01410   0.01249   2.80004
   R11        2.86938   0.00574  -0.00276  -0.00030  -0.00213   2.86725
   R12        2.07002   0.00137   0.00055  -0.00296  -0.00240   2.06762
   R13        2.05126   0.00007   0.00753  -0.02563  -0.01797   2.03330
   R14        2.47651   0.00494   0.00611  -0.03106  -0.02421   2.45230
   R15        2.01777   0.00716   0.00227  -0.00399  -0.00172   2.01605
   R16        3.88267   0.02102  -0.01214   0.22356   0.21142   4.09408
   R17        2.02283   0.00024   0.00066  -0.00718  -0.00598   2.01685
   R18        3.34723   0.00269   0.00118  -0.02644  -0.02526   3.32197
   R19        2.02530   0.01229   0.00324  -0.01019  -0.00695   2.01834
   R20        3.39571   0.00248  -0.00111  -0.00738  -0.00849   3.38722
   R21        2.86552   0.00440  -0.00093  -0.00511  -0.00604   2.85948
   R22        2.06158  -0.00129  -0.00438   0.01537   0.01099   2.07257
   R23        2.83366   0.00195  -0.00046   0.00574   0.00542   2.83909
   R24        1.99669   0.01924   0.00575   0.00176   0.00751   2.00421
   R25        2.05241  -0.00071   0.00000  -0.00204  -0.00203   2.05037
   R26        5.56793   0.00483   0.00175  -0.00746  -0.00610   5.56183
    A1        2.01138  -0.00289   0.00049  -0.00666  -0.00528   2.00610
    A2        1.82721   0.00122  -0.00006   0.00670   0.00577   1.83298
    A3        2.12106  -0.00216  -0.00013   0.00605   0.00076   2.12182
    A4        1.83879   0.00383   0.00014   0.00355   0.00120   1.83999
    A5        2.31459  -0.00095   0.00078   0.01012   0.00572   2.32031
    A6        1.87320   0.00335  -0.00117   0.00003  -0.00137   1.87183
    A7        1.92072   0.00090   0.00014   0.00824   0.00810   1.92882
    A8        2.04452  -0.00090   0.00093  -0.08285  -0.08192   1.96260
    A9        2.10079   0.00706  -0.00014  -0.00252  -0.00239   2.09840
   A10        2.11351  -0.00257  -0.00249   0.01392   0.01089   2.12440
   A11        2.03692   0.00019   0.00029   0.00790   0.00796   2.04488
   A12        2.14968   0.00187  -0.00031  -0.01510  -0.01512   2.13456
   A13        1.94861  -0.00387   0.00062   0.00153   0.00210   1.95071
   A14        2.54481  -0.00591  -0.00014  -0.00733  -0.00859   2.53623
   A15        2.54747   0.00464  -0.00015   0.02297   0.02241   2.56988
   A16        1.84476   0.00568  -0.00123   0.00103  -0.00069   1.84407
   A17        2.42392  -0.00331   0.00009   0.01849   0.01651   2.44043
   A18        1.99779  -0.01371   0.00044  -0.01413  -0.01316   1.98464
   A19        2.39024   0.00042  -0.00191   0.04851   0.04519   2.43543
   A20        1.81622  -0.00031   0.00576  -0.03830  -0.03250   1.78372
   A21        1.62599  -0.00314   0.00442  -0.07203  -0.06730   1.55869
   A22        1.99452  -0.00056  -0.00290   0.03655   0.03226   2.02679
   A23        1.73967   0.00514   0.00661  -0.04381  -0.03721   1.70247
   A24        2.08559  -0.00094   0.00148  -0.00395  -0.00244   2.08315
   A25        1.98287  -0.00043   0.00057   0.00003   0.00064   1.98351
   A26        2.06099   0.00058   0.00104   0.00364   0.00472   2.06571
   A27        0.99650   0.01439   0.00097   0.00653   0.00733   1.00384
   A28        2.11499  -0.00360   0.00039  -0.00554  -0.00496   2.11003
   A29        1.73856   0.01022  -0.00064   0.01029   0.00969   1.74826
   A30        2.17540  -0.00362   0.00146  -0.00451  -0.00300   2.17240
   A31        2.22523  -0.00338   0.00003  -0.00682  -0.00689   2.21834
   A32        1.78488  -0.00300  -0.00101  -0.00719  -0.00743   1.77745
   A33        2.02154   0.00275   0.00200   0.00327   0.00560   2.02715
   A34        2.03997  -0.00075  -0.00173   0.00806   0.00587   2.04584
   A35        2.17595   0.00335   0.00096  -0.00366  -0.00296   2.17299
   A36        2.12878  -0.00203  -0.00009  -0.00195  -0.00223   2.12655
   A37        1.60195   0.01285   0.00267  -0.01746  -0.01479   1.58716
   A38        0.90335  -0.00079  -0.00067   0.00396   0.00325   0.90660
   A39        0.76739   0.00166   0.00114  -0.01943  -0.01740   0.74999
   A40        4.38804  -0.01328  -0.00146   0.03437   0.03203   4.42007
   A41        2.28969  -0.00701   0.00279  -0.06615  -0.06380   2.22589
    D1       -0.18974   0.00285   0.01425   0.05439   0.06841  -0.12133
    D2        3.05002   0.00151   0.01101   0.07961   0.09029   3.14031
    D3        0.03338  -0.00358  -0.01737  -0.06119  -0.07833  -0.04496
    D4        1.35881   0.00091  -0.00640  -0.01421  -0.02084   1.33797
    D5        0.27586  -0.00045  -0.00544  -0.02411  -0.02982   0.24604
    D6        0.13362   0.00251   0.01185   0.03692   0.04881   0.18243
    D7       -1.00918   0.00300   0.01101   0.05189   0.06283  -0.94635
    D8        2.57224   0.00358   0.01063   0.03163   0.04224   2.61448
    D9       -2.86313  -0.00334  -0.02112  -0.12579  -0.14687  -3.01000
   D10        2.27726  -0.00284  -0.02196  -0.11082  -0.13286   2.14440
   D11       -0.42451  -0.00227  -0.02234  -0.13108  -0.15345  -0.57795
   D12        2.23354   0.00004   0.00101  -0.01719  -0.01622   2.21732
   D13        0.25143  -0.00247  -0.00101  -0.01646  -0.01742   0.23401
   D14       -0.25133  -0.00089  -0.00440  -0.00925  -0.01383  -0.26516
   D15       -2.61592   0.00052  -0.00143  -0.00961  -0.01120  -2.62712
   D16       -1.86396  -0.00008  -0.03616   0.12570   0.08955  -1.77441
   D17       -1.67061  -0.00370  -0.00688   0.07516   0.06797  -1.60264
   D18        0.92123  -0.00353  -0.01077   0.10282   0.09151   1.01274
   D19        0.01460  -0.02741   0.00058  -0.00293  -0.00195   0.01265
   D20        2.09772  -0.00759   0.00304  -0.08114  -0.07847   2.01925
   D21       -2.52135  -0.02273  -0.00076   0.00652   0.00611  -2.51523
   D22       -0.43822  -0.00291   0.00170  -0.07169  -0.07040  -0.50863
   D23       -1.48210  -0.03522  -0.00250   0.01492   0.01217  -1.46993
   D24       -0.44158  -0.03297   0.00110   0.00025   0.00142  -0.44016
   D25        2.16168  -0.03536   0.00199  -0.01415  -0.01198   2.14970
   D26        1.21476   0.00134   0.00210  -0.00070   0.00107   1.21583
   D27        0.12944   0.00129  -0.00042   0.01646   0.01574   0.14518
   D28       -2.43320   0.00464  -0.00161   0.02318   0.02123  -2.41197
   D29        1.77845  -0.00873   0.01059  -0.06824  -0.05837   1.72009
   D30       -0.51123  -0.00171   0.00780  -0.00209   0.00543  -0.50580
   D31       -2.71694  -0.00098  -0.00083   0.03665   0.03580  -2.68114
   D32       -0.69238  -0.00259  -0.00119   0.04588   0.04650  -0.64588
   D33       -1.55961  -0.00159  -0.00182   0.04874   0.04571  -1.51390
   D34        0.46495  -0.00320  -0.00218   0.05797   0.05641   0.52136
   D35       -2.68115   0.00463  -0.00384   0.05499   0.05085  -2.63030
   D36       -0.61893   0.00165  -0.00276   0.06669   0.06308  -0.55584
   D37        0.18962   0.00047  -0.00026   0.03298   0.03298   0.22260
   D38       -1.57486   0.00655   0.00326  -0.08224  -0.08068  -1.65554
   D39        1.24805  -0.00126   0.00975   0.01717   0.02632   1.27437
   D40       -0.49902   0.00269   0.00282   0.10681   0.11022  -0.38880
   D41       -2.03587   0.00076  -0.00171   0.07947   0.07777  -1.95810
   D42        0.52775  -0.00036   0.00407   0.08030   0.08437   0.61211
   D43       -1.86534  -0.00260   0.00458  -0.02758  -0.02310  -1.88845
   D44       -2.60804  -0.00310   0.00369  -0.02627  -0.02251  -2.63055
   D45        0.01274   0.00187   0.00494  -0.02931  -0.02436  -0.01162
   D46        1.87961  -0.00107  -0.00133  -0.02712  -0.02854   1.85107
   D47        1.13691  -0.00157  -0.00221  -0.02581  -0.02794   1.10897
   D48       -2.52549   0.00340  -0.00097  -0.02886  -0.02980  -2.55529
   D49        2.31370   0.00459   0.00000  -0.01454  -0.01430   2.29940
   D50       -1.29205   0.00442   0.00001   0.00967   0.00966  -1.28239
   D51       -0.28573  -0.00069  -0.00189  -0.01262  -0.01428  -0.30001
   D52        2.39170  -0.00086  -0.00189   0.01160   0.00968   2.40138
   D53       -0.22260  -0.00200   0.00122  -0.03620  -0.03530  -0.25790
         Item               Value     Threshold  Converged?
 Maximum Force            0.035362     0.000450     NO 
 RMS     Force            0.008076     0.000300     NO 
 Maximum Displacement     0.502775     0.001800     NO 
 RMS     Displacement     0.130805     0.001200     NO 
 Predicted change in Energy=-5.179885D-03
 GradGradGradGradGradGradGradGradGradGradGradGradGradGradGradGradGradGrad

                          Input orientation:                          
 ---------------------------------------------------------------------
 Center     Atomic      Atomic             Coordinates (Angstroms)
 Number     Number       Type             X           Y           Z
 ---------------------------------------------------------------------
      1          8           0        4.580303   -0.617152   -0.416386
      2          6           0        4.582156   -1.265373   -1.583848
      3          6           0        5.669773    0.331405   -0.239376
      4          8           0        5.780308    0.970327    0.750579
      5          6           0        5.641571   -0.636590   -2.363525
      6          6           0        7.956556   -4.957495   -6.669153
      7          6           0        7.759193   -3.983487   -5.900015
      8          6           0       10.490503   -2.842735   -4.335573
      9          6           0        9.759531   -2.305759   -3.163901
     10          6           0        9.221122   -3.363794   -3.688020
     11          6           0        7.627949   -2.927231   -5.089775
     12         16           0        6.226651   -2.810231   -4.034818
     13          6           0        6.625241   -1.230063   -3.288476
     14          6           0        6.992549   -1.174077   -1.821631
     15          6           0        6.513543    0.208519   -1.480860
     16          1           0       10.391515   -2.362871   -5.313870
     17          1           0       11.436877   -3.343868   -4.230881
     18          1           0        9.805463   -1.641709   -2.330181
     19          1           0        8.780964   -4.286952   -3.382881
     20          1           0        8.111758   -2.006605   -5.332947
     21          1           0        7.116514   -0.530460   -3.975561
     22          1           0        7.024775   -2.016667   -1.178332
     23          1           0        7.044736    1.095628   -1.809677
 ---------------------------------------------------------------------
                    Distance matrix (angstroms):
                    1          2          3          4          5
     1  O    0.000000
     2  C    1.335351   0.000000
     3  C    1.455348   2.353766   0.000000
     4  O    2.306926   3.447241   1.183406   0.000000
     5  C    2.217660   1.457953   2.334484   3.507003   0.000000
     6  C    8.326749   7.132928   8.633879   9.743077   6.524401
     7  C    7.176889   6.009243   7.418005   8.525647   5.309690
     8  C    7.432611   6.705865   7.077671   7.911657   5.680509
     9  C    6.101199   5.512185   5.677464   6.472256   4.514900
    10  C    6.307522   5.509167   6.177356   7.094010   4.690962
    11  C    6.038640   4.932560   6.162753   7.260473   4.077398
    12  S    4.540166   3.331397   4.958363   6.114889   2.803615
    13  C    3.578593   2.661052   3.556418   4.676493   1.474907
    14  C    2.846719   2.423814   2.553379   3.561497   1.551671
    15  C    2.356322   2.431711   1.506098   2.469272   1.501213
    16  H    7.797632   6.990438   7.436696   8.315706   5.852055
    17  H    8.306501   7.636369   7.918284   8.684698   6.663478
    18  H    5.658147   5.289762   5.036723   5.702253   4.283617
    19  H    6.317679   5.476901   6.394556   7.329966   4.921383
    20  H    6.210824   5.202237   6.113432   7.162896   4.098321
    21  H    4.371225   3.561371   4.098163   5.135582   2.187551
    22  H    2.917987   2.587523   2.868991   3.767164   2.285289
    23  H    3.308823   3.419010   2.222702   2.858214   2.296997
                    6          7          8          9         10
     6  C    0.000000
     7  C    1.256669   0.000000
     8  C    4.042115   3.347961   0.000000
     9  C    4.750707   3.781857   1.481715   0.000000
    10  C    3.609177   2.722898   1.517285   1.297700   0.000000
    11  C    2.593143   1.337681   2.961448   2.939194   2.166496
    12  S    3.813533   2.684059   4.274569   3.673449   3.064891
    13  C    5.205298   3.960723   4.317102   3.316085   3.383940
    14  C    6.224309   5.011361   4.619524   3.276977   3.639342
    15  C    7.462464   6.217193   5.768513   4.437416   4.996395
    16  H    3.807610   3.146280   1.094135   2.241659   2.239432
    17  H    4.545503   4.089068   1.075973   2.242678   2.281373
    18  H    5.765377   4.734433   2.435845   1.066846   2.269529
    19  H    3.453818   2.733509   2.432264   2.220512   1.067272
    20  H    3.243036   2.086607   2.711511   2.740331   2.403838
    21  H    5.249738   4.004991   4.106096   3.285729   3.541164
    22  H    6.298079   5.167402   4.760444   3.391894   3.596836
    23  H    7.815767   6.560390   5.810693   4.557792   5.305778
                   11         12         13         14         15
    11  C    0.000000
    12  S    1.757913   0.000000
    13  C    2.670296   1.792437   0.000000
    14  C    3.762718   2.856886   1.513170   0.000000
    15  C    4.909083   3.964576   2.312892   1.502379   0.000000
    16  H    2.829491   4.379748   4.423833   5.016167   6.028489
    17  H    3.926731   5.241150   5.339301   5.501320   6.664929
    18  H    3.742926   4.132690   3.346879   2.896513   3.870585
    19  H    2.468152   3.021628   3.741741   3.914833   5.382206
    20  H    1.068062   2.425816   2.644356   3.778237   4.722250
    21  H    2.692128   2.448004   1.096759   2.251449   2.670804
    22  H    4.061075   3.070221   2.287155   1.060580   2.303114
    23  H    5.223272   4.569053   2.787770   2.270336   1.085011
                   16         17         18         19         20
    16  H    0.000000
    17  H    1.796664   0.000000
    18  H    3.125049   3.028451   0.000000
    19  H    3.166178   2.943193   3.025737   0.000000
    20  H    2.307505   3.749564   3.466756   3.074179   0.000000
    21  H    3.984273   5.161975   3.342544   4.151252   2.238753
    22  H    5.343919   5.526858   3.033080   3.619175   4.294469
    23  H    5.953277   6.697929   3.922442   5.870402   4.814127
                   21         22         23
    21  H    0.000000
    22  H    3.168867   0.000000
    23  H    2.709311   3.175748   0.000000
 Stoichiometry    C12H8O2S
 Framework group  C1[X(C12H8O2S)]
 Deg. of freedom    63
 Full point group                 C1      NOp   1
 Largest Abelian subgroup         C1      NOp   1
 Largest concise Abelian subgroup C1      NOp   1
                         Standard orientation:                         
 ---------------------------------------------------------------------
 Center     Atomic      Atomic             Coordinates (Angstroms)
 Number     Number       Type             X           Y           Z
 ---------------------------------------------------------------------
      1          8           0        3.525234    0.887584    0.615584
      2          6           0        2.358275    1.501555    0.404853
      3          6           0        3.658296   -0.413430   -0.022926
      4          8           0        4.644289   -1.058826    0.085384
      5          6           0        1.665335    0.670892   -0.572624
      6          6           0       -4.770435    1.447983    0.165488
      7          6           0       -3.611189    1.059940   -0.125698
      8          6           0       -3.174464   -2.258789   -0.061246
      9          6           0       -1.725121   -2.197512    0.240633
     10          6           0       -2.416549   -1.224744    0.750217
     11          6           0       -2.409268    0.574685   -0.456309
     12         16           0       -0.957790    1.392335    0.104867
     13          6           0        0.238761    0.311572   -0.678107
     14          6           0        1.117981   -0.569014    0.182837
     15          6           0        2.334068   -0.667669   -0.693831
     16          1           0       -3.546326   -1.949092   -1.042540
     17          1           0       -3.817164   -2.990439    0.396294
     18          1           0       -0.803893   -2.735506    0.232821
     19          1           0       -2.503455   -0.682679    1.665467
     20          1           0       -2.301024   -0.028056   -1.331375
     21          1           0       -0.085960   -0.071002   -1.653337
     22          1           0        1.089816   -0.592282    1.242787
     23          1           0        2.342326   -1.271187   -1.595466
 ---------------------------------------------------------------------
 Rotational constants (GHZ):           1.3069572           0.2913935           0.2494149
 Standard basis: 6-31G(2df,p) (6D, 7F)
 There are   509 symmetry adapted cartesian basis functions of A   symmetry.
 There are   464 symmetry adapted basis functions of A   symmetry.
   464 basis functions,   740 primitive gaussians,   509 cartesian basis functions
    56 alpha electrons       56 beta electrons
       nuclear repulsion energy       980.5163892778 Hartrees.
 NAtoms=   23 NActive=   23 NUniq=   23 SFac= 1.00D+00 NAtFMM=   60 NAOKFM=F Big=F
 Integral buffers will be    131072 words long.
 Raffenetti 2 integral format.
 Two-electron integral symmetry is turned on.
 One-electron integrals computed using PRISM.
 PrsmSu:  requested number of processors reduced to:  12 ShMem   1 Linda.
 NBasis=   464 RedAO= T EigKep=  2.89D-04  NBF=   464
 NBsUse=   464 1.00D-06 EigRej= -1.00D+00 NBFU=   464
 Initial guess from the checkpoint file:  "Odc1cqdOrc2c1dCCdCCdCSCdCCd2.chk"
 B after Tr=    -0.000000   -0.000000   -0.000000
         Rot=    0.999904   -0.010200   -0.000432   -0.009378 Ang=  -1.59 deg.
 ExpMin= 1.17D-01 ExpMax= 2.19D+04 ExpMxC= 3.30D+03 IAcc=2 IRadAn=         4 AccDes= 0.00D+00
 Harris functional with IExCor=  402 and IRadAn=       4 diagonalized for initial guess.
 HarFok:  IExCor=  402 AccDes= 0.00D+00 IRadAn=         4 IDoV= 1 UseB2=F ITyADJ=14
 ICtDFT=  3500011 ScaDFX=  1.000000  1.000000  1.000000  1.000000
 FoFCou: FMM=F IPFlag=           0 FMFlag=      100000 FMFlg1=           0
         NFxFlg=           0 DoJE=T BraDBF=F KetDBF=T FulRan=T
         wScrn=  0.000000 ICntrl=       500 IOpCl=  0 I1Cent=   200000004 NGrid=           0
         NMat0=    1 NMatS0=      1 NMatT0=    0 NMatD0=    1 NMtDS0=    0 NMtDT0=    0
 Petite list used in FoFCou.
 Requested convergence on RMS density matrix=1.00D-08 within 128 cycles.
 Requested convergence on MAX density matrix=1.00D-06.
 Requested convergence on             energy=1.00D-06.
 No special actions if energy rises.
 Integral accuracy reduced to 1.0D-05 until final iterations.
 Initial convergence to 1.0D-05 achieved.  Increase integral accuracy.
 SCF Done:  E(RB3LYP) =  -1010.28599229     A.U. after   15 cycles
            NFock= 15  Conv=0.44D-08     -V/T= 2.0053
 PrsmSu:  requested number of processors reduced to:  13 ShMem   1 Linda.
 Calling FoFJK, ICntrl=      2127 FMM=F ISym2X=0 I1Cent= 0 IOpClX= 0 NMat=1 NMatS=1 NMatT=0.
slurmstepd: error: *** JOB 27447213 ON lewis4-r630-hpc4rc-node351 CANCELLED AT 2023-05-17T17:18:29 DUE TO TIME LIMIT ***
