### Starting Gaussian ###
 Entering Gaussian System, Link 0=g16
 Initial command:
 /cluster/software/gaussian/gaussian-16-A.03/avx2/g16/l1.exe "/local/scratch/cz9n3/Gau-23585.inp" -scrdir="/local/scratch/cz9n3/"
 Entering Link 1 = /cluster/software/gaussian/gaussian-16-A.03/avx2/g16/l1.exe PID=     23586.
  
 Copyright (c) 1988,1990,1992,1993,1995,1998,2003,2009,2016,
            Gaussian, Inc.  All Rights Reserved.
  
 This is part of the Gaussian(R) 16 program.  It is based on
 the Gaussian(R) 09 system (copyright 2009, Gaussian, Inc.),
 the Gaussian(R) 03 system (copyright 2003, Gaussian, Inc.),
 the Gaussian(R) 98 system (copyright 1998, Gaussian, Inc.),
 the Gaussian(R) 94 system (copyright 1995, Gaussian, Inc.),
 the Gaussian 92(TM) system (copyright 1992, Gaussian, Inc.),
 the Gaussian 90(TM) system (copyright 1990, Gaussian, Inc.),
 the Gaussian 88(TM) system (copyright 1988, Gaussian, Inc.),
 the Gaussian 86(TM) system (copyright 1986, Carnegie Mellon
 University), and the Gaussian 82(TM) system (copyright 1983,
 Carnegie Mellon University). Gaussian is a federally registered
 trademark of Gaussian, Inc.
  
 This software contains proprietary and confidential information,
 including trade secrets, belonging to Gaussian, Inc.
  
 This software is provided under written license and may be
 used, copied, transmitted, or stored only in accord with that
 written license.
  
 The following legend is applicable only to US Government
 contracts under FAR:
  
                    RESTRICTED RIGHTS LEGEND
  
 Use, reproduction and disclosure by the US Government is
 subject to restrictions as set forth in subparagraphs (a)
 and (c) of the Commercial Computer Software - Restricted
 Rights clause in FAR 52.227-19.
  
 Gaussian, Inc.
 340 Quinnipiac St., Bldg. 40, Wallingford CT 06492
  
  
 ---------------------------------------------------------------
 Warning -- This program may not be used in any manner that
 competes with the business of Gaussian, Inc. or will provide
 assistance to any competitor of Gaussian, Inc.  The licensee
 of this program is prohibited from giving any competitor of
 Gaussian, Inc. access to this program.  By using this program,
 the user acknowledges that Gaussian, Inc. is engaged in the
 business of creating and licensing software in the field of
 computational chemistry and represents and warrants to the
 licensee that it is not a competitor of Gaussian, Inc. and that
 it will not use this program in any manner prohibited above.
 ---------------------------------------------------------------
  

 Cite this work as:
 Gaussian 16, Revision A.03,
 M. J. Frisch, G. W. Trucks, H. B. Schlegel, G. E. Scuseria, 
 M. A. Robb, J. R. Cheeseman, G. Scalmani, V. Barone, 
 G. A. Petersson, H. Nakatsuji, X. Li, M. Caricato, A. V. Marenich, 
 J. Bloino, B. G. Janesko, R. Gomperts, B. Mennucci, H. P. Hratchian, 
 J. V. Ortiz, A. F. Izmaylov, J. L. Sonnenberg, D. Williams-Young, 
 F. Ding, F. Lipparini, F. Egidi, J. Goings, B. Peng, A. Petrone, 
 T. Henderson, D. Ranasinghe, V. G. Zakrzewski, J. Gao, N. Rega, 
 G. Zheng, W. Liang, M. Hada, M. Ehara, K. Toyota, R. Fukuda, 
 J. Hasegawa, M. Ishida, T. Nakajima, Y. Honda, O. Kitao, H. Nakai, 
 T. Vreven, K. Throssell, J. A. Montgomery, Jr., J. E. Peralta, 
 F. Ogliaro, M. J. Bearpark, J. J. Heyd, E. N. Brothers, K. N. Kudin, 
 V. N. Staroverov, T. A. Keith, R. Kobayashi, J. Normand, 
 K. Raghavachari, A. P. Rendell, J. C. Burant, S. S. Iyengar, 
 J. Tomasi, M. Cossi, J. M. Millam, M. Klene, C. Adamo, R. Cammi, 
 J. W. Ochterski, R. L. Martin, K. Morokuma, O. Farkas, 
 J. B. Foresman, and D. J. Fox, Gaussian, Inc., Wallingford CT, 2016.
 
 ******************************************
 Gaussian 16:  ES64L-G16RevA.03 25-Dec-2016
                17-May-2023 
 ******************************************
 %chk=OdC1NdCCdCCd[SH]CC1Cd[SH]S.chk
 %NProcShared=20
 Will use up to   20 processors via shared memory.
 -----------------------------
 # opt freq b3lyp/6-31g(2df,p)
 -----------------------------
 1/18=20,19=15,26=3,38=1/1,3;
 2/9=110,12=2,17=6,18=5,40=1/2;
 3/5=1,6=6,7=104,11=2,25=1,30=1,71=1,74=-5/1,2,3;
 4//1;
 5/5=2,38=5/2;
 6/7=2,8=2,9=2,10=2,28=1/1;
 7//1,2,3,16;
 1/18=20,19=15,26=3/3(2);
 2/9=110/2;
 99//99;
 2/9=110/2;
 3/5=1,6=6,7=104,11=2,25=1,30=1,71=1,74=-5/1,2,3;
 4/5=5,16=3,69=1/1;
 5/5=2,38=5/2;
 7//1,2,3,16;
 1/18=20,19=15,26=3/3(-5);
 2/9=110/2;
 6/7=2,8=2,9=2,10=2,19=2,28=1/1;
 99/9=1/99;
 -------------------
 Title Card Required
 -------------------
 Symbolic Z-matrix:
 Charge =  0 Multiplicity = 1
 O                     1.8216    0.17766   0.01641 
 C                     3.03808   0.39819   0.32702 
 N                     3.13394   0.66077   1.5504 
 C                     4.33285   0.28572   1.75248 
 C                     4.72581   1.24558   2.64874 
 C                     5.8328    0.49594   2.555 
 C                     6.33429   1.4905    3.44154 
 S                     8.56722   1.44173   2.72784 
 C                     6.71273   1.87949   1.36833 
 C                     4.96487   0.94886  -0.00051 
 C                     3.65667  -0.29911  -1.09274 
 S                     2.99785  -1.64157  -2.99958 
 S                     1.08352  -2.49379  -4.38285 
 H                     5.47799  -0.3259    0.98669 
 H                     4.30001   2.004     3.28378 
 H                     6.82068   0.23919   1.46499 
 H                     6.3718    2.31288   4.16279 
 H                     9.2277    2.55365   2.19122 
 H                     7.41809   2.63044   2.54852 
 H                     7.62798   1.66588   2.68835 
 H                     4.9669   -0.27476  -0.59397 
 H                     2.22762  -0.67569  -1.38791 
 H                     3.33107  -2.97705  -3.07835 
 H                     0.21567  -1.59463  -4.99622 
 
 Add virtual bond connecting atoms H20        and H19        Dist= 1.88D+00.
 Add virtual bond connecting atoms H21        and C10        Dist= 2.57D+00.
 Add virtual bond connecting atoms H21        and C11        Dist= 2.65D+00.
 Add virtual bond connecting atoms H16        and C6         Dist= 2.82D+00.
 Add virtual bond connecting atoms H22        and C11        Dist= 2.85D+00.
 Add virtual bond connecting atoms H20        and C7         Dist= 2.85D+00.
 Add virtual bond connecting atoms H14        and C4         Dist= 2.85D+00.
 Add virtual bond connecting atoms H14        and H16        Dist= 2.90D+00.
 Add virtual bond connecting atoms H14        and H21        Dist= 3.14D+00.
 Add virtual bond connecting atoms H16        and C9         Dist= 3.11D+00.
 Add virtual bond connecting atoms H19        and C9         Dist= 2.96D+00.
 Add virtual bond connecting atoms H20        and C9         Dist= 3.06D+00.
 Add virtual bond connecting atoms H22        and S12        Dist= 3.84D+00.
 Add virtual bond connecting atoms S13        and S12        Dist= 4.74D+00.
 Add virtual bond connecting atoms S13        and H23        Dist= 5.00D+00.

 GradGradGradGradGradGradGradGradGradGradGradGradGradGradGradGradGradGrad
 Berny optimization.
 Initialization pass.
                           ----------------------------
                           !    Initial Parameters    !
                           ! (Angstroms and Degrees)  !
 --------------------------                            --------------------------
 ! Name  Definition              Value          Derivative Info.                !
 --------------------------------------------------------------------------------
 ! R1    R(1,2)                  1.2747         estimate D2E/DX2                !
 ! R2    R(2,3)                  1.2549         estimate D2E/DX2                !
 ! R3    R(2,11)                 1.6984         estimate D2E/DX2                !
 ! R4    R(3,4)                  1.2724         estimate D2E/DX2                !
 ! R5    R(4,5)                  1.3708         estimate D2E/DX2                !
 ! R6    R(4,6)                  1.7141         estimate D2E/DX2                !
 ! R7    R(4,14)                 1.5073         estimate D2E/DX2                !
 ! R8    R(5,6)                  1.3402         estimate D2E/DX2                !
 ! R9    R(5,7)                  1.8099         estimate D2E/DX2                !
 ! R10   R(5,15)                 1.0769         estimate D2E/DX2                !
 ! R11   R(6,7)                  1.4236         estimate D2E/DX2                !
 ! R12   R(6,16)                 1.4933         estimate D2E/DX2                !
 ! R13   R(7,17)                 1.0945         estimate D2E/DX2                !
 ! R14   R(7,20)                 1.5072         estimate D2E/DX2                !
 ! R15   R(8,18)                 1.4002         estimate D2E/DX2                !
 ! R16   R(8,20)                 0.9664         estimate D2E/DX2                !
 ! R17   R(9,16)                 1.6467         estimate D2E/DX2                !
 ! R18   R(9,19)                 1.5666         estimate D2E/DX2                !
 ! R19   R(9,20)                 1.6204         estimate D2E/DX2                !
 ! R20   R(10,21)                1.3599         estimate D2E/DX2                !
 ! R21   R(11,21)                1.4022         estimate D2E/DX2                !
 ! R22   R(11,22)                1.507          estimate D2E/DX2                !
 ! R23   R(12,13)                2.5109         estimate D2E/DX2                !
 ! R24   R(12,22)                2.0307         estimate D2E/DX2                !
 ! R25   R(12,23)                1.3787         estimate D2E/DX2                !
 ! R26   R(13,23)                2.6432         estimate D2E/DX2                !
 ! R27   R(13,24)                1.3921         estimate D2E/DX2                !
 ! R28   R(14,16)                1.5333         estimate D2E/DX2                !
 ! R29   R(14,21)                1.662          estimate D2E/DX2                !
 ! R30   R(19,20)                0.997          estimate D2E/DX2                !
 ! A1    A(1,2,3)              110.2821         estimate D2E/DX2                !
 ! A2    A(1,2,11)              94.1781         estimate D2E/DX2                !
 ! A3    A(3,2,11)             150.8111         estimate D2E/DX2                !
 ! A4    A(2,3,4)               99.505          estimate D2E/DX2                !
 ! A5    A(3,4,5)               99.646          estimate D2E/DX2                !
 ! A6    A(3,4,6)              149.6292         estimate D2E/DX2                !
 ! A7    A(3,4,14)             139.0087         estimate D2E/DX2                !
 ! A8    A(5,4,14)             113.4865         estimate D2E/DX2                !
 ! A9    A(6,4,14)              67.8399         estimate D2E/DX2                !
 ! A10   A(4,5,7)              129.4888         estimate D2E/DX2                !
 ! A11   A(4,5,15)             139.9369         estimate D2E/DX2                !
 ! A12   A(6,5,15)             139.6174         estimate D2E/DX2                !
 ! A13   A(7,5,15)              89.873          estimate D2E/DX2                !
 ! A14   A(4,6,7)              133.276          estimate D2E/DX2                !
 ! A15   A(4,6,16)             102.4778         estimate D2E/DX2                !
 ! A16   A(5,6,16)             133.9193         estimate D2E/DX2                !
 ! A17   A(7,6,16)             109.977          estimate D2E/DX2                !
 ! A18   A(5,7,17)             114.8847         estimate D2E/DX2                !
 ! A19   A(5,7,20)             124.0324         estimate D2E/DX2                !
 ! A20   A(6,7,17)             161.3322         estimate D2E/DX2                !
 ! A21   A(6,7,20)              94.1551         estimate D2E/DX2                !
 ! A22   A(17,7,20)            102.2666         estimate D2E/DX2                !
 ! A23   A(18,8,20)            104.9864         estimate D2E/DX2                !
 ! A24   A(16,9,19)            113.8127         estimate D2E/DX2                !
 ! A25   A(16,9,20)             77.5166         estimate D2E/DX2                !
 ! A26   A(2,11,21)             92.0547         estimate D2E/DX2                !
 ! A27   A(2,11,22)             85.4659         estimate D2E/DX2                !
 ! A28   A(21,11,22)           163.7595         estimate D2E/DX2                !
 ! A29   A(13,12,22)           108.0289         estimate D2E/DX2                !
 ! A30   A(22,12,23)           126.7097         estimate D2E/DX2                !
 ! A31   A(12,13,24)           119.922          estimate D2E/DX2                !
 ! A32   A(23,13,24)           149.9558         estimate D2E/DX2                !
 ! A33   A(4,14,16)            110.9327         estimate D2E/DX2                !
 ! A34   A(4,14,21)            103.7141         estimate D2E/DX2                !
 ! A35   A(16,14,21)           123.6849         estimate D2E/DX2                !
 ! A36   A(6,16,9)              80.1082         estimate D2E/DX2                !
 ! A37   A(6,16,14)             73.247          estimate D2E/DX2                !
 ! A38   A(9,16,14)            106.942          estimate D2E/DX2                !
 ! A39   A(7,20,8)             141.8858         estimate D2E/DX2                !
 ! A40   A(7,20,9)              86.4234         estimate D2E/DX2                !
 ! A41   A(7,20,19)             90.1125         estimate D2E/DX2                !
 ! A42   A(8,20,9)             127.792          estimate D2E/DX2                !
 ! A43   A(8,20,19)            115.768          estimate D2E/DX2                !
 ! A44   A(10,21,11)            99.7564         estimate D2E/DX2                !
 ! A45   A(10,21,14)            67.2396         estimate D2E/DX2                !
 ! A46   A(11,21,14)           128.6906         estimate D2E/DX2                !
 ! A47   A(11,22,12)            85.1028         estimate D2E/DX2                !
 ! D1    D(1,2,3,4)            153.7454         estimate D2E/DX2                !
 ! D2    D(11,2,3,4)             8.5795         estimate D2E/DX2                !
 ! D3    D(1,2,11,21)         -169.1251         estimate D2E/DX2                !
 ! D4    D(1,2,11,22)           -5.2033         estimate D2E/DX2                !
 ! D5    D(3,2,11,21)          -21.6194         estimate D2E/DX2                !
 ! D6    D(3,2,11,22)          142.3025         estimate D2E/DX2                !
 ! D7    D(2,3,4,5)            143.1586         estimate D2E/DX2                !
 ! D8    D(2,3,4,6)            144.5995         estimate D2E/DX2                !
 ! D9    D(2,3,4,14)            -1.12           estimate D2E/DX2                !
 ! D10   D(3,4,5,7)           -178.3963         estimate D2E/DX2                !
 ! D11   D(3,4,5,15)            14.3498         estimate D2E/DX2                !
 ! D12   D(14,4,5,7)           -23.0772         estimate D2E/DX2                !
 ! D13   D(14,4,5,15)          169.669          estimate D2E/DX2                !
 ! D14   D(3,4,6,7)             -5.2982         estimate D2E/DX2                !
 ! D15   D(3,4,6,16)          -138.8462         estimate D2E/DX2                !
 ! D16   D(14,4,6,7)           151.1908         estimate D2E/DX2                !
 ! D17   D(14,4,6,16)           17.6428         estimate D2E/DX2                !
 ! D18   D(3,4,14,16)          144.1188         estimate D2E/DX2                !
 ! D19   D(3,4,14,21)            9.3223         estimate D2E/DX2                !
 ! D20   D(5,4,14,16)            2.9907         estimate D2E/DX2                !
 ! D21   D(5,4,14,21)         -131.8057         estimate D2E/DX2                !
 ! D22   D(6,4,14,16)          -17.9734         estimate D2E/DX2                !
 ! D23   D(6,4,14,21)         -152.7699         estimate D2E/DX2                !
 ! D24   D(15,5,6,16)         -127.5921         estimate D2E/DX2                !
 ! D25   D(4,5,7,17)          -177.1516         estimate D2E/DX2                !
 ! D26   D(4,5,7,20)            56.2737         estimate D2E/DX2                !
 ! D27   D(15,5,7,17)           -5.3155         estimate D2E/DX2                !
 ! D28   D(15,5,7,20)         -131.8902         estimate D2E/DX2                !
 ! D29   D(4,6,7,17)            20.1472         estimate D2E/DX2                !
 ! D30   D(4,6,7,20)          -131.5612         estimate D2E/DX2                !
 ! D31   D(16,6,7,17)          151.2975         estimate D2E/DX2                !
 ! D32   D(16,6,7,20)           -0.4109         estimate D2E/DX2                !
 ! D33   D(4,6,16,9)            94.4383         estimate D2E/DX2                !
 ! D34   D(4,6,16,14)          -16.7482         estimate D2E/DX2                !
 ! D35   D(5,6,16,9)            46.5453         estimate D2E/DX2                !
 ! D36   D(5,6,16,14)          -64.6412         estimate D2E/DX2                !
 ! D37   D(7,6,16,9)           -51.4034         estimate D2E/DX2                !
 ! D38   D(7,6,16,14)         -162.5899         estimate D2E/DX2                !
 ! D39   D(5,7,20,8)          -143.2586         estimate D2E/DX2                !
 ! D40   D(5,7,20,9)            12.9582         estimate D2E/DX2                !
 ! D41   D(5,7,20,19)           81.7644         estimate D2E/DX2                !
 ! D42   D(6,7,20,8)          -103.9842         estimate D2E/DX2                !
 ! D43   D(6,7,20,9)            52.2326         estimate D2E/DX2                !
 ! D44   D(6,7,20,19)          121.0387         estimate D2E/DX2                !
 ! D45   D(17,7,20,8)           84.9471         estimate D2E/DX2                !
 ! D46   D(17,7,20,9)         -118.8362         estimate D2E/DX2                !
 ! D47   D(17,7,20,19)         -50.03           estimate D2E/DX2                !
 ! D48   D(18,8,20,7)         -144.49           estimate D2E/DX2                !
 ! D49   D(18,8,20,9)           66.1291         estimate D2E/DX2                !
 ! D50   D(18,8,20,19)         -16.2566         estimate D2E/DX2                !
 ! D51   D(19,9,16,6)           72.8949         estimate D2E/DX2                !
 ! D52   D(19,9,16,14)         141.8567         estimate D2E/DX2                !
 ! D53   D(20,9,16,6)           75.8318         estimate D2E/DX2                !
 ! D54   D(20,9,16,14)         144.7935         estimate D2E/DX2                !
 ! D55   D(16,9,20,7)          -83.9645         estimate D2E/DX2                !
 ! D56   D(16,9,20,8)           77.6755         estimate D2E/DX2                !
 ! D57   D(2,11,21,10)         -41.2214         estimate D2E/DX2                !
 ! D58   D(2,11,21,14)          27.3572         estimate D2E/DX2                !
 ! D59   D(22,11,21,10)       -122.033          estimate D2E/DX2                !
 ! D60   D(22,11,21,14)        -53.4545         estimate D2E/DX2                !
 ! D61   D(2,11,22,12)        -175.4683         estimate D2E/DX2                !
 ! D62   D(21,11,22,12)        -93.7264         estimate D2E/DX2                !
 ! D63   D(22,12,13,24)         64.9947         estimate D2E/DX2                !
 ! D64   D(13,12,22,11)       -173.928          estimate D2E/DX2                !
 ! D65   D(23,12,22,11)         95.3939         estimate D2E/DX2                !
 ! D66   D(12,13,23,24)        -18.342          estimate D2E/DX2                !
 ! D67   D(4,14,16,6)           20.0338         estimate D2E/DX2                !
 ! D68   D(4,14,16,9)          -53.7512         estimate D2E/DX2                !
 ! D69   D(21,14,16,6)         144.0902         estimate D2E/DX2                !
 ! D70   D(21,14,16,9)          70.3052         estimate D2E/DX2                !
 ! D71   D(4,14,21,10)          56.3632         estimate D2E/DX2                !
 ! D72   D(4,14,21,11)         -27.8649         estimate D2E/DX2                !
 ! D73   D(16,14,21,10)        -70.8382         estimate D2E/DX2                !
 ! D74   D(16,14,21,11)       -155.0663         estimate D2E/DX2                !
 --------------------------------------------------------------------------------
 Trust Radius=3.00D-01 FncErr=1.00D-07 GrdErr=1.00D-06 EigMax=2.50D+02 EigMin=1.00D-04
 Number of steps in this run=    144 maximum allowed number of steps=    144.
 GradGradGradGradGradGradGradGradGradGradGradGradGradGradGradGradGradGrad

                          Input orientation:                          
 ---------------------------------------------------------------------
 Center     Atomic      Atomic             Coordinates (Angstroms)
 Number     Number       Type             X           Y           Z
 ---------------------------------------------------------------------
      1          8           0        1.821600    0.177660    0.016410
      2          6           0        3.038080    0.398190    0.327020
      3          7           0        3.133940    0.660770    1.550400
      4          6           0        4.332850    0.285720    1.752480
      5          6           0        4.725810    1.245580    2.648740
      6          6           0        5.832800    0.495940    2.555000
      7          6           0        6.334290    1.490500    3.441540
      8         16           0        8.567220    1.441730    2.727840
      9          6           0        6.712730    1.879490    1.368330
     10          6           0        4.964870    0.948860   -0.000510
     11          6           0        3.656670   -0.299110   -1.092740
     12         16           0        2.997850   -1.641570   -2.999580
     13         16           0        1.083520   -2.493790   -4.382850
     14          1           0        5.477990   -0.325900    0.986690
     15          1           0        4.300010    2.004000    3.283780
     16          1           0        6.820680    0.239190    1.464990
     17          1           0        6.371800    2.312880    4.162790
     18          1           0        9.227700    2.553650    2.191220
     19          1           0        7.418090    2.630440    2.548520
     20          1           0        7.627980    1.665880    2.688350
     21          1           0        4.966900   -0.274760   -0.593970
     22          1           0        2.227620   -0.675690   -1.387910
     23          1           0        3.331070   -2.977050   -3.078350
     24          1           0        0.215670   -1.594630   -4.996220
 ---------------------------------------------------------------------
                    Distance matrix (angstroms):
                    1          2          3          4          5
     1  O    0.000000
     2  C    1.274730   0.000000
     3  N    2.075755   1.254909   0.000000
     4  C    3.054831   1.928993   1.272354   0.000000
     5  C    4.062518   2.992806   2.020496   1.370777   0.000000
     6  C    4.757675   3.575459   2.884482   1.714083   1.340214
     7  C    5.815448   4.664587   3.808819   2.882738   1.809897
     8  S    7.379235   6.117540   5.613982   4.496396   3.847228
     9  C    5.352295   4.096539   3.784992   2.889897   2.447273
    10  C    3.236539   2.030525   2.416738   1.977923   2.676512
    11  C    2.196589   1.698411   2.860211   2.982369   4.186622
    12  S    3.713402   3.902372   5.101138   5.298938   6.574572
    13  S    5.199509   5.862314   7.025591   7.478375   8.757421
    14  H    3.816308   2.629188   2.604968   1.507269   2.407848
    15  H    4.489292   3.593539   2.483665   2.301835   1.076932
    16  H    5.205091   3.953267   3.711748   2.504818   2.608173
    17  H    6.515823   5.430733   4.476359   3.751838   2.478056
    18  H    8.076227   6.814150   6.413077   5.412537   4.710349
    19  H    6.614258   5.394672   4.819729   3.956020   3.029233
    20  H    6.562630   5.315082   4.743582   3.693044   2.932714
    21  H    3.235763   2.240855   2.972084   2.494391   3.589530
    22  H    1.692682   2.179690   3.352791   3.901071   5.121208
    23  H    4.669929   4.803606   5.890494   5.914909   7.250894
    24  H    5.553961   6.346197   7.514078   8.125998   9.319526
                    6          7          8          9         10
     6  C    0.000000
     7  C    1.423585   0.000000
     8  S    2.898525   2.344722   0.000000
     9  C    2.024024   2.143066   2.340734   0.000000
    10  C    2.736617   3.743847   4.545739   2.407241   0.000000
    11  C    4.321302   5.561659   6.460716   4.488058   2.112293
    12  S    6.592363   7.901248   8.563175   6.728806   4.424242
    13  S    8.923447  10.230652  11.047896   9.159130   6.791290
    14  H    1.805798   3.171569   3.962255   2.556165   1.692001
    15  H    2.270421   2.104012   4.339850   3.083127   3.513107
    16  H    1.493301   2.389373   2.468055   1.646688   2.468877
    17  H    2.485313   1.094494   2.763667   2.848345   4.601420
    18  H    3.986459   3.326471   1.400200   2.730698   5.054775
    19  H    2.658811   1.808748   1.663035   1.566623   3.917085
    20  H    2.146908   1.507212   0.966424   1.620421   3.851784
    21  H    3.355559   4.612075   5.190671   3.396960   1.359943
    22  H    5.469605   6.699306   7.849420   5.851668   3.472258
    23  H    7.074952   8.455016   8.980798   7.402335   5.249302
    24  H    9.640724  10.869744  11.774081   9.735954   7.347201
                   11         12         13         14         15
    11  C    0.000000
    12  S    2.423279   0.000000
    13  S    4.718320   2.510851   0.000000
    14  H    2.764408   4.875698   7.269324   0.000000
    15  H    4.987197   7.380136   9.452679   3.477455   0.000000
    16  H    4.103987   6.171197   8.636053   1.533269   3.574399
    17  H    6.466453   8.849902  11.139926   4.224887   2.271647
    18  H    7.068169   9.129913  11.619927   4.878834   5.077197
    19  H    5.999110   8.280701  10.697121   3.865650   3.264270
    20  H    5.824872   8.045488  10.494507   3.388996   3.397682
    21  H    1.402165   3.395922   5.861770   1.662021   4.546915
    22  H    1.507024   2.030679   3.685664   4.040542   5.770635
    23  H    3.349631   1.378676   2.643244   5.306827   8.137961
    24  H    5.362463   3.424807   1.392076   8.068265   9.909105
                   16         17         18         19         20
    16  H    0.000000
    17  H    3.432173   0.000000
    18  H    3.417291   3.478681   0.000000
    19  H    2.692399   1.949727   1.846144   0.000000
    20  H    2.045431   2.042197   1.895884   0.996987   0.000000
    21  H    2.817794   5.594318   5.823367   4.931913   4.649845
    22  H    5.483817   7.544273   8.499408   7.305269   7.159800
    23  H    6.569895   9.469082   9.650246   8.933607   8.560085
    24  H    9.419994  11.707008  12.250886  11.253851  11.163596
                   21         22         23         24
    21  H    0.000000
    22  H    2.880059   0.000000
    23  H    4.018763   3.061282   0.000000
    24  H    6.610299   4.232292   3.910886   0.000000
 Stoichiometry    C8H11NOS3
 Framework group  C1[X(C8H11NOS3)]
 Deg. of freedom    66
 Full point group                 C1      NOp   1
 Largest Abelian subgroup         C1      NOp   1
 Largest concise Abelian subgroup C1      NOp   1
                         Standard orientation:                         
 ---------------------------------------------------------------------
 Center     Atomic      Atomic             Coordinates (Angstroms)
 Number     Number       Type             X           Y           Z
 ---------------------------------------------------------------------
      1          8           0        1.546983    2.026579    0.260177
      2          6           0        0.509922    1.285338    0.258806
      3          7           0       -0.503048    1.955070   -0.057658
      4          6           0       -1.225921    1.026653   -0.541786
      5          6           0       -2.456715    1.441787   -0.103791
      6          6           0       -2.774108    0.332695   -0.785956
      7          6           0       -4.077023    0.664314   -0.317943
      8         16           0       -4.910357   -1.521058   -0.152324
      9          6           0       -3.006440   -0.703891    0.936886
     10          6           0       -0.637230   -0.299417    0.802520
     11          6           0        1.394189   -0.164593    0.239546
     12         16           0        3.638019   -1.023663   -0.075905
     13         16           0        6.088010   -0.476446   -0.125609
     14          1           0       -1.149712   -0.455959   -0.802386
     15          1           0       -2.932800    2.314153    0.311063
     16          1           0       -2.512006   -1.122501   -0.577010
     17          1           0       -4.918009    1.231704    0.092823
     18          1           0       -5.360176   -2.083830    1.048306
     19          1           0       -4.544632   -0.427589    1.046117
     20          1           0       -4.400410   -0.743722    0.111642
     21          1           0        0.244007   -0.921416   -0.025720
     22          1           0        2.608705    0.717438    0.105036
     23          1           0        4.002187   -1.647522   -1.250183
     24          1           0        6.697534    0.082481    0.994193
 ---------------------------------------------------------------------
 Rotational constants (GHZ):           1.3907151           0.1598748           0.1467600
 Standard basis: 6-31G(2df,p) (6D, 7F)
 There are   470 symmetry adapted cartesian basis functions of A   symmetry.
 There are   431 symmetry adapted basis functions of A   symmetry.
   431 basis functions,   721 primitive gaussians,   470 cartesian basis functions
    61 alpha electrons       61 beta electrons
       nuclear repulsion energy       991.6632310681 Hartrees.
 NAtoms=   24 NActive=   24 NUniq=   24 SFac= 1.00D+00 NAtFMM=   60 NAOKFM=F Big=F
 Integral buffers will be    131072 words long.
 Raffenetti 2 integral format.
 Two-electron integral symmetry is turned on.
 One-electron integrals computed using PRISM.
 PrsmSu:  requested number of processors reduced to:  13 ShMem   1 Linda.
 NBasis=   431 RedAO= T EigKep=  1.46D-04  NBF=   431
 NBsUse=   431 1.00D-06 EigRej= -1.00D+00 NBFU=   431
 ExpMin= 1.17D-01 ExpMax= 2.19D+04 ExpMxC= 3.30D+03 IAcc=3 IRadAn=         5 AccDes= 0.00D+00
 Harris functional with IExCor=  402 and IRadAn=       5 diagonalized for initial guess.
 HarFok:  IExCor=  402 AccDes= 0.00D+00 IRadAn=         5 IDoV= 1 UseB2=F ITyADJ=14
 ICtDFT=  3500011 ScaDFX=  1.000000  1.000000  1.000000  1.000000
 FoFCou: FMM=F IPFlag=           0 FMFlag=      100000 FMFlg1=           0
         NFxFlg=           0 DoJE=T BraDBF=F KetDBF=T FulRan=T
         wScrn=  0.000000 ICntrl=       500 IOpCl=  0 I1Cent=   200000004 NGrid=           0
         NMat0=    1 NMatS0=      1 NMatT0=    0 NMatD0=    1 NMtDS0=    0 NMtDT0=    0
 Petite list used in FoFCou.
 Requested convergence on RMS density matrix=1.00D-08 within 128 cycles.
 Requested convergence on MAX density matrix=1.00D-06.
 Requested convergence on             energy=1.00D-06.
 No special actions if energy rises.
 Integral accuracy reduced to 1.0D-05 until final iterations.
 EnCoef did     6 forward-backward iterations
 EnCoef did   100 forward-backward iterations
 EnCoef did     3 forward-backward iterations
 EnCoef did     5 forward-backward iterations
 Initial convergence to 1.0D-05 achieved.  Increase integral accuracy.
 SCF Done:  E(RB3LYP) =  -1634.33372693     A.U. after   30 cycles
            NFock= 30  Conv=0.78D-08     -V/T= 2.0024

 **********************************************************************

            Population analysis using the SCF density.

 **********************************************************************

 Orbital symmetries:
       Occupied  (A) (A) (A) (A) (A) (A) (A) (A) (A) (A) (A) (A)
                 (A) (A) (A) (A) (A) (A) (A) (A) (A) (A) (A) (A)
                 (A) (A) (A) (A) (A) (A) (A) (A) (A) (A) (A) (A)
                 (A) (A) (A) (A) (A) (A) (A) (A) (A) (A) (A) (A)
                 (A) (A) (A) (A) (A) (A) (A) (A) (A) (A) (A) (A)
                 (A)
       Virtual   (A) (A) (A) (A) (A) (A) (A) (A) (A) (A) (A) (A)
                 (A) (A) (A) (A) (A) (A) (A) (A) (A) (A) (A) (A)
                 (A) (A) (A) (A) (A) (A) (A) (A) (A) (A) (A) (A)
                 (A) (A) (A) (A) (A) (A) (A) (A) (A) (A) (A) (A)
                 (A) (A) (A) (A) (A) (A) (A) (A) (A) (A) (A) (A)
                 (A) (A) (A) (A) (A) (A) (A) (A) (A) (A) (A) (A)
                 (A) (A) (A) (A) (A) (A) (A) (A) (A) (A) (A) (A)
                 (A) (A) (A) (A) (A) (A) (A) (A) (A) (A) (A) (A)
                 (A) (A) (A) (A) (A) (A) (A) (A) (A) (A) (A) (A)
                 (A) (A) (A) (A) (A) (A) (A) (A) (A) (A) (A) (A)
                 (A) (A) (A) (A) (A) (A) (A) (A) (A) (A) (A) (A)
                 (A) (A) (A) (A) (A) (A) (A) (A) (A) (A) (A) (A)
                 (A) (A) (A) (A) (A) (A) (A) (A) (A) (A) (A) (A)
                 (A) (A) (A) (A) (A) (A) (A) (A) (A) (A) (A) (A)
                 (A) (A) (A) (A) (A) (A) (A) (A) (A) (A) (A) (A)
                 (A) (A) (A) (A) (A) (A) (A) (A) (A) (A) (A) (A)
                 (A) (A) (A) (A) (A) (A) (A) (A) (A) (A) (A) (A)
                 (A) (A) (A) (A) (A) (A) (A) (A) (A) (A) (A) (A)
                 (A) (A) (A) (A) (A) (A) (A) (A) (A) (A) (A) (A)
                 (A) (A) (A) (A) (A) (A) (A) (A) (A) (A) (A) (A)
                 (A) (A) (A) (A) (A) (A) (A) (A) (A) (A) (A) (A)
                 (A) (A) (A) (A) (A) (A) (A) (A) (A) (A) (A) (A)
                 (A) (A) (A) (A) (A) (A) (A) (A) (A) (A) (A) (A)
                 (A) (A) (A) (A) (A) (A) (A) (A) (A) (A) (A) (A)
                 (A) (A) (A) (A) (A) (A) (A) (A) (A) (A) (A) (A)
                 (A) (A) (A) (A) (A) (A) (A) (A) (A) (A) (A) (A)
                 (A) (A) (A) (A) (A) (A) (A) (A) (A) (A) (A) (A)
                 (A) (A) (A) (A) (A) (A) (A) (A) (A) (A) (A) (A)
                 (A) (A) (A) (A) (A) (A) (A) (A) (A) (A) (A) (A)
                 (A) (A) (A) (A) (A) (A) (A) (A) (A) (A) (A) (A)
                 (A) (A) (A) (A) (A) (A) (A) (A) (A) (A)
 The electronic state is 1-A.
 Alpha  occ. eigenvalues --  -88.91564 -88.89652 -88.87352 -19.13685 -14.33686
 Alpha  occ. eigenvalues --  -10.30803 -10.30502 -10.30185 -10.30179 -10.28721
 Alpha  occ. eigenvalues --  -10.28141 -10.24507 -10.24438  -7.98402  -7.97830
 Alpha  occ. eigenvalues --   -7.93845  -5.94739  -5.94288  -5.94221  -5.93964
 Alpha  occ. eigenvalues --   -5.93770  -5.93297  -5.90307  -5.89998  -5.89276
 Alpha  occ. eigenvalues --   -1.07278  -1.01182  -0.96897  -0.92338  -0.76545
 Alpha  occ. eigenvalues --   -0.74685  -0.73462  -0.67698  -0.66720  -0.63981
 Alpha  occ. eigenvalues --   -0.59749  -0.58745  -0.56229  -0.53214  -0.50370
 Alpha  occ. eigenvalues --   -0.48818  -0.48199  -0.46667  -0.42539  -0.41304
 Alpha  occ. eigenvalues --   -0.40986  -0.39381  -0.37163  -0.35801  -0.34217
 Alpha  occ. eigenvalues --   -0.33879  -0.31561  -0.29547  -0.29260  -0.27369
 Alpha  occ. eigenvalues --   -0.26141  -0.25109  -0.22909  -0.21023  -0.19034
 Alpha  occ. eigenvalues --   -0.18210
 Alpha virt. eigenvalues --   -0.13558  -0.10819  -0.10204  -0.08492  -0.07907
 Alpha virt. eigenvalues --   -0.06123  -0.05657  -0.02344  -0.01142  -0.00418
 Alpha virt. eigenvalues --    0.01201   0.03041   0.03659   0.04521   0.05887
 Alpha virt. eigenvalues --    0.07821   0.08754   0.10704   0.11484   0.13220
 Alpha virt. eigenvalues --    0.15820   0.20870   0.21261   0.22932   0.24535
 Alpha virt. eigenvalues --    0.26383   0.28129   0.28845   0.29476   0.30690
 Alpha virt. eigenvalues --    0.31370   0.31680   0.33270   0.33833   0.35167
 Alpha virt. eigenvalues --    0.35924   0.37666   0.38185   0.38408   0.39573
 Alpha virt. eigenvalues --    0.40374   0.40894   0.41267   0.41834   0.43671
 Alpha virt. eigenvalues --    0.44397   0.45070   0.46239   0.47176   0.47503
 Alpha virt. eigenvalues --    0.48037   0.48797   0.49521   0.50683   0.52062
 Alpha virt. eigenvalues --    0.53479   0.53883   0.54371   0.55127   0.56014
 Alpha virt. eigenvalues --    0.56331   0.56909   0.57660   0.58833   0.59339
 Alpha virt. eigenvalues --    0.60140   0.60418   0.61752   0.62352   0.65023
 Alpha virt. eigenvalues --    0.66582   0.68470   0.69245   0.69644   0.70967
 Alpha virt. eigenvalues --    0.71442   0.72286   0.72720   0.74078   0.75334
 Alpha virt. eigenvalues --    0.75846   0.76890   0.77882   0.79497   0.79708
 Alpha virt. eigenvalues --    0.80813   0.82776   0.83481   0.84579   0.85556
 Alpha virt. eigenvalues --    0.86720   0.88769   0.89125   0.90829   0.91451
 Alpha virt. eigenvalues --    0.91849   0.93995   0.95249   0.96602   0.97607
 Alpha virt. eigenvalues --    0.98147   0.99398   1.02097   1.04492   1.06114
 Alpha virt. eigenvalues --    1.08266   1.09538   1.10563   1.11828   1.13039
 Alpha virt. eigenvalues --    1.14275   1.15942   1.17480   1.18675   1.20065
 Alpha virt. eigenvalues --    1.22115   1.22822   1.23768   1.27176   1.28269
 Alpha virt. eigenvalues --    1.30678   1.33083   1.34376   1.34985   1.35920
 Alpha virt. eigenvalues --    1.36784   1.37871   1.38645   1.41170   1.43202
 Alpha virt. eigenvalues --    1.44585   1.45961   1.47878   1.48594   1.49166
 Alpha virt. eigenvalues --    1.49687   1.50779   1.51906   1.52205   1.52945
 Alpha virt. eigenvalues --    1.54079   1.54316   1.56250   1.56703   1.57676
 Alpha virt. eigenvalues --    1.58480   1.59060   1.60828   1.61403   1.63260
 Alpha virt. eigenvalues --    1.64167   1.64460   1.66043   1.66998   1.68269
 Alpha virt. eigenvalues --    1.70064   1.71140   1.72564   1.72987   1.74225
 Alpha virt. eigenvalues --    1.76237   1.77329   1.81857   1.82220   1.82800
 Alpha virt. eigenvalues --    1.84220   1.86834   1.89455   1.91157   1.92133
 Alpha virt. eigenvalues --    1.93972   1.96799   1.98279   2.00711   2.03459
 Alpha virt. eigenvalues --    2.05935   2.06221   2.06812   2.08972   2.09971
 Alpha virt. eigenvalues --    2.10710   2.13636   2.14416   2.16785   2.18320
 Alpha virt. eigenvalues --    2.19234   2.19865   2.21410   2.22970   2.25588
 Alpha virt. eigenvalues --    2.26631   2.27553   2.29564   2.31011   2.33001
 Alpha virt. eigenvalues --    2.36007   2.37278   2.38712   2.38934   2.40461
 Alpha virt. eigenvalues --    2.41171   2.43048   2.44686   2.46829   2.48788
 Alpha virt. eigenvalues --    2.49864   2.50338   2.52985   2.54749   2.55749
 Alpha virt. eigenvalues --    2.56848   2.58066   2.58854   2.60344   2.63316
 Alpha virt. eigenvalues --    2.65747   2.67523   2.67830   2.70894   2.72135
 Alpha virt. eigenvalues --    2.74080   2.74755   2.76710   2.80653   2.81165
 Alpha virt. eigenvalues --    2.82127   2.83201   2.85353   2.88976   2.89320
 Alpha virt. eigenvalues --    2.90380   2.91163   2.92728   2.94341   2.95799
 Alpha virt. eigenvalues --    3.00006   3.01133   3.03653   3.05075   3.06671
 Alpha virt. eigenvalues --    3.07596   3.08548   3.10027   3.10721   3.12209
 Alpha virt. eigenvalues --    3.13372   3.17171   3.18825   3.19659   3.21587
 Alpha virt. eigenvalues --    3.23239   3.24668   3.26311   3.28852   3.30232
 Alpha virt. eigenvalues --    3.30982   3.32880   3.34750   3.40058   3.41460
 Alpha virt. eigenvalues --    3.41984   3.46259   3.48283   3.49016   3.50123
 Alpha virt. eigenvalues --    3.52318   3.55219   3.56691   3.57800   3.62360
 Alpha virt. eigenvalues --    3.64833   3.66187   3.67527   3.71534   3.72542
 Alpha virt. eigenvalues --    3.75355   3.78582   3.83920   3.86025   3.86809
 Alpha virt. eigenvalues --    3.89670   3.91389   3.93117   3.95387   3.97554
 Alpha virt. eigenvalues --    3.99224   4.00190   4.01945   4.07131   4.09552
 Alpha virt. eigenvalues --    4.12494   4.16012   4.20326   4.22039   4.24523
 Alpha virt. eigenvalues --    4.27098   4.28272   4.31571   4.33472   4.37526
 Alpha virt. eigenvalues --    4.38443   4.40916   4.43336   4.45618   4.48335
 Alpha virt. eigenvalues --    4.49253   4.50666   4.52145   4.55212   4.56308
 Alpha virt. eigenvalues --    4.56970   4.58148   4.61382   4.63291   4.66851
 Alpha virt. eigenvalues --    4.68008   4.70193   4.70549   4.73410   4.74320
 Alpha virt. eigenvalues --    4.75858   4.79889   4.82133   4.83328   4.84540
 Alpha virt. eigenvalues --    4.87503   4.89054   4.90135   4.94733   4.97870
 Alpha virt. eigenvalues --    4.99496   5.01190   5.05616   5.08397   5.10290
 Alpha virt. eigenvalues --    5.13153   5.13577   5.16229   5.18497   5.20993
 Alpha virt. eigenvalues --    5.24944   5.28164   5.30783   5.35589   5.36761
 Alpha virt. eigenvalues --    5.44767   5.51888   5.53087   5.57976   5.61520
 Alpha virt. eigenvalues --    5.78386   5.82432   5.97754   6.02795   6.11002
 Alpha virt. eigenvalues --    6.29608   6.35471   6.62605   6.86617  10.24128
 Alpha virt. eigenvalues --   10.57871  10.76973  10.82600  11.35747  11.43517
 Alpha virt. eigenvalues --   11.74280  11.92401  12.10104  13.30899  20.98952
          Condensed to atoms (all electrons):
               1          2          3          4          5          6
     1  O    7.951460   0.515291  -0.045262  -0.004247  -0.000303  -0.000064
     2  C    0.515291   4.470124   0.520539  -0.168967   0.009447  -0.000699
     3  N   -0.045262   0.520539   6.460694   0.383876  -0.086370  -0.001484
     4  C   -0.004247  -0.168967   0.383876   5.448082   0.394266   0.020608
     5  C   -0.000303   0.009447  -0.086370   0.394266   5.074561   0.309195
     6  C   -0.000064  -0.000699  -0.001484   0.020608   0.309195   5.462806
     7  C    0.000002  -0.000135   0.003000  -0.025304  -0.062137   0.506880
     8  S   -0.000000  -0.000023  -0.000009  -0.000090   0.016076   0.009449
     9  C    0.000000   0.001963   0.003160  -0.023825  -0.024280  -0.049582
    10  C   -0.013987   0.103130  -0.085089  -0.003160  -0.024225  -0.054574
    11  C   -0.134082   0.281794  -0.052744   0.010785   0.003013   0.001201
    12  S   -0.006289  -0.001744  -0.000398   0.000157   0.000008   0.000003
    13  S   -0.000005  -0.000032   0.000000   0.000000  -0.000000  -0.000000
    14  H    0.000058  -0.010751  -0.019008   0.161486  -0.043000  -0.033056
    15  H   -0.000046   0.001586   0.001563  -0.037624   0.407264  -0.061765
    16  H   -0.000001  -0.000037   0.000038  -0.058730  -0.029199   0.173268
    17  H    0.000000  -0.000009   0.000023  -0.000284   0.004628  -0.025800
    18  H   -0.000000   0.000000   0.000000   0.000003  -0.000124   0.000955
    19  H    0.000000  -0.000033  -0.000103   0.000389   0.007807  -0.018412
    20  H    0.000000   0.000021   0.000106  -0.001122  -0.005768  -0.008304
    21  H    0.005766  -0.025423   0.015687  -0.029512   0.001888  -0.002031
    22  H    0.096646  -0.032848   0.004736  -0.001485  -0.000017  -0.000010
    23  H   -0.000012  -0.000051   0.000002  -0.000000  -0.000000  -0.000000
    24  H   -0.000000   0.000000   0.000000   0.000000  -0.000000  -0.000000
               7          8          9         10         11         12
     1  O    0.000002  -0.000000   0.000000  -0.013987  -0.134082  -0.006289
     2  C   -0.000135  -0.000023   0.001963   0.103130   0.281794  -0.001744
     3  N    0.003000  -0.000009   0.003160  -0.085089  -0.052744  -0.000398
     4  C   -0.025304  -0.000090  -0.023825  -0.003160   0.010785   0.000157
     5  C   -0.062137   0.016076  -0.024280  -0.024225   0.003013   0.000008
     6  C    0.506880   0.009449  -0.049582  -0.054574   0.001201   0.000003
     7  C    5.589204  -0.133015   0.083138   0.004765  -0.000028   0.000000
     8  S   -0.133015  15.922637  -0.072215  -0.000317   0.000016   0.000000
     9  C    0.083138  -0.072215   6.202787   0.035640   0.001042   0.000005
    10  C    0.004765  -0.000317   0.035640   6.128608  -0.032035  -0.000962
    11  C   -0.000028   0.000016   0.001042  -0.032035   6.134617  -0.049242
    12  S    0.000000   0.000000   0.000005  -0.000962  -0.049242  15.853015
    13  S    0.000000  -0.000000   0.000000  -0.000014   0.003295   0.073395
    14  H    0.002133  -0.002743  -0.010522   0.098652  -0.007400  -0.000226
    15  H   -0.003364   0.000163   0.005377  -0.000159   0.000023   0.000000
    16  H   -0.053588  -0.026187   0.043220   0.030368  -0.001643  -0.000010
    17  H    0.330792  -0.003507  -0.009329  -0.000027   0.000000   0.000000
    18  H    0.007346   0.272911  -0.010401  -0.000004   0.000000   0.000000
    19  H   -0.038465  -0.055953   0.126772   0.001408  -0.000007  -0.000000
    20  H    0.059419   0.332244  -0.076275   0.001248   0.000003   0.000000
    21  H   -0.000192   0.000044   0.001640   0.081881   0.133648   0.003807
    22  H   -0.000000  -0.000000  -0.000009   0.002846   0.125547   0.010072
    23  H    0.000000  -0.000000  -0.000000   0.000038   0.003068   0.223024
    24  H   -0.000000  -0.000000  -0.000000   0.000000   0.000000   0.001069
              13         14         15         16         17         18
     1  O   -0.000005   0.000058  -0.000046  -0.000001   0.000000  -0.000000
     2  C   -0.000032  -0.010751   0.001586  -0.000037  -0.000009   0.000000
     3  N    0.000000  -0.019008   0.001563   0.000038   0.000023   0.000000
     4  C    0.000000   0.161486  -0.037624  -0.058730  -0.000284   0.000003
     5  C   -0.000000  -0.043000   0.407264  -0.029199   0.004628  -0.000124
     6  C   -0.000000  -0.033056  -0.061765   0.173268  -0.025800   0.000955
     7  C    0.000000   0.002133  -0.003364  -0.053588   0.330792   0.007346
     8  S   -0.000000  -0.002743   0.000163  -0.026187  -0.003507   0.272911
     9  C    0.000000  -0.010522   0.005377   0.043220  -0.009329  -0.010401
    10  C   -0.000014   0.098652  -0.000159   0.030368  -0.000027  -0.000004
    11  C    0.003295  -0.007400   0.000023  -0.001643   0.000000   0.000000
    12  S    0.073395  -0.000226   0.000000  -0.000010   0.000000   0.000000
    13  S   15.962512   0.000000  -0.000000  -0.000000  -0.000000   0.000000
    14  H    0.000000   0.564570  -0.000097   0.035515  -0.000162  -0.000030
    15  H   -0.000000  -0.000097   0.504517  -0.001464  -0.001828   0.000016
    16  H   -0.000000   0.035515  -0.001464   0.718457   0.002321  -0.002444
    17  H   -0.000000  -0.000162  -0.001828   0.002321   0.443976  -0.000626
    18  H    0.000000  -0.000030   0.000016  -0.002444  -0.000626   0.579753
    19  H   -0.000000   0.000751  -0.001663   0.018971   0.022437  -0.052108
    20  H    0.000000  -0.000556   0.000609  -0.007092  -0.008091   0.014490
    21  H    0.000009   0.017026  -0.000002  -0.003397  -0.000001   0.000001
    22  H   -0.001349   0.000204  -0.000001   0.000004  -0.000000  -0.000000
    23  H   -0.001661   0.000004  -0.000000   0.000000  -0.000000  -0.000000
    24  H    0.271780   0.000000  -0.000000   0.000000   0.000000  -0.000000
              19         20         21         22         23         24
     1  O    0.000000   0.000000   0.005766   0.096646  -0.000012  -0.000000
     2  C   -0.000033   0.000021  -0.025423  -0.032848  -0.000051   0.000000
     3  N   -0.000103   0.000106   0.015687   0.004736   0.000002   0.000000
     4  C    0.000389  -0.001122  -0.029512  -0.001485  -0.000000   0.000000
     5  C    0.007807  -0.005768   0.001888  -0.000017  -0.000000  -0.000000
     6  C   -0.018412  -0.008304  -0.002031  -0.000010  -0.000000  -0.000000
     7  C   -0.038465   0.059419  -0.000192  -0.000000   0.000000  -0.000000
     8  S   -0.055953   0.332244   0.000044  -0.000000  -0.000000  -0.000000
     9  C    0.126772  -0.076275   0.001640  -0.000009  -0.000000  -0.000000
    10  C    0.001408   0.001248   0.081881   0.002846   0.000038   0.000000
    11  C   -0.000007   0.000003   0.133648   0.125547   0.003068   0.000000
    12  S   -0.000000   0.000000   0.003807   0.010072   0.223024   0.001069
    13  S   -0.000000   0.000000   0.000009  -0.001349  -0.001661   0.271780
    14  H    0.000751  -0.000556   0.017026   0.000204   0.000004   0.000000
    15  H   -0.001663   0.000609  -0.000002  -0.000001  -0.000000  -0.000000
    16  H    0.018971  -0.007092  -0.003397   0.000004   0.000000   0.000000
    17  H    0.022437  -0.008091  -0.000001  -0.000000  -0.000000   0.000000
    18  H   -0.052108   0.014490   0.000001  -0.000000  -0.000000  -0.000000
    19  H    1.103108  -0.145635  -0.000030   0.000000   0.000000   0.000000
    20  H   -0.145635   0.498828   0.000018  -0.000000  -0.000000  -0.000000
    21  H   -0.000030   0.000018   0.602599  -0.001235  -0.000325  -0.000000
    22  H    0.000000  -0.000000  -0.001235   0.497079   0.003390   0.000060
    23  H    0.000000  -0.000000  -0.000325   0.003390   0.603817   0.000410
    24  H    0.000000  -0.000000  -0.000000   0.000060   0.000410   0.553138
 Mulliken charges:
               1
     1  O   -0.364925
     2  C    0.336858
     3  N   -0.102957
     4  C   -0.065301
     5  C    0.047271
     6  C   -0.228585
     7  C   -0.270450
     8  S   -0.259480
     9  C   -0.228307
    10  C   -0.274032
    11  C   -0.420873
    12  S   -0.105684
    13  S   -0.307929
    14  H    0.247153
    15  H    0.186894
    16  H    0.161633
    17  H    0.245486
    18  H    0.190263
    19  H    0.030766
    20  H    0.345859
    21  H    0.198134
    22  H    0.296368
    23  H    0.168296
    24  H    0.173542
 Sum of Mulliken charges =  -0.00000
 Mulliken charges with hydrogens summed into heavy atoms:
               1
     1  O   -0.364925
     2  C    0.336858
     3  N   -0.102957
     4  C    0.181852
     5  C    0.234164
     6  C   -0.066952
     7  C   -0.024964
     8  S    0.276642
     9  C   -0.197541
    10  C   -0.075897
    11  C   -0.124504
    12  S    0.062611
    13  S   -0.134387
 Electronic spatial extent (au):  <R**2>=           6801.9176
 Charge=             -0.0000 electrons
 Dipole moment (field-independent basis, Debye):
    X=             -8.0850    Y=             -0.9440    Z=             -0.0392  Tot=              8.1400
 Quadrupole moment (field-independent basis, Debye-Ang):
   XX=            -88.6883   YY=           -104.6117   ZZ=           -104.1828
   XY=             -4.5713   XZ=             -3.3015   YZ=              1.8952
 Traceless Quadrupole moment (field-independent basis, Debye-Ang):
   XX=             10.4726   YY=             -5.4508   ZZ=             -5.0218
   XY=             -4.5713   XZ=             -3.3015   YZ=              1.8952
 Octapole moment (field-independent basis, Debye-Ang**2):
  XXX=           -150.8955  YYY=             -5.6790  ZZZ=             -4.1955  XYY=            -38.3730
  XXY=             44.3521  XXZ=             65.5490  XZZ=             20.7874  YZZ=             -0.9740
  YYZ=             -0.3837  XYZ=             19.3196
 Hexadecapole moment (field-independent basis, Debye-Ang**3):
 XXXX=          -7910.3293 YYYY=           -930.9184 ZZZZ=           -248.3191 XXXY=            165.4274
 XXXZ=             38.3296 YYYX=              0.0972 YYYZ=              4.8117 ZZZX=             -0.6190
 ZZZY=              8.3196 XXYY=          -1458.4167 XXZZ=          -1384.1662 YYZZ=           -184.3535
 XXYZ=             -0.2340 YYXZ=            -50.2820 ZZXY=              6.3923
 N-N= 9.916632310681D+02 E-N=-5.846584231524D+03  KE= 1.630371352229D+03
 PrsmSu:  requested number of processors reduced to:  13 ShMem   1 Linda.
 Calling FoFJK, ICntrl=      2127 FMM=F ISym2X=0 I1Cent= 0 IOpClX= 0 NMat=1 NMatS=1 NMatT=0.
 ***** Axes restored to original set *****
 -------------------------------------------------------------------
 Center     Atomic                   Forces (Hartrees/Bohr)
 Number     Number              X              Y              Z
 -------------------------------------------------------------------
      1        8          -0.032891152    0.005039738   -0.041136054
      2        6          -0.085529878   -0.078206510   -0.116403310
      3        7          -0.080228085    0.000597588    0.006722836
      4        6           0.071403370   -0.015905261    0.064735344
      5        6          -0.034553310    0.060896281    0.050461567
      6        6           0.169384369   -0.033771072    0.061114638
      7        6          -0.022390480   -0.038948715   -0.028609006
      8       16           0.659992585   -0.149447813    0.050860608
      9        6          -0.018966986    0.033538984    0.016337645
     10        6           0.004355141   -0.043872641   -0.041271057
     11        6           0.023573057    0.039591974    0.066990861
     12       16          -0.037076011   -0.019268760   -0.023797333
     13       16           0.005866100   -0.002756247    0.000370192
     14        1          -0.062836331    0.033503251   -0.003949266
     15        1          -0.013969123    0.003671727   -0.020249247
     16        1          -0.028213511    0.026142620    0.017706984
     17        1          -0.009454103   -0.012709211   -0.003517804
     18        1          -0.008315345   -0.020001468    0.001812582
     19        1          -0.057746972    0.069272138   -0.056659973
     20        1          -0.488769959    0.089225972   -0.008084248
     21        1          -0.009105834    0.011053945   -0.021862695
     22        1           0.035155121    0.033357365    0.013147698
     23        1          -0.001269289    0.006923310    0.001818222
     24        1           0.021586624    0.002072805    0.013460816
 -------------------------------------------------------------------
 Cartesian Forces:  Max     0.659992585 RMS     0.107686640

 GradGradGradGradGradGradGradGradGradGradGradGradGradGradGradGradGradGrad
 Berny optimization.
 FormGI is forming the generalized inverse of G from B-inverse, IUseBI=4.
 Internal  Forces:  Max     0.674801525 RMS     0.062012644
 Search for a local minimum.
 Step number   1 out of a maximum of  144
 All quantities printed in internal units (Hartrees-Bohrs-Radians)
 Mixed Optimization -- RFO/linear search
 Second derivative matrix not updated -- first step.
 ITU=  0
     Eigenvalues ---    0.00230   0.00230   0.00280   0.00309   0.00638
     Eigenvalues ---    0.00799   0.00902   0.01499   0.01618   0.01723
     Eigenvalues ---    0.01880   0.01905   0.02004   0.02146   0.02249
     Eigenvalues ---    0.02490   0.03286   0.03486   0.04542   0.04974
     Eigenvalues ---    0.05203   0.05405   0.05442   0.06891   0.07130
     Eigenvalues ---    0.07476   0.07569   0.07757   0.09267   0.09339
     Eigenvalues ---    0.09676   0.10102   0.11043   0.11153   0.12093
     Eigenvalues ---    0.12230   0.12954   0.13375   0.13472   0.13709
     Eigenvalues ---    0.14652   0.15161   0.15518   0.15893   0.16000
     Eigenvalues ---    0.16000   0.16275   0.17438   0.17559   0.18089
     Eigenvalues ---    0.20392   0.22137   0.22658   0.23045   0.23210
     Eigenvalues ---    0.24463   0.25000   0.30371   0.34298   0.36196
     Eigenvalues ---    0.36368   0.41765   0.72145   0.74730   0.76858
     Eigenvalues ---    1.09306
 RFO step:  Lambda=-4.60606609D-01 EMin= 2.30000000D-03
 Linear search not attempted -- first point.
 Maximum step size (   0.300) exceeded in Quadratic search.
    -- Step size scaled by   0.484
 Iteration  1 RMS(Cart)=  0.04748477 RMS(Int)=  0.00103598
 Iteration  2 RMS(Cart)=  0.00131199 RMS(Int)=  0.00012987
 Iteration  3 RMS(Cart)=  0.00000070 RMS(Int)=  0.00012987
 Variable       Old X    -DE/DX   Delta X   Delta X   Delta X     New X
                                 (Linear)    (Quad)   (Total)
    R1        2.40889   0.04054   0.00000   0.01625   0.01625   2.42514
    R2        2.37143   0.11717   0.00000   0.04665   0.04659   2.41802
    R3        3.20953  -0.04710   0.00000  -0.03323  -0.03327   3.17626
    R4        2.40440   0.16004   0.00000   0.06577   0.06572   2.47012
    R5        2.59039   0.05257   0.00000   0.02831   0.02823   2.61862
    R6        3.23915   0.07570   0.00000   0.05548   0.05543   3.29458
    R7        2.84833  -0.01276   0.00000  -0.01334  -0.01337   2.83496
    R8        2.53264   0.04737   0.00000   0.02813   0.02818   2.56082
    R9        3.42021   0.03050   0.00000   0.02580   0.02584   3.44605
   R10        2.03511  -0.00383   0.00000  -0.00225  -0.00225   2.03286
   R11        2.69019  -0.03020   0.00000  -0.01989  -0.02007   2.67011
   R12        2.82193  -0.02210   0.00000  -0.01835  -0.01835   2.80358
   R13        2.06829  -0.01219   0.00000  -0.00735  -0.00735   2.06095
   R14        2.84822   0.05400   0.00000   0.04575   0.04573   2.89395
   R15        2.64600  -0.02050   0.00000  -0.01456  -0.01456   2.63144
   R16        1.82628   0.67480   0.00000   0.21033   0.21033   2.03661
   R17        3.11179   0.00007   0.00000   0.00165   0.00166   3.11345
   R18        2.96049  -0.01518   0.00000  -0.01579  -0.01631   2.94418
   R19        3.06215   0.03436   0.00000   0.03064   0.03121   3.09336
   R20        2.56992  -0.05749   0.00000  -0.04494  -0.04494   2.52498
   R21        2.64971  -0.01616   0.00000  -0.01825  -0.01816   2.63154
   R22        2.84786  -0.02907   0.00000  -0.02460  -0.02460   2.82326
   R23        4.74482  -0.02620   0.00000  -0.02367  -0.02367   4.72115
   R24        3.83743   0.00853   0.00000   0.00803   0.00803   3.84546
   R25        2.60532  -0.00091   0.00000  -0.00090  -0.00090   2.60442
   R26        4.99501  -0.00525   0.00000  -0.00438  -0.00438   4.99063
   R27        2.63064  -0.01805   0.00000  -0.01272  -0.01272   2.61792
   R28        2.89746   0.03460   0.00000   0.02918   0.02929   2.92675
   R29        3.14076   0.03542   0.00000   0.02794   0.02799   3.16875
   R30        1.88403   0.08651   0.00000   0.06576   0.06586   1.94989
    A1        1.92479   0.06264   0.00000   0.04260   0.04280   1.96759
    A2        1.64372  -0.00288   0.00000  -0.00212  -0.00192   1.64180
    A3        2.63215  -0.06204   0.00000  -0.03948  -0.03949   2.59266
    A4        1.73669   0.03194   0.00000   0.03265   0.03239   1.76908
    A5        1.73915   0.05352   0.00000   0.04326   0.04335   1.78250
    A6        2.61152   0.04967   0.00000   0.03864   0.03879   2.65031
    A7        2.42616  -0.04393   0.00000  -0.03448  -0.03453   2.39163
    A8        1.98071  -0.00704   0.00000  -0.00689  -0.00675   1.97397
    A9        1.18403  -0.00203   0.00000  -0.00123  -0.00120   1.18283
   A10        2.26001  -0.01678   0.00000  -0.00657  -0.00658   2.25342
   A11        2.44236  -0.00863   0.00000  -0.01041  -0.01040   2.43196
   A12        2.43678   0.00396   0.00000   0.00194   0.00201   2.43879
   A13        1.56858   0.02598   0.00000   0.01759   0.01758   1.58616
   A14        2.32611   0.00850   0.00000   0.00573   0.00572   2.33183
   A15        1.78858  -0.01371   0.00000  -0.00930  -0.00933   1.77924
   A16        2.33733  -0.01768   0.00000  -0.01502  -0.01500   2.32233
   A17        1.91946  -0.00117   0.00000  -0.00179  -0.00176   1.91770
   A18        2.00512  -0.01579   0.00000  -0.01059  -0.01054   1.99458
   A19        2.16477   0.02080   0.00000   0.01534   0.01526   2.18003
   A20        2.81578  -0.00438   0.00000  -0.00574  -0.00577   2.81001
   A21        1.64332   0.00987   0.00000   0.00952   0.00948   1.65280
   A22        1.78489  -0.00298   0.00000  -0.00210  -0.00205   1.78284
   A23        1.83236   0.00530   0.00000   0.00413   0.00413   1.83649
   A24        1.98641   0.01569   0.00000   0.01283   0.01298   1.99938
   A25        1.35292  -0.01094   0.00000  -0.00721  -0.00688   1.34604
   A26        1.60666   0.05346   0.00000   0.03563   0.03586   1.64251
   A27        1.49166  -0.05478   0.00000  -0.03845  -0.03848   1.45319
   A28        2.85814   0.01526   0.00000   0.01463   0.01469   2.87283
   A29        1.88546   0.01942   0.00000   0.01625   0.01626   1.90172
   A30        2.21150  -0.00403   0.00000  -0.00361  -0.00374   2.20776
   A31        2.09303  -0.02381   0.00000  -0.01873  -0.01874   2.07429
   A32        2.61722  -0.02276   0.00000  -0.01781  -0.01783   2.59939
   A33        1.93614   0.00068   0.00000   0.00045   0.00036   1.93650
   A34        1.81015   0.02092   0.00000   0.01804   0.01796   1.82812
   A35        2.15871  -0.00176   0.00000  -0.00205  -0.00210   2.15661
   A36        1.39815   0.01842   0.00000   0.01515   0.01501   1.41316
   A37        1.27840   0.01246   0.00000   0.00812   0.00820   1.28660
   A38        1.86649   0.01795   0.00000   0.01342   0.01337   1.87986
   A39        2.47637  -0.01122   0.00000  -0.00598  -0.00599   2.47039
   A40        1.50837  -0.02844   0.00000  -0.02420  -0.02404   1.48433
   A41        1.57276  -0.01154   0.00000  -0.00851  -0.00854   1.56422
   A42        2.23039   0.04070   0.00000   0.03118   0.03101   2.26140
   A43        2.02053   0.02833   0.00000   0.02188   0.02179   2.04232
   A44        1.74108  -0.00496   0.00000  -0.00673  -0.00654   1.73453
   A45        1.17355   0.01602   0.00000   0.01177   0.01166   1.18521
   A46        2.24608   0.00602   0.00000  -0.00625  -0.00626   2.23982
   A47        1.48532   0.03599   0.00000   0.02453   0.02453   1.50985
    D1        2.68336   0.02275   0.00000   0.02252   0.02248   2.70584
    D2        0.14974   0.00387   0.00000   0.00157   0.00171   0.15145
    D3       -2.95179  -0.01674   0.00000  -0.01694  -0.01689  -2.96868
    D4       -0.09081  -0.00195   0.00000  -0.00227  -0.00231  -0.09313
    D5       -0.37733   0.01542   0.00000   0.01236   0.01240  -0.36492
    D6        2.48365   0.03020   0.00000   0.02703   0.02698   2.51063
    D7        2.49859  -0.01032   0.00000  -0.00699  -0.00718   2.49141
    D8        2.52374  -0.01979   0.00000  -0.01361  -0.01380   2.50993
    D9       -0.01955  -0.02828   0.00000  -0.02054  -0.02031  -0.03986
   D10       -3.11360   0.00728   0.00000   0.00504   0.00483  -3.10877
   D11        0.25045  -0.00059   0.00000  -0.00248  -0.00261   0.24784
   D12       -0.40277  -0.00307   0.00000  -0.00316  -0.00304  -0.40582
   D13        2.96128  -0.01094   0.00000  -0.01068  -0.01049   2.95080
   D14       -0.09247   0.01028   0.00000   0.00757   0.00750  -0.08497
   D15       -2.42332   0.02291   0.00000   0.01799   0.01793  -2.40539
   D16        2.63878  -0.00665   0.00000  -0.00549  -0.00545   2.63332
   D17        0.30793   0.00597   0.00000   0.00494   0.00498   0.31290
   D18        2.51535   0.03040   0.00000   0.02405   0.02392   2.53926
   D19        0.16270   0.01583   0.00000   0.01228   0.01206   0.17477
   D20        0.05220   0.00047   0.00000   0.00052   0.00050   0.05269
   D21       -2.30044  -0.01410   0.00000  -0.01125  -0.01135  -2.31180
   D22       -0.31370  -0.00075   0.00000  -0.00039  -0.00036  -0.31405
   D23       -2.66634  -0.01531   0.00000  -0.01215  -0.01221  -2.67854
   D24       -2.22690  -0.00247   0.00000  -0.00189  -0.00180  -2.22871
   D25       -3.09188   0.00256   0.00000   0.00308   0.00304  -3.08884
   D26        0.98216   0.00367   0.00000   0.00249   0.00248   0.98464
   D27       -0.09277   0.00609   0.00000   0.00608   0.00604  -0.08673
   D28       -2.30192   0.00720   0.00000   0.00549   0.00548  -2.29644
   D29        0.35163   0.00940   0.00000   0.00708   0.00710   0.35874
   D30       -2.29618  -0.00952   0.00000  -0.00759  -0.00752  -2.30370
   D31        2.64064  -0.00731   0.00000  -0.00587  -0.00588   2.63476
   D32       -0.00717  -0.02624   0.00000  -0.02054  -0.02050  -0.02767
   D33        1.64826   0.00921   0.00000   0.00687   0.00696   1.65522
   D34       -0.29231   0.00067   0.00000   0.00065   0.00065  -0.29166
   D35        0.81237   0.01754   0.00000   0.01636   0.01630   0.82867
   D36       -1.12820   0.00899   0.00000   0.01014   0.00998  -1.11822
   D37       -0.89716   0.01164   0.00000   0.00949   0.00952  -0.88764
   D38       -2.83773   0.00309   0.00000   0.00328   0.00321  -2.83452
   D39       -2.50033  -0.00558   0.00000  -0.00184  -0.00186  -2.50219
   D40        0.22616   0.00730   0.00000   0.00793   0.00781   0.23397
   D41        1.42706  -0.02886   0.00000  -0.02398  -0.02372   1.40334
   D42       -1.81487   0.00640   0.00000   0.00434   0.00434  -1.81052
   D43        0.91163   0.01928   0.00000   0.01411   0.01401   0.92564
   D44        2.11252  -0.01687   0.00000  -0.01780  -0.01752   2.09500
   D45        1.48261   0.00281   0.00000   0.00265   0.00259   1.48520
   D46       -2.07408   0.01568   0.00000   0.01242   0.01226  -2.06182
   D47       -0.87319  -0.02047   0.00000  -0.01949  -0.01927  -0.89246
   D48       -2.52183  -0.01007   0.00000  -0.01055  -0.01053  -2.53236
   D49        1.15417  -0.00974   0.00000  -0.01025  -0.01005   1.14412
   D50       -0.28373   0.00206   0.00000   0.00411   0.00389  -0.27984
   D51        1.27226   0.00043   0.00000   0.00178   0.00178   1.27404
   D52        2.47587   0.01579   0.00000   0.01250   0.01270   2.48856
   D53        1.32351   0.01098   0.00000   0.01011   0.00999   1.33350
   D54        2.52712   0.02633   0.00000   0.02083   0.02090   2.54803
   D55       -1.46546   0.01406   0.00000   0.01277   0.01294  -1.45252
   D56        1.35569   0.00854   0.00000   0.00957   0.00954   1.36523
   D57       -0.71945  -0.02315   0.00000  -0.02367  -0.02383  -0.74328
   D58        0.47747  -0.00724   0.00000  -0.01304  -0.01322   0.46425
   D59       -2.12988  -0.00291   0.00000  -0.00085  -0.00098  -2.13086
   D60       -0.93296   0.01300   0.00000   0.00977   0.00963  -0.92333
   D61       -3.06250   0.01642   0.00000   0.02073   0.02101  -3.04149
   D62       -1.63583   0.01058   0.00000   0.00750   0.00723  -1.62861
   D63        1.13437   0.00514   0.00000   0.00416   0.00403   1.13840
   D64       -3.03562   0.01383   0.00000   0.01248   0.01246  -3.02316
   D65        1.66494  -0.00868   0.00000  -0.00710  -0.00708   1.65786
   D66       -0.32013   0.00294   0.00000   0.00237   0.00229  -0.31784
   D67        0.34966   0.01055   0.00000   0.00798   0.00800   0.35766
   D68       -0.93814  -0.00791   0.00000  -0.00688  -0.00686  -0.94499
   D69        2.51485   0.04123   0.00000   0.03379   0.03370   2.54855
   D70        1.22706   0.02277   0.00000   0.01894   0.01885   1.24590
   D71        0.98372   0.01665   0.00000   0.01784   0.01768   1.00140
   D72       -0.48633   0.01294   0.00000   0.01399   0.01375  -0.47258
   D73       -1.23636  -0.00428   0.00000   0.00042   0.00028  -1.23608
   D74       -2.70642  -0.00800   0.00000  -0.00343  -0.00364  -2.71006
         Item               Value     Threshold  Converged?
 Maximum Force            0.674802     0.000450     NO 
 RMS     Force            0.062013     0.000300     NO 
 Maximum Displacement     0.269218     0.001800     NO 
 RMS     Displacement     0.048139     0.001200     NO 
 Predicted change in Energy=-1.924336D-01
 GradGradGradGradGradGradGradGradGradGradGradGradGradGradGradGradGradGrad

                          Input orientation:                          
 ---------------------------------------------------------------------
 Center     Atomic      Atomic             Coordinates (Angstroms)
 Number     Number       Type             X           Y           Z
 ---------------------------------------------------------------------
      1          8           0        1.769754    0.130998   -0.078713
      2          6           0        2.977535    0.369647    0.283571
      3          7           0        3.078301    0.620115    1.534329
      4          6           0        4.319920    0.282976    1.765232
      5          6           0        4.717119    1.244091    2.681034
      6          6           0        5.848743    0.506465    2.572849
      7          6           0        6.347627    1.485497    3.461149
      8         16           0        8.709684    1.439629    2.746918
      9          6           0        6.704383    1.931430    1.395802
     10          6           0        4.936093    0.955702   -0.048613
     11          6           0        3.652181   -0.296634   -1.104244
     12         16           0        2.969614   -1.678914   -3.008465
     13         16           0        1.058649   -2.507489   -4.388071
     14          1           0        5.463635   -0.295105    0.985279
     15          1           0        4.281196    1.989149    3.322966
     16          1           0        6.814414    0.289115    1.467735
     17          1           0        6.379551    2.293792    4.192629
     18          1           0        9.370160    2.548837    2.224927
     19          1           0        7.420052    2.679912    2.559816
     20          1           0        7.661679    1.686736    2.700893
     21          1           0        4.954111   -0.255844   -0.611783
     22          1           0        2.235948   -0.667356   -1.402409
     23          1           0        3.282628   -3.020135   -3.059309
     24          1           0        0.234760   -1.584635   -5.011551
 ---------------------------------------------------------------------
                    Distance matrix (angstroms):
                    1          2          3          4          5
     1  O    0.000000
     2  C    1.283330   0.000000
     3  N    2.133878   1.279564   0.000000
     4  C    3.150647   2.001207   1.307133   0.000000
     5  C    4.188334   3.088468   2.095233   1.385714   0.000000
     6  C    4.879540   3.674691   2.960877   1.743414   1.355127
     7  C    5.943249   4.764414   3.892302   2.904099   1.823571
     8  S    7.606532   6.330124   5.818457   4.644521   3.997893
     9  C    5.455851   4.191136   3.858394   2.922250   2.464442
    10  C    3.272116   2.071173   2.463679   2.030336   2.753560
    11  C    2.185889   1.680806   2.851637   3.002618   4.223300
    12  S    3.646765   3.877392   5.092576   5.334840   6.630847
    13  S    5.102730   5.812424   6.995407   7.502381   8.799488
    14  H    3.867609   2.667393   2.613217   1.500196   2.408733
    15  H    4.618602   3.682423   2.553513   2.310641   1.075741
    16  H    5.278740   4.016263   3.751337   2.512178   2.604365
    17  H    6.646222   5.527819   4.556973   3.765331   2.480014
    18  H    8.301739   7.027331   6.616977   5.554311   4.853986
    19  H    6.736814   5.500416   4.913775   3.998435   3.063025
    20  H    6.697858   5.433174   4.848289   3.743442   2.977711
    21  H    3.251759   2.258263   2.981906   2.518476   3.626101
    22  H    1.614582   2.113730   3.315353   3.908966   5.146294
    23  H    4.593733   4.770593   5.864698   5.938241   7.293348
    24  H    5.443574   6.275377   7.469618   8.130270   9.341793
                    6          7          8          9         10
     6  C    0.000000
     7  C    1.412963   0.000000
     8  S    3.014312   2.468105   0.000000
     9  C    2.036685   2.142847   2.467512   0.000000
    10  C    2.811905   3.819888   4.721140   2.482988   0.000000
    11  C    4.357852   5.593232   6.589719   4.531053   2.081138
    12  S    6.649536   7.954896   8.706213   6.810334   4.423682
    13  S    8.971250  10.272657  11.181509   9.221253   6.771939
    14  H    1.819671   3.175204   4.080381   2.581752   1.706386
    15  H    2.284345   2.131408   4.499479   3.096632   3.586705
    16  H    1.483589   2.371270   2.559695   1.647568   2.504344
    17  H    2.469814   1.090606   2.872141   2.838849   4.675702
    18  H    4.085671   3.434333   1.392497   2.859197   5.231445
    19  H    2.681987   1.840958   1.799016   1.557991   3.993351
    20  H    2.167065   1.531412   1.077726   1.636934   3.939925
    21  H    3.394608   4.643591   5.315997   3.446450   1.336162
    22  H    5.498438   6.722713   7.972800   5.877974   3.428974
    23  H    7.123417   8.497724   9.113435   7.488286   5.254096
    24  H    9.665021  10.889422  11.881260   9.760784   7.292914
                   11         12         13         14         15
    11  C    0.000000
    12  S    2.450031   0.000000
    13  S    4.732631   2.498327   0.000000
    14  H    2.765407   4.907653   7.291874   0.000000
    15  H    5.022017   7.433838   9.490240   3.475739   0.000000
    16  H    4.117997   6.220289   8.674116   1.548768   3.570601
    17  H    6.496593   8.903135  11.180014   4.222367   2.291772
    18  H    7.202456   9.285971  11.763477   4.988554   5.236077
    19  H    6.040035   8.355329  10.754055   3.893259   3.303328
    20  H    5.872726   8.120335  10.556748   3.420881   3.450522
    21  H    1.392553   3.421614   5.874085   1.676831   4.579853
    22  H    1.494005   2.034928   3.699500   4.032069   5.793895
    23  H    3.372878   1.378200   2.640927   5.342403   8.174564
    24  H    5.348341   3.391264   1.385345   8.060148   9.930244
                   16         17         18         19         20
    16  H    0.000000
    17  H    3.410701   0.000000
    18  H    3.494499   3.588961   0.000000
    19  H    2.697285   1.974287   1.982990   0.000000
    20  H    2.047408   2.058555   1.971970   1.031836   0.000000
    21  H    2.842904   5.622712   5.951021   4.975798   4.698762
    22  H    5.487705   7.565863   8.625453   7.333373   7.198429
    23  H    6.627124   9.508909   9.797686   9.010182   8.631955
    24  H    9.422523  11.726789  12.365587  11.275654  11.195659
                   21         22         23         24
    21  H    0.000000
    22  H    2.860566   0.000000
    23  H    4.052844   3.062096   0.000000
    24  H    6.587558   4.227536   3.893765   0.000000
 Stoichiometry    C8H11NOS3
 Framework group  C1[X(C8H11NOS3)]
 Deg. of freedom    66
 Full point group                 C1      NOp   1
 Largest Abelian subgroup         C1      NOp   1
 Largest concise Abelian subgroup C1      NOp   1
                         Standard orientation:                         
 ---------------------------------------------------------------------
 Center     Atomic      Atomic             Coordinates (Angstroms)
 Number     Number       Type             X           Y           Z
 ---------------------------------------------------------------------
      1          8           0        1.674276    1.995172    0.267299
      2          6           0        0.593064    1.303892    0.260226
      3          7           0       -0.430986    1.991056   -0.080963
      4          6           0       -1.222741    1.060230   -0.544951
      5          6           0       -2.466434    1.495339   -0.115872
      6          6           0       -2.803408    0.363401   -0.780352
      7          6           0       -4.097093    0.707028   -0.327842
      8         16           0       -5.030274   -1.571861   -0.162366
      9          6           0       -3.053365   -0.633659    0.977908
     10          6           0       -0.598443   -0.288577    0.838247
     11          6           0        1.395735   -0.172859    0.254296
     12         16           0        3.659558   -1.042356   -0.094604
     13         16           0        6.100888   -0.512622   -0.125044
     14          1           0       -1.162130   -0.422235   -0.766790
     15          1           0       -2.928124    2.381369    0.282890
     16          1           0       -2.545668   -1.075314   -0.525975
     17          1           0       -4.931282    1.289568    0.064840
     18          1           0       -5.494736   -2.120937    1.030042
     19          1           0       -4.583148   -0.360944    1.090718
     20          1           0       -4.450932   -0.711126    0.129169
     21          1           0        0.241939   -0.912573    0.007755
     22          1           0        2.610340    0.687373    0.124739
     23          1           0        4.013559   -1.641079   -1.284415
     24          1           0        6.686239    0.007782    1.017639
 ---------------------------------------------------------------------
 Rotational constants (GHZ):           1.3429454           0.1565649           0.1436138
 Standard basis: 6-31G(2df,p) (6D, 7F)
 There are   470 symmetry adapted cartesian basis functions of A   symmetry.
 There are   431 symmetry adapted basis functions of A   symmetry.
   431 basis functions,   721 primitive gaussians,   470 cartesian basis functions
    61 alpha electrons       61 beta electrons
       nuclear repulsion energy       978.1857191693 Hartrees.
 NAtoms=   24 NActive=   24 NUniq=   24 SFac= 1.00D+00 NAtFMM=   60 NAOKFM=F Big=F
 Integral buffers will be    131072 words long.
 Raffenetti 2 integral format.
 Two-electron integral symmetry is turned on.
 One-electron integrals computed using PRISM.
 PrsmSu:  requested number of processors reduced to:  13 ShMem   1 Linda.
 NBasis=   431 RedAO= T EigKep=  1.62D-04  NBF=   431
 NBsUse=   431 1.00D-06 EigRej= -1.00D+00 NBFU=   431
 Initial guess from the checkpoint file:  "OdC1NdCCdCCd[SH]CC1Cd[SH]S.chk"
 B after Tr=     0.000000    0.000000    0.000000
         Rot=    0.999993    0.000842   -0.000309    0.003514 Ang=   0.42 deg.
 ExpMin= 1.17D-01 ExpMax= 2.19D+04 ExpMxC= 3.30D+03 IAcc=2 IRadAn=         4 AccDes= 0.00D+00
 Harris functional with IExCor=  402 and IRadAn=       4 diagonalized for initial guess.
 HarFok:  IExCor=  402 AccDes= 0.00D+00 IRadAn=         4 IDoV= 1 UseB2=F ITyADJ=14
 ICtDFT=  3500011 ScaDFX=  1.000000  1.000000  1.000000  1.000000
 FoFCou: FMM=F IPFlag=           0 FMFlag=      100000 FMFlg1=           0
         NFxFlg=           0 DoJE=T BraDBF=F KetDBF=T FulRan=T
         wScrn=  0.000000 ICntrl=       500 IOpCl=  0 I1Cent=   200000004 NGrid=           0
         NMat0=    1 NMatS0=      1 NMatT0=    0 NMatD0=    1 NMtDS0=    0 NMtDT0=    0
 Petite list used in FoFCou.
 Requested convergence on RMS density matrix=1.00D-08 within 128 cycles.
 Requested convergence on MAX density matrix=1.00D-06.
 Requested convergence on             energy=1.00D-06.
 No special actions if energy rises.
 Integral accuracy reduced to 1.0D-05 until final iterations.
 EnCoef did     4 forward-backward iterations
 Initial convergence to 1.0D-05 achieved.  Increase integral accuracy.
 SCF Done:  E(RB3LYP) =  -1634.51666129     A.U. after   23 cycles
            NFock= 23  Conv=0.61D-08     -V/T= 2.0030
 PrsmSu:  requested number of processors reduced to:  13 ShMem   1 Linda.
 Calling FoFJK, ICntrl=      2127 FMM=F ISym2X=0 I1Cent= 0 IOpClX= 0 NMat=1 NMatS=1 NMatT=0.
 ***** Axes restored to original set *****
 -------------------------------------------------------------------
 Center     Atomic                   Forces (Hartrees/Bohr)
 Number     Number              X              Y              Z
 -------------------------------------------------------------------
      1        8          -0.022297993    0.005614532   -0.041333465
      2        6          -0.065874600   -0.078835164   -0.074503685
      3        7          -0.043132638   -0.015676940   -0.019791442
      4        6           0.030333846    0.009408142    0.049693798
      5        6          -0.037981789    0.037767198    0.023971660
      6        6           0.169956146   -0.027523196    0.061159952
      7        6          -0.015266236   -0.037157054   -0.030042957
      8       16           0.375230266   -0.087788013    0.038665761
      9        6          -0.011934294    0.038120534    0.026810258
     10        6          -0.001110051   -0.042269087   -0.039910230
     11        6           0.029566772    0.049066262    0.074810584
     12       16          -0.039381742   -0.018056719   -0.026004104
     13       16           0.008211157   -0.003815942    0.002003781
     14        1          -0.068083837    0.031522466    0.002297571
     15        1          -0.012819774    0.004306782   -0.017606304
     16        1          -0.024215745    0.027986647    0.019978487
     17        1          -0.007960748   -0.011402988   -0.001091895
     18        1          -0.014442876   -0.016229908    0.001894002
     19        1          -0.053580255    0.051669488   -0.062714027
     20        1          -0.229380060    0.033669152    0.000574589
     21        1          -0.007670992    0.007916785   -0.020977459
     22        1           0.023260447    0.031274896    0.016736157
     23        1          -0.001437601    0.007340459    0.002938803
     24        1           0.020012599    0.003091667    0.012440167
 -------------------------------------------------------------------
 Cartesian Forces:  Max     0.375230266 RMS     0.065155039

[...]
   D39       -1.96638   0.00107   0.00000   0.08947   0.01827  -1.94811
   D40        1.11075   0.00149   0.00000   0.10738   0.02123   1.13198
   D41        1.28583   0.00216   0.00000   0.09480   0.01920   1.30503
   D42       -1.99545   0.00104   0.00000   0.04587   0.00846  -1.98699
   D43        1.08168   0.00147   0.00000   0.06378   0.01141   1.09310
   D44        1.25676   0.00213   0.00000   0.05120   0.00939   1.26615
   D45        1.07534  -0.00150   0.00000  -0.05085  -0.00935   1.06599
   D46       -2.13071  -0.00108   0.00000  -0.03294  -0.00639  -2.13710
   D47       -1.95563  -0.00041   0.00000  -0.04552  -0.00842  -1.96405
   D48       -2.77456   0.00144   0.00000   0.02477   0.00456  -2.76999
   D49        0.78093   0.00017   0.00000  -0.01442  -0.00265   0.77828
   D50        0.16312  -0.00122   0.00000  -0.00004  -0.00000   0.16312
   D51        2.08444  -0.00144   0.00000  -0.06136  -0.01228   2.07217
   D52       -3.00355  -0.00517   0.00000  -0.18308  -0.03677  -3.04032
   D53        1.51852   0.00057   0.00000  -0.03723  -0.00678   1.51174
   D54        2.71371  -0.00316   0.00000  -0.15895  -0.03127   2.68244
   D55       -1.69429  -0.00170   0.00000  -0.05900  -0.01137  -1.70566
   D56        1.07451  -0.00046   0.00000  -0.02807  -0.00545   1.06906
   D57       -2.70896  -0.00887   0.00000  -0.16195  -0.03137  -2.74033
   D58       -0.10256  -0.00342   0.00000  -0.04124  -0.00798  -0.11055
   D59        2.80929  -0.00182   0.00000  -0.10662  -0.02237   2.78692
   D60       -0.86750   0.00364   0.00000   0.01409   0.00101  -0.86649
   D61       -2.86335  -0.00058   0.00000  -0.02300  -0.00587  -2.86922
   D62       -2.02669  -0.00155   0.00000  -0.06944  -0.01523  -2.04192
   D63        1.57831   0.00315   0.00000   0.12649   0.02511   1.60342
   D64       -3.01149  -0.00077   0.00000  -0.02586  -0.00396  -3.01545
   D65        1.50359   0.00030   0.00000   0.00184   0.00024   1.50384
   D66       -0.42007  -0.00207   0.00000  -0.11072  -0.02276  -0.44283
   D67        0.49333  -0.00142   0.00000  -0.05226  -0.00983   0.48350
   D68       -0.70223   0.00346   0.00000   0.08472   0.01764  -0.68459
   D69        2.86340  -0.00231   0.00000  -0.03336  -0.00443   2.85897
   D70        1.66785   0.00256   0.00000   0.10362   0.02303   1.69088
   D71        0.98950  -0.00486   0.00000   0.02255   0.00565   0.99515
   D72       -0.09456   0.00277   0.00000   0.03170   0.00556  -0.08900
   D73       -1.24917  -0.00348   0.00000   0.00142  -0.00010  -1.24927
   D74       -2.33323   0.00415   0.00000   0.01058  -0.00019  -2.33342
         Item               Value     Threshold  Converged?
 Maximum Force            0.019337     0.000450     NO 
 RMS     Force            0.004028     0.000300     NO 
 Maximum Displacement     0.054350     0.001800     NO 
 RMS     Displacement     0.015437     0.001200     NO 
 Predicted change in Energy=-3.470187D-03
 GradGradGradGradGradGradGradGradGradGradGradGradGradGradGradGradGradGrad

                          Input orientation:                          
 ---------------------------------------------------------------------
 Center     Atomic      Atomic             Coordinates (Angstroms)
 Number     Number       Type             X           Y           Z
 ---------------------------------------------------------------------
      1          8           0        1.926761   -0.751327   -0.605964
      2          6           0        3.177653   -0.478541   -0.229038
      3          7           0        3.370640   -0.195107    1.009543
      4          6           0        4.560668    0.235490    1.514564
      5          6           0        4.661505    0.932938    2.667406
      6          6           0        5.834451    1.587055    3.216334
      7          6           0        6.469371    2.260745    4.064585
      8         16           0        9.545577    1.360349    3.790640
      9          6           0        6.735692    2.979864    2.302072
     10          6           0        4.926412    0.041968   -2.214149
     11          6           0        4.163405   -0.433847   -1.307561
     12         16           0        1.837192   -2.047946   -3.675448
     13         16           0       -0.186831   -2.427116   -4.199109
     14          1           0        5.485785    0.134748    0.925365
     15          1           0        3.781457    1.197187    3.251899
     16          1           0        6.764977    1.897579    1.888346
     17          1           0        6.410291    2.791643    4.992207
     18          1           0       10.386142    2.064540    3.012167
     19          1           0        7.852052    2.866976    2.377591
     20          1           0        8.418092    1.998488    3.311533
     21          1           0        5.351997   -0.251225   -1.020328
     22          1           0        1.884779   -1.022086   -1.563576
     23          1           0        2.146660   -3.345128   -3.487096
     24          1           0       -0.316988   -1.249269   -4.840013
 ---------------------------------------------------------------------
                    Distance matrix (angstroms):
                    1          2          3          4          5
     1  O    0.000000
     2  C    1.334623   0.000000
     3  N    2.236970   1.285170   0.000000
     4  C    3.522487   2.337245   1.362581   0.000000
     5  C    4.585906   3.547320   2.384812   1.351165   0.000000
     6  C    5.945422   4.816206   3.757179   2.518982   1.450859
     7  C    7.177878   6.064181   4.996662   3.774575   2.642643
     8  S    9.046307   7.751759   6.948654   5.594206   5.029760
     9  C    6.745687   5.570164   4.803608   3.589219   2.936942
    10  C    3.494780   2.696248   3.587314   3.751601   4.969263
    11  C    2.365504   1.461820   2.460579   2.927493   4.232797
    12  S    3.333312   4.017165   5.266272   6.290280   7.556071
    13  S    4.492908   5.556812   6.690854   7.891405   9.052368
    14  H    3.974513   2.652591   2.142365   1.101429   2.085965
    15  H    4.703160   3.910187   2.671219   2.133159   1.089011
    16  H    6.053646   4.795639   4.083278   2.785899   2.441733
    17  H    7.999638   6.957402   5.832818   4.695639   3.452207
    18  H    9.621908   8.302709   7.637655   6.286842   5.845583
    19  H    7.556640   6.311656   5.597407   4.301482   3.742203
    20  H    8.065089   6.792166   5.965550   4.606190   3.957555
    21  H    3.486265   2.324991   2.837129   2.699772   3.934260
    22  H    0.996039   1.935965   3.084254   4.268117   5.425269
    23  H    3.882921   4.460405   5.624991   6.607939   7.905960
    24  H    4.817626   5.836748   6.994795   8.147188   9.268698
                    6          7          8          9         10
     6  C    0.000000
     7  C    1.255593   0.000000
     8  S    3.762137   3.216955   0.000000
     9  C    1.894209   1.922111   3.568489   0.000000
    10  C    5.718563   6.835656   7.689752   5.683395   0.000000
    11  C    5.228964   6.437256   7.627487   5.594599   1.276903
    12  S    8.757167   9.996500  11.259580   9.219812   4.005798
    13  S   10.361380  11.600419  13.149172  10.928043   6.015123
    14  H    2.734831   3.916888   5.117989   3.398864   3.190305
    15  H    2.089987   3.002749   5.791541   3.578773   5.702905
    16  H    1.651017   2.226049   3.411608   1.159038   4.863545
    17  H    2.221790   1.070432   3.649984   2.716272   7.854563
    18  H    4.581219   4.060440   1.344788   3.829861   7.823926
    19  H    2.532272   2.263906   2.671077   1.124592   6.133850
    20  H    2.617927   2.105559   1.381298   2.193760   6.822973
    21  H    4.643419   5.780559   6.582453   4.836620   1.300881
    22  H    6.727189   7.966911   9.645281   7.381748   3.287399
    23  H    9.102868  10.350823  11.395215   9.725185   4.562877
    24  H   10.525666  11.733147  13.362951  10.891981   6.004640
                   11         12         13         14         15
    11  C    0.000000
    12  S    3.690999   0.000000
    13  S    5.590950   2.124773   0.000000
    14  H    2.656679   6.264492   8.062378   0.000000
    15  H    4.857451   7.892983   9.186969   3.073479   0.000000
    16  H    4.734717   8.414632  10.202339   2.381436   3.354284
    17  H    7.425588  10.929917  12.459444   4.944998   3.532950
    18  H    7.976493  11.606950  13.563378   5.665010   6.665706
    19  H    6.171053   9.847552  11.657789   3.895286   4.485795
    20  H    6.734586  10.416323  12.249099   4.214944   4.705744
    21  H    1.236367   4.757281   6.746686   1.988113   4.776653
    22  H    2.367215   2.348330   3.634791   4.527730   5.631284
    23  H    4.158508   1.346822   2.606701   6.536750   8.289707
    24  H    5.763424   2.575769   1.347227   8.296219   9.394755
                   16         17         18         19         20
    16  H    0.000000
    17  H    3.249478   0.000000
    18  H    3.795218   4.500736   0.000000
    19  H    1.536497   2.986731   2.732801   0.000000
    20  H    2.183675   2.735877   1.991784   1.395321   0.000000
    21  H    3.882558   6.821261   6.853203   5.245885   5.764301
    22  H    6.652560   8.831935  10.135969   8.140390   8.693374
    23  H    8.815340  11.302083  11.806524  10.273086  10.682062
    24  H   10.262928  12.580055  13.681924  11.652060  12.381327
                   21         22         23         24
    21  H    0.000000
    22  H    3.593181   0.000000
    23  H    5.092285   3.027381   0.000000
    24  H    6.908218   3.954039   3.506076   0.000000
 Stoichiometry    C8H11NOS3
 Framework group  C1[X(C8H11NOS3)]
 Deg. of freedom    66
 Full point group                 C1      NOp   1
 Largest Abelian subgroup         C1      NOp   1
 Largest concise Abelian subgroup C1      NOp   1
                         Standard orientation:                         
 ---------------------------------------------------------------------
 Center     Atomic      Atomic             Coordinates (Angstroms)
 Number     Number       Type             X           Y           Z
 ---------------------------------------------------------------------
      1          8           0        2.207234    1.200479   -0.162584
      2          6           0        1.040431    0.552689   -0.175125
      3          7           0       -0.012950    1.242334   -0.432884
      4          6           0       -1.281792    0.752992   -0.347964
      5          6           0       -2.365792    1.543147   -0.185948
      6          6           0       -3.732664    1.140064    0.086404
      7          6           0       -4.954307    1.333000    0.302914
      8         16           0       -6.461179   -1.335516   -0.675431
      9          6           0       -4.210408    0.175551    1.645091
     10          6           0        1.034424   -1.899206    0.946448
     11          6           0        1.099002   -0.855115    0.214203
     12         16           0        4.776061   -0.922742   -0.099061
     13         16           0        6.584280    0.192256   -0.056837
     14          1           0       -1.457833   -0.332337   -0.283033
     15          1           0       -2.274548    2.625226   -0.103953
     16          1           0       -3.566702   -0.328048    0.823263
     17          1           0       -5.724015    2.067948    0.417914
     18          1           0       -6.743554   -2.310688    0.206474
     19          1           0       -4.950367   -0.639277    1.414390
     20          1           0       -5.632663   -0.657497    0.197402
     21          1           0        0.064981   -1.530825    0.161101
     22          1           0        2.970003    0.576094   -0.019683
     23          1           0        4.911956   -1.303581   -1.383749
     24          1           0        6.675553    0.130120    1.285858
 ---------------------------------------------------------------------
 Rotational constants (GHZ):           1.4338612           0.1090494           0.1043492
 Standard basis: 6-31G(2df,p) (6D, 7F)
 There are   470 symmetry adapted cartesian basis functions of A   symmetry.
 There are   431 symmetry adapted basis functions of A   symmetry.
   431 basis functions,   721 primitive gaussians,   470 cartesian basis functions
    61 alpha electrons       61 beta electrons
       nuclear repulsion energy       883.2468561480 Hartrees.
 NAtoms=   24 NActive=   24 NUniq=   24 SFac= 1.00D+00 NAtFMM=   60 NAOKFM=F Big=F
 Integral buffers will be    131072 words long.
 Raffenetti 2 integral format.
 Two-electron integral symmetry is turned on.
 One-electron integrals computed using PRISM.
 PrsmSu:  requested number of processors reduced to:  13 ShMem   1 Linda.
 NBasis=   431 RedAO= T EigKep=  2.33D-04  NBF=   431
 NBsUse=   431 1.00D-06 EigRej= -1.00D+00 NBFU=   431
 Initial guess from the checkpoint file:  "OdC1NdCCdCCd[SH]CC1Cd[SH]S.chk"
 B after Tr=     0.000000    0.000000    0.000000
         Rot=    1.000000   -0.000418   -0.000089   -0.000011 Ang=  -0.05 deg.
 ExpMin= 1.17D-01 ExpMax= 2.19D+04 ExpMxC= 3.30D+03 IAcc=2 IRadAn=         4 AccDes= 0.00D+00
 Harris functional with IExCor=  402 and IRadAn=       4 diagonalized for initial guess.
 HarFok:  IExCor=  402 AccDes= 0.00D+00 IRadAn=         4 IDoV= 1 UseB2=F ITyADJ=14
 ICtDFT=  3500011 ScaDFX=  1.000000  1.000000  1.000000  1.000000
 FoFCou: FMM=F IPFlag=           0 FMFlag=      100000 FMFlg1=           0
         NFxFlg=           0 DoJE=T BraDBF=F KetDBF=T FulRan=T
         wScrn=  0.000000 ICntrl=       500 IOpCl=  0 I1Cent=   200000004 NGrid=           0
         NMat0=    1 NMatS0=      1 NMatT0=    0 NMatD0=    1 NMtDS0=    0 NMtDT0=    0
 Petite list used in FoFCou.
 Requested convergence on RMS density matrix=1.00D-08 within 128 cycles.
 Requested convergence on MAX density matrix=1.00D-06.
 Requested convergence on             energy=1.00D-06.
 No special actions if energy rises.
 Integral accuracy reduced to 1.0D-05 until final iterations.
 Initial convergence to 1.0D-05 achieved.  Increase integral accuracy.
 SCF Done:  E(RB3LYP) =  -1635.60706605     A.U. after   12 cycles
            NFock= 12  Conv=0.39D-08     -V/T= 2.0040
 PrsmSu:  requested number of processors reduced to:  13 ShMem   1 Linda.
 Calling FoFJK, ICntrl=      2127 FMM=F ISym2X=0 I1Cent= 0 IOpClX= 0 NMat=1 NMatS=1 NMatT=0.
 ***** Axes restored to original set *****
 -------------------------------------------------------------------
 Center     Atomic                   Forces (Hartrees/Bohr)
 Number     Number              X              Y              Z
 -------------------------------------------------------------------
      1        8           0.001431509   -0.006608500   -0.015380618
      2        6          -0.003789178    0.000882058    0.005918344
      3        7          -0.004122386   -0.000975681   -0.005191151
      4        6           0.012791071    0.011657307   -0.003147182
      5        6           0.010276077    0.005554479    0.008961963
      6        6          -0.012358326   -0.008779604    0.005981127
      7        6          -0.020099030    0.010892273   -0.020769436
      8       16          -0.000427587   -0.002141898    0.001182995
      9        6           0.001505394   -0.006975268    0.009199918
     10        6          -0.005794774   -0.008478930   -0.000592507
     11        6           0.003522721    0.013585126    0.004776855
     12       16          -0.000229840    0.001110781   -0.000800009
     13       16           0.000109503    0.001225035    0.002692442
     14        1          -0.001909326   -0.003656810    0.002063478
     15        1          -0.001789538   -0.008122739   -0.001625150
     16        1          -0.006480361    0.006089247   -0.017547649
     17        1           0.008063597   -0.000127948    0.000644989
     18        1          -0.000303018    0.000696723   -0.000399373
     19        1          -0.004916689    0.003489640    0.004171441
     20        1           0.019236182   -0.009267650    0.006882877
     21        1           0.003958771   -0.000780849    0.000517494
     22        1           0.000728326    0.001680062    0.014982460
     23        1          -0.000114263    0.000390994   -0.000770326
     24        1           0.000711163   -0.001337847   -0.001752981
 -------------------------------------------------------------------
 Cartesian Forces:  Max     0.020769436 RMS     0.007411460

 GradGradGradGradGradGradGradGradGradGradGradGradGradGradGradGradGradGrad
 Berny optimization.
 Using GEDIIS/GDIIS optimizer.
 FormGI is forming the generalized inverse of G from B-inverse, IUseBI=4.
 Internal  Forces:  Max     0.027304286 RMS     0.005137580
 Search for a local minimum.
 Step number  20 out of a maximum of  144
 All quantities printed in internal units (Hartrees-Bohrs-Radians)
 Mixed Optimization -- RFO/linear search
 Update second derivatives using D2CorX and points   19   20
 DE= -3.52D-03 DEPred=-3.47D-03 R= 1.01D+00
 TightC=F SS=  1.41D+00  RLast= 1.51D-01 DXNew= 2.5227D+00 4.5233D-01
 Trust test= 1.01D+00 RLast= 1.51D-01 DXMaxT set to 1.50D+00
 ITU=  1 -1  1  1  1  1  1  0  1  1 -1  0  1  1  1  0  0  0  1  0
 Use linear search instead of GDIIS.
     Eigenvalues ---    0.00000   0.00230   0.00233   0.00291   0.00342
     Eigenvalues ---    0.00410   0.00613   0.00624   0.00875   0.01140
     Eigenvalues ---    0.01655   0.01681   0.01905   0.02012   0.02202
     Eigenvalues ---    0.02468   0.03356   0.04174   0.04514   0.04838
     Eigenvalues ---    0.05426   0.05440   0.05693   0.06118   0.06297
     Eigenvalues ---    0.06714   0.07745   0.08140   0.08941   0.09403
     Eigenvalues ---    0.09928   0.10556   0.11227   0.11993   0.12366
     Eigenvalues ---    0.12756   0.14168   0.14690   0.15079   0.15547
     Eigenvalues ---    0.15686   0.15742   0.16057   0.16161   0.16922
     Eigenvalues ---    0.17676   0.18280   0.20256   0.22192   0.22677
     Eigenvalues ---    0.22757   0.23238   0.24809   0.26609   0.28628
     Eigenvalues ---    0.34484   0.36401   0.37859   0.41433   0.43990
     Eigenvalues ---    0.49318   0.66499   0.76724   0.80443   0.99146
     Eigenvalues ---    5.49683
 RFO step:  Lambda=-7.17764173D-03 EMin= 3.30188255D-09
 Quartic linear search produced a step of  2.00000.
 SLEqS3 Cycle:    75 Max:0.829759E-01 RMS: 414.351     Conv:0.239736E-02
 Iteration  1 RMS(Cart)=  0.09713538 RMS(Int)=  0.01066891
 New curvilinear step failed, DQL= 6.25D+00 SP=-1.08D-01.
 ITry= 1 IFail=1 DXMaxC= 4.14D-01 DCOld= 1.00D+10 DXMaxT= 1.50D+00 DXLimC= 3.00D+00 Rises=F
 SLEqS3 Cycle:    75 Max:0.733882E-01 RMS: 367.453     Conv:0.212602E-02
 Iteration  1 RMS(Cart)=  0.09026702 RMS(Int)=  0.00957654
 New curvilinear step failed, DQL= 6.26D+00 SP=-1.10D-01.
 ITry= 2 IFail=1 DXMaxC= 3.81D-01 DCOld= 1.00D+10 DXMaxT= 1.50D+00 DXLimC= 3.00D+00 Rises=F
 SLEqS3 Cycle:    75 Max:0.641512E-01 RMS: 320.556     Conv:0.185469E-02
 Iteration  1 RMS(Cart)=  0.08343513 RMS(Int)=  0.00850978
 New curvilinear step failed, DQL= 6.26D+00 SP=-1.12D-01.
 ITry= 3 IFail=1 DXMaxC= 3.47D-01 DCOld= 1.00D+10 DXMaxT= 1.50D+00 DXLimC= 3.00D+00 Rises=F
 SLEqS3 Cycle:    75 Max:0.555119E-01 RMS: 273.658     Conv:0.158335E-02
 Iteration  1 RMS(Cart)=  0.07670064 RMS(Int)=  0.00747133
 New curvilinear step failed, DQL= 6.26D+00 SP=-1.13D-01.
 ITry= 4 IFail=1 DXMaxC= 3.14D-01 DCOld= 1.00D+10 DXMaxT= 1.50D+00 DXLimC= 3.00D+00 Rises=F
 SLEqS3 Cycle:    75 Max:0.470915E-01 RMS: 226.760     Conv:0.131201E-02
 Iteration  1 RMS(Cart)=  0.07014345 RMS(Int)=  0.00645933
 SLEqS3 Cycle:    25 Max:0.485515E-01 RMS: 570.581     Conv:0.328673E-02
 Iteration  2 RMS(Cart)=  0.01848646 RMS(Int)=  0.00471210
 Iteration  3 RMS(Cart)=  0.00000246 RMS(Int)=  0.51072937
 SLEqS3 Cycle:   721 Max:0.150342E-03 RMS:0.242229E-04 Conv:0.321444E-06
slurmstepd: error: *** JOB 27447250 ON lewis4-r630-hpc4-node295 CANCELLED AT 2023-05-18T04:42:55 DUE TO TIME LIMIT ***
