### Starting Gaussian ###
 Entering Gaussian System, Link 0=g16
 Initial command:
 /cluster/software/gaussian/gaussian-16-A.03/avx2/g16/l1.exe "/local/scratch/linjian/Gau-6430.inp" -scrdir="/local/scratch/linjian/"
 Entering Link 1 = /cluster/software/gaussian/gaussian-16-A.03/avx2/g16/l1.exe PID=      6431.
  
 Copyright (c) 1988,1990,1992,1993,1995,1998,2003,2009,2016,
            Gaussian, Inc.  All Rights Reserved.
  
 This is part of the Gaussian(R) 16 program.  It is based on
 the Gaussian(R) 09 system (copyright 2009, Gaussian, Inc.),
 the Gaussian(R) 03 system (copyright 2003, Gaussian, Inc.),
 the Gaussian(R) 98 system (copyright 1998, Gaussian, Inc.),
 the Gaussian(R) 94 system (copyright 1995, Gaussian, Inc.),
 the Gaussian 92(TM) system (copyright 1992, Gaussian, Inc.),
 the Gaussian 90(TM) system (copyright 1990, Gaussian, Inc.),
 the Gaussian 88(TM) system (copyright 1988, Gaussian, Inc.),
 the Gaussian 86(TM) system (copyright 1986, Carnegie Mellon
 University), and the Gaussian 82(TM) system (copyright 1983,
 Carnegie Mellon University). Gaussian is a federally registered
 trademark of Gaussian, Inc.
  
 This software contains proprietary and confidential information,
 including trade secrets, belonging to Gaussian, Inc.
  
 This software is provided under written license and may be
 used, copied, transmitted, or stored only in accord with that
 written license.
  
 The following legend is applicable only to US Government
 contracts under FAR:
  
                    RESTRICTED RIGHTS LEGEND
  
 Use, reproduction and disclosure by the US Government is
 subject to restrictions as set forth in subparagraphs (a)
 and (c) of the Commercial Computer Software - Restricted
 Rights clause in FAR 52.227-19.
  
 Gaussian, Inc.
 340 Quinnipiac St., Bldg. 40, Wallingford CT 06492
  
  
 ---------------------------------------------------------------
 Warning -- This program may not be used in any manner that
 competes with the business of Gaussian, Inc. or will provide
 assistance to any competitor of Gaussian, Inc.  The licensee
 of this program is prohibited from giving any competitor of
 Gaussian, Inc. access to this program.  By using this program,
 the user acknowledges that Gaussian, Inc. is engaged in the
 business of creating and licensing software in the field of
 computational chemistry and represents and warrants to the
 licensee that it is not a competitor of Gaussian, Inc. and that
 it will not use this program in any manner prohibited above.
 ---------------------------------------------------------------
  

 Cite this work as:
 Gaussian 16, Revision A.03,
 M. J. Frisch, G. W. Trucks, H. B. Schlegel, G. E. Scuseria, 
 M. A. Robb, J. R. Cheeseman, G. Scalmani, V. Barone, 
 G. A. Petersson, H. Nakatsuji, X. Li, M. Caricato, A. V. Marenich, 
 J. Bloino, B. G. Janesko, R. Gomperts, B. Mennucci, H. P. Hratchian, 
 J. V. Ortiz, A. F. Izmaylov, J. L. Sonnenberg, D. Williams-Young, 
 F. Ding, F. Lipparini, F. Egidi, J. Goings, B. Peng, A. Petrone, 
 T. Henderson, D. Ranasinghe, V. G. Zakrzewski, J. Gao, N. Rega, 
 G. Zheng, W. Liang, M. Hada, M. Ehara, K. Toyota, R. Fukuda, 
 J. Hasegawa, M. Ishida, T. Nakajima, Y. Honda, O. Kitao, H. Nakai, 
 T. Vreven, K. Throssell, J. A. Montgomery, Jr., J. E. Peralta, 
 F. Ogliaro, M. J. Bearpark, J. J. Heyd, E. N. Brothers, K. N. Kudin, 
 V. N. Staroverov, T. A. Keith, R. Kobayashi, J. Normand, 
 K. Raghavachari, A. P. Rendell, J. C. Burant, S. S. Iyengar, 
 J. Tomasi, M. Cossi, J. M. Millam, M. Klene, C. Adamo, R. Cammi, 
 J. W. Ochterski, R. L. Martin, K. Morokuma, O. Farkas, 
 J. B. Foresman, and D. J. Fox, Gaussian, Inc., Wallingford CT, 2016.
 
 ******************************************
 Gaussian 16:  ES64L-G16RevA.03 25-Dec-2016
                17-May-2023 
 ******************************************
 %chk=OdC1Cdc2ccncc2dCC2dCqSNdNC1rS2.chk
 %NProcShared=20
 Will use up to   20 processors via shared memory.
 -----------------------------
 # opt freq b3lyp/6-31g(2df,p)
 -----------------------------
 1/18=20,19=15,26=3,38=1/1,3;
 2/9=110,12=2,17=6,18=5,40=1/2;
 3/5=1,6=6,7=104,11=2,25=1,30=1,71=1,74=-5/1,2,3;
 4//1;
 5/5=2,38=5/2;
 6/7=2,8=2,9=2,10=2,28=1/1;
 7//1,2,3,16;
 1/18=20,19=15,26=3/3(2);
 2/9=110/2;
 99//99;
 2/9=110/2;
 3/5=1,6=6,7=104,11=2,25=1,30=1,71=1,74=-5/1,2,3;
 4/5=5,16=3,69=1/1;
 5/5=2,38=5/2;
 7//1,2,3,16;
 1/18=20,19=15,26=3/3(-5);
 2/9=110/2;
 6/7=2,8=2,9=2,10=2,19=2,28=1/1;
 99/9=1/99;
 -------------------
 Title Card Required
 -------------------
 Symbolic Z-matrix:
 Charge =  0 Multiplicity = 1
 O                     0.95674   1.11769  -1.10848 
 C                     2.08801   0.68209  -1.06271 
 C                     2.98861   1.30301   0.22758 
 C                     4.20815   1.05101   0.76645 
 C                     4.95575   1.79917   1.80405 
 C                     6.30197   1.85811   1.69513 
 N                     7.04036   1.13621   0.77146 
 C                     6.3957    0.21043   0.10389 
 C                     4.89799  -0.07804   0.23496 
 C                     4.17024  -1.18355  -0.08259 
 C                     2.75704  -1.55281   0.3678 
 C                     1.46231  -1.80674   0.10447 
 S                     0.15841  -1.9495   -0.94139 
 N                     0.7752   -2.08395  -2.49279 
 N                     1.37608  -1.08419  -2.97203 
 C                     2.55223  -0.57705  -2.17909 
 S                     1.65122  -1.12103   1.64084 
 H                     2.35318   1.90402   0.89462 
 H                     4.47132   2.28812   2.64442 
 H                     6.89915   2.4875    2.36923 
 H                     6.9954   -0.45347  -0.5387 
 H                     4.6402   -1.65563  -0.95514 
 H                     3.33824  -0.23797  -2.84268 
 H                     2.92475  -1.55386  -1.84144 
 

 GradGradGradGradGradGradGradGradGradGradGradGradGradGradGradGradGradGrad
 Berny optimization.
 Initialization pass.
                           ----------------------------
                           !    Initial Parameters    !
                           ! (Angstroms and Degrees)  !
 --------------------------                            --------------------------
 ! Name  Definition              Value          Derivative Info.                !
 --------------------------------------------------------------------------------
 ! R1    R(1,2)                  1.2131         estimate D2E/DX2                !
 ! R2    R(2,3)                  1.6916         estimate D2E/DX2                !
 ! R3    R(2,16)                 1.7456         estimate D2E/DX2                !
 ! R4    R(3,4)                  1.3569         estimate D2E/DX2                !
 ! R5    R(3,18)                 1.1            estimate D2E/DX2                !
 ! R6    R(4,5)                  1.4816         estimate D2E/DX2                !
 ! R7    R(4,9)                  1.4259         estimate D2E/DX2                !
 ! R8    R(5,6)                  1.3519         estimate D2E/DX2                !
 ! R9    R(5,19)                 1.0863         estimate D2E/DX2                !
 ! R10   R(6,7)                  1.3855         estimate D2E/DX2                !
 ! R11   R(6,20)                 1.0987         estimate D2E/DX2                !
 ! R12   R(7,8)                  1.3108         estimate D2E/DX2                !
 ! R13   R(8,9)                  1.5309         estimate D2E/DX2                !
 ! R14   R(8,21)                 1.1015         estimate D2E/DX2                !
 ! R15   R(9,10)                 1.3611         estimate D2E/DX2                !
 ! R16   R(10,11)                1.5285         estimate D2E/DX2                !
 ! R17   R(10,22)                1.0978         estimate D2E/DX2                !
 ! R18   R(11,12)                1.3454         estimate D2E/DX2                !
 ! R19   R(11,17)                1.7407         estimate D2E/DX2                !
 ! R20   R(12,13)                1.6776         estimate D2E/DX2                !
 ! R21   R(12,17)                1.693          estimate D2E/DX2                !
 ! R22   R(13,14)                1.6749         estimate D2E/DX2                !
 ! R23   R(14,15)                1.2611         estimate D2E/DX2                !
 ! R24   R(15,16)                1.5064         estimate D2E/DX2                !
 ! R25   R(16,23)                1.0831         estimate D2E/DX2                !
 ! R26   R(16,24)                1.0986         estimate D2E/DX2                !
 ! A1    A(1,2,3)              113.1699         estimate D2E/DX2                !
 ! A2    A(1,2,16)             118.8731         estimate D2E/DX2                !
 ! A3    A(3,2,16)             127.6615         estimate D2E/DX2                !
 ! A4    A(2,3,4)              135.5006         estimate D2E/DX2                !
 ! A5    A(2,3,18)             110.8277         estimate D2E/DX2                !
 ! A6    A(4,3,18)             112.3243         estimate D2E/DX2                !
 ! A7    A(3,4,5)              129.6306         estimate D2E/DX2                !
 ! A8    A(3,4,9)              115.7124         estimate D2E/DX2                !
 ! A9    A(5,4,9)              114.6302         estimate D2E/DX2                !
 ! A10   A(4,5,6)              117.9076         estimate D2E/DX2                !
 ! A11   A(4,5,19)             122.9597         estimate D2E/DX2                !
 ! A12   A(6,5,19)             119.1299         estimate D2E/DX2                !
 ! A13   A(5,6,7)              124.174          estimate D2E/DX2                !
 ! A14   A(5,6,20)             121.1169         estimate D2E/DX2                !
 ! A15   A(7,6,20)             114.6984         estimate D2E/DX2                !
 ! A16   A(6,7,8)              116.4496         estimate D2E/DX2                !
 ! A17   A(7,8,9)              124.7936         estimate D2E/DX2                !
 ! A18   A(7,8,21)             117.0658         estimate D2E/DX2                !
 ! A19   A(9,8,21)             117.9706         estimate D2E/DX2                !
 ! A20   A(4,9,8)              110.8566         estimate D2E/DX2                !
 ! A21   A(4,9,10)             118.1266         estimate D2E/DX2                !
 ! A22   A(8,9,10)             131.0087         estimate D2E/DX2                !
 ! A23   A(9,10,11)            128.4485         estimate D2E/DX2                !
 ! A24   A(9,10,22)            107.8079         estimate D2E/DX2                !
 ! A25   A(11,10,22)           121.7446         estimate D2E/DX2                !
 ! A26   A(10,11,12)           151.3605         estimate D2E/DX2                !
 ! A27   A(10,11,17)           137.9822         estimate D2E/DX2                !
 ! A28   A(11,12,13)           152.3794         estimate D2E/DX2                !
 ! A29   A(13,12,17)           133.3878         estimate D2E/DX2                !
 ! A30   A(12,13,14)           107.3412         estimate D2E/DX2                !
 ! A31   A(13,14,15)           117.6349         estimate D2E/DX2                !
 ! A32   A(14,15,16)           116.0328         estimate D2E/DX2                !
 ! A33   A(2,16,15)            111.8288         estimate D2E/DX2                !
 ! A34   A(2,16,23)            111.0382         estimate D2E/DX2                !
 ! A35   A(2,16,24)            122.3411         estimate D2E/DX2                !
 ! A36   A(15,16,23)           110.4563         estimate D2E/DX2                !
 ! A37   A(15,16,24)            97.3073         estimate D2E/DX2                !
 ! A38   A(23,16,24)           102.7432         estimate D2E/DX2                !
 ! D1    D(1,2,3,4)            172.7231         estimate D2E/DX2                !
 ! D2    D(1,2,3,18)             7.4931         estimate D2E/DX2                !
 ! D3    D(16,2,3,4)            -0.8951         estimate D2E/DX2                !
 ! D4    D(16,2,3,18)         -166.1251         estimate D2E/DX2                !
 ! D5    D(1,2,16,15)           -7.1297         estimate D2E/DX2                !
 ! D6    D(1,2,16,23)          116.7494         estimate D2E/DX2                !
 ! D7    D(1,2,16,24)         -121.699          estimate D2E/DX2                !
 ! D8    D(3,2,16,15)          166.169          estimate D2E/DX2                !
 ! D9    D(3,2,16,23)          -69.952          estimate D2E/DX2                !
 ! D10   D(3,2,16,24)           51.5996         estimate D2E/DX2                !
 ! D11   D(2,3,4,5)            171.0304         estimate D2E/DX2                !
 ! D12   D(2,3,4,9)             -6.9611         estimate D2E/DX2                !
 ! D13   D(18,3,4,5)           -23.8966         estimate D2E/DX2                !
 ! D14   D(18,3,4,9)           158.1119         estimate D2E/DX2                !
 ! D15   D(3,4,5,6)           -144.8309         estimate D2E/DX2                !
 ! D16   D(3,4,5,19)            35.79           estimate D2E/DX2                !
 ! D17   D(9,4,5,6)             33.1785         estimate D2E/DX2                !
 ! D18   D(9,4,5,19)          -146.2007         estimate D2E/DX2                !
 ! D19   D(3,4,9,8)            141.1661         estimate D2E/DX2                !
 ! D20   D(3,4,9,10)           -37.9121         estimate D2E/DX2                !
 ! D21   D(5,4,9,8)            -37.1324         estimate D2E/DX2                !
 ! D22   D(5,4,9,10)           143.7894         estimate D2E/DX2                !
 ! D23   D(4,5,6,7)             -8.0143         estimate D2E/DX2                !
 ! D24   D(4,5,6,20)           173.2403         estimate D2E/DX2                !
 ! D25   D(19,5,6,7)           171.3893         estimate D2E/DX2                !
 ! D26   D(19,5,6,20)           -7.356          estimate D2E/DX2                !
 ! D27   D(5,6,7,8)             -9.9136         estimate D2E/DX2                !
 ! D28   D(20,6,7,8)           168.9041         estimate D2E/DX2                !
 ! D29   D(6,7,8,9)              2.6463         estimate D2E/DX2                !
 ! D30   D(6,7,8,21)          -172.5041         estimate D2E/DX2                !
 ! D31   D(7,8,9,4)             21.4425         estimate D2E/DX2                !
 ! D32   D(7,8,9,10)          -159.6348         estimate D2E/DX2                !
 ! D33   D(21,8,9,4)          -163.4472         estimate D2E/DX2                !
 ! D34   D(21,8,9,10)           15.4754         estimate D2E/DX2                !
 ! D35   D(4,9,10,11)          -17.426          estimate D2E/DX2                !
 ! D36   D(4,9,10,22)          146.4469         estimate D2E/DX2                !
 ! D37   D(8,9,10,11)          163.7155         estimate D2E/DX2                !
 ! D38   D(8,9,10,22)          -32.4116         estimate D2E/DX2                !
 ! D39   D(9,10,11,12)         116.5453         estimate D2E/DX2                !
 ! D40   D(9,10,11,17)         -19.4205         estimate D2E/DX2                !
 ! D41   D(22,10,11,12)        -45.3362         estimate D2E/DX2                !
 ! D42   D(22,10,11,17)        178.6979         estimate D2E/DX2                !
 ! D43   D(10,11,12,13)         -1.1085         estimate D2E/DX2                !
 ! D44   D(11,12,13,14)         17.5124         estimate D2E/DX2                !
 ! D45   D(17,12,13,14)        154.714          estimate D2E/DX2                !
 ! D46   D(12,13,14,15)        -66.3566         estimate D2E/DX2                !
 ! D47   D(13,14,15,16)         57.2499         estimate D2E/DX2                !
 ! D48   D(14,15,16,2)         -92.6733         estimate D2E/DX2                !
 ! D49   D(14,15,16,23)        143.1214         estimate D2E/DX2                !
 ! D50   D(14,15,16,24)         36.5513         estimate D2E/DX2                !
 --------------------------------------------------------------------------------
 Trust Radius=3.00D-01 FncErr=1.00D-07 GrdErr=1.00D-06 EigMax=2.50D+02 EigMin=1.00D-04
 Number of steps in this run=    124 maximum allowed number of steps=    144.
 GradGradGradGradGradGradGradGradGradGradGradGradGradGradGradGradGradGrad

                          Input orientation:                          
 ---------------------------------------------------------------------
 Center     Atomic      Atomic             Coordinates (Angstroms)
 Number     Number       Type             X           Y           Z
 ---------------------------------------------------------------------
      1          8           0        0.956740    1.117690   -1.108480
      2          6           0        2.088010    0.682090   -1.062710
      3          6           0        2.988610    1.303010    0.227580
      4          6           0        4.208150    1.051010    0.766450
      5          6           0        4.955750    1.799170    1.804050
      6          6           0        6.301970    1.858110    1.695130
      7          7           0        7.040360    1.136210    0.771460
      8          6           0        6.395700    0.210430    0.103890
      9          6           0        4.897990   -0.078040    0.234960
     10          6           0        4.170240   -1.183550   -0.082590
     11          6           0        2.757040   -1.552810    0.367800
     12          6           0        1.462310   -1.806740    0.104470
     13         16           0        0.158410   -1.949500   -0.941390
     14          7           0        0.775200   -2.083950   -2.492790
     15          7           0        1.376080   -1.084190   -2.972030
     16          6           0        2.552230   -0.577050   -2.179090
     17         16           0        1.651220   -1.121030    1.640840
     18          1           0        2.353180    1.904020    0.894620
     19          1           0        4.471320    2.288120    2.644420
     20          1           0        6.899150    2.487500    2.369230
     21          1           0        6.995400   -0.453470   -0.538700
     22          1           0        4.640200   -1.655630   -0.955140
     23          1           0        3.338240   -0.237970   -2.842680
     24          1           0        2.924750   -1.553860   -1.841440
 ---------------------------------------------------------------------
                    Distance matrix (angstroms):
                    1          2          3          4          5
     1  O    0.000000
     2  C    1.213101   0.000000
     3  C    2.438831   1.691588   0.000000
     4  C    3.753861   2.824345   1.356895   0.000000
     5  C    4.993929   4.205962   2.569255   1.481642   0.000000
     6  C    6.081113   5.171669   3.666087   2.428567   1.351905
     7  N    6.367492   5.300583   4.091492   2.833496   2.418958
     8  C    5.645817   4.487718   3.580125   2.435351   2.736438
     9  C    4.332211   3.187120   2.356499   1.425873   2.447304
    10  C    4.083471   2.962588   2.770458   2.390725   3.615668
    11  C    3.542888   2.736556   2.868622   3.007411   4.258275
    12  C    3.206110   2.819235   3.466308   4.018033   5.300498
    13  S    3.173784   3.265477   4.467140   5.321670   6.678655
    14  N    3.492817   3.379286   4.875561   5.677655   7.142720
    15  N    2.914951   2.696682   4.305401   5.153245   6.628631
    16  C    2.562018   1.745634   3.084982   3.750847   5.223862
    17  S    3.612884   3.278904   3.108357   3.467017   4.412950
    18  H    2.565301   2.322621   1.099967   2.045719   2.758881
    19  H    5.273181   4.690662   3.001664   2.264171   1.086263
    20  H    7.020191   6.179384   4.613242   3.445851   2.137763
    21  H    6.265669   5.064243   4.441483   3.425732   3.837061
    22  H    4.613317   3.462684   3.588889   3.236733   4.432645
    23  H    3.242963   2.361753   3.453021   3.929890   5.325258
    24  H    3.398157   2.511180   3.527978   3.903019   5.353258
                    6          7          8          9         10
     6  C    0.000000
     7  N    1.385469   0.000000
     8  C    2.292527   1.310841   0.000000
     9  C    2.802130   2.520314   1.530859   0.000000
    10  C    4.117798   3.787912   2.632608   1.361106   0.000000
    11  C    5.095362   5.073520   4.051976   2.603125   1.528509
    12  C    6.275638   6.341961   5.329851   3.848289   2.785003
    13  S    7.693664   7.734125   6.682941   5.229702   4.173607
    14  N    7.976446   7.763826   6.602798   5.334950   4.259822
    15  N    7.396209   7.143386   6.027762   4.868364   4.020705
    16  C    5.916091   5.637758   4.539205   3.402828   2.716820
    17  S    5.523377   5.907096   5.161888   3.688610   3.052799
    18  H    4.029375   4.751248   4.453703   3.292381   3.713453
    19  H    2.106499   3.381544   3.804514   3.403859   4.424898
    20  H    1.098711   2.097330   3.251196   3.891240   5.189892
    21  H    3.288502   2.060491   1.101510   2.266854   2.953402
    22  H    4.704443   4.066483   2.772274   1.992883   1.097755
    23  H    5.811107   5.353137   4.269824   3.454022   3.033882
    24  H    5.962758   5.567941   4.352531   3.222291   2.186762
                   11         12         13         14         15
    11  C    0.000000
    12  C    1.345418   0.000000
    13  S    2.936702   1.677605   0.000000
    14  N    3.520337   2.700875   1.674918   0.000000
    15  N    3.644327   3.161387   2.520909   1.261050   0.000000
    16  C    2.735087   2.813309   3.024218   2.350955   1.506411
    17  S    1.740662   1.693020   3.095603   4.333765   4.621215
    18  H    3.519988   3.897143   4.799746   5.465206   4.983483
    19  H    4.782729   5.680965   7.029698   7.692024   7.245516
    20  H    6.122655   7.288955   8.722657   9.057602   8.472917
    21  H    4.471464   5.732372   7.010328   6.720701   6.155945
    22  H    2.303700   3.353296   4.491435   4.181633   3.879287
    23  H    3.517638   3.829601   4.081122   3.177930   2.140769
    24  H    2.215597   2.447293   2.935857   2.307773   1.974133
                   16         17         18         19         20
    16  C    0.000000
    17  S    3.962272   0.000000
    18  H    3.955126   3.193825   0.000000
    19  H    5.929448   4.536787   2.774139   0.000000
    20  H    6.998171   6.410367   4.814641   2.451498   0.000000
    21  H    4.737923   5.810016   5.400220   4.900974   4.136983
    22  H    2.649718   3.994861   4.617703   5.342145   5.772332
    23  H    1.083115   4.871117   4.418809   6.145996   6.875483
    24  H    1.098607   3.733028   4.446308   6.105377   7.061033
                   21         22         23         24
    21  H    0.000000
    22  H    2.676860   0.000000
    23  H    4.327769   2.695861   0.000000
    24  H    4.413409   1.933560   1.704413   0.000000
 Stoichiometry    C11H7N3OS2
 Framework group  C1[X(C11H7N3OS2)]
 Deg. of freedom    66
 Full point group                 C1      NOp   1
 Largest Abelian subgroup         C1      NOp   1
 Largest concise Abelian subgroup C1      NOp   1
                         Standard orientation:                         
 ---------------------------------------------------------------------
 Center     Atomic      Atomic             Coordinates (Angstroms)
 Number     Number       Type             X           Y           Z
 ---------------------------------------------------------------------
      1          8           0        1.357371   -0.219294    2.207986
      2          6           0        0.597928   -0.591478    1.338309
      3          6           0       -0.897182    0.198837    1.377293
      4          6           0       -1.995178    0.232459    0.580777
      5          6           0       -3.322862    0.842362    0.826816
      6          6           0       -4.410775    0.211277    0.331010
      7          7           0       -4.356571   -0.877768   -0.523723
      8          6           0       -3.178436   -1.176632   -1.014623
      9          6           0       -1.876736   -0.450688   -0.665176
     10          6           0       -0.687038   -0.383881   -1.323025
     11          6           0        0.458215    0.607369   -1.117701
     12          6           0        1.728879    0.889578   -0.777231
     13         16           0        3.257632    0.449859   -0.244390
     14          7           0        3.399918   -1.206565   -0.447775
     15          7           0        2.662863   -1.947923    0.257481
     16          6           0        1.179702   -1.714422    0.135074
     17         16           0        0.696165    2.180157   -0.410863
     18          1           0       -0.886510    1.020049    2.109019
     19          1           0       -3.454231    1.770931    1.374965
     20          1           0       -5.425953    0.554360    0.573649
     21          1           0       -3.142270   -1.957247   -1.790933
     22          1           0       -0.538745   -1.337433   -1.846296
     23          1           0        0.642976   -2.653707    0.188065
     24          1           0        1.162452   -1.485739   -0.939329
 ---------------------------------------------------------------------
 Rotational constants (GHZ):           0.8813371           0.2743398           0.2571127
 Standard basis: 6-31G(2df,p) (6D, 7F)
 There are   570 symmetry adapted cartesian basis functions of A   symmetry.
 There are   519 symmetry adapted basis functions of A   symmetry.
   519 basis functions,   845 primitive gaussians,   570 cartesian basis functions
    67 alpha electrons       67 beta electrons
       nuclear repulsion energy      1392.8704802399 Hartrees.
 NAtoms=   24 NActive=   24 NUniq=   24 SFac= 1.00D+00 NAtFMM=   60 NAOKFM=F Big=F
 Integral buffers will be    131072 words long.
 Raffenetti 2 integral format.
 Two-electron integral symmetry is turned on.
 One-electron integrals computed using PRISM.
 PrsmSu:  requested number of processors reduced to:  12 ShMem   1 Linda.
 NBasis=   519 RedAO= T EigKep=  2.02D-04  NBF=   519
 NBsUse=   519 1.00D-06 EigRej= -1.00D+00 NBFU=   519
 ExpMin= 1.17D-01 ExpMax= 2.19D+04 ExpMxC= 3.30D+03 IAcc=3 IRadAn=         5 AccDes= 0.00D+00
 Harris functional with IExCor=  402 and IRadAn=       5 diagonalized for initial guess.
 HarFok:  IExCor=  402 AccDes= 0.00D+00 IRadAn=         5 IDoV= 1 UseB2=F ITyADJ=14
 ICtDFT=  3500011 ScaDFX=  1.000000  1.000000  1.000000  1.000000
 FoFCou: FMM=F IPFlag=           0 FMFlag=      100000 FMFlg1=           0
         NFxFlg=           0 DoJE=T BraDBF=F KetDBF=T FulRan=T
         wScrn=  0.000000 ICntrl=       500 IOpCl=  0 I1Cent=   200000004 NGrid=           0
         NMat0=    1 NMatS0=      1 NMatT0=    0 NMatD0=    1 NMtDS0=    0 NMtDT0=    0
 Petite list used in FoFCou.
 Requested convergence on RMS density matrix=1.00D-08 within 128 cycles.
 Requested convergence on MAX density matrix=1.00D-06.
 Requested convergence on             energy=1.00D-06.
 No special actions if energy rises.
 Integral accuracy reduced to 1.0D-05 until final iterations.
 EnCoef did     7 forward-backward iterations
 EnCoef did   100 forward-backward iterations
 EnCoef did     2 forward-backward iterations
 Initial convergence to 1.0D-05 achieved.  Increase integral accuracy.
 SCF Done:  E(RB3LYP) =  -1458.89682894     A.U. after   21 cycles
            NFock= 21  Conv=0.73D-08     -V/T= 2.0052

 **********************************************************************

            Population analysis using the SCF density.

 **********************************************************************

 Orbital symmetries:
       Occupied  (A) (A) (A) (A) (A) (A) (A) (A) (A) (A) (A) (A)
                 (A) (A) (A) (A) (A) (A) (A) (A) (A) (A) (A) (A)
                 (A) (A) (A) (A) (A) (A) (A) (A) (A) (A) (A) (A)
                 (A) (A) (A) (A) (A) (A) (A) (A) (A) (A) (A) (A)
                 (A) (A) (A) (A) (A) (A) (A) (A) (A) (A) (A) (A)
                 (A) (A) (A) (A) (A) (A) (A)
       Virtual   (A) (A) (A) (A) (A) (A) (A) (A) (A) (A) (A) (A)
                 (A) (A) (A) (A) (A) (A) (A) (A) (A) (A) (A) (A)
                 (A) (A) (A) (A) (A) (A) (A) (A) (A) (A) (A) (A)
                 (A) (A) (A) (A) (A) (A) (A) (A) (A) (A) (A) (A)
                 (A) (A) (A) (A) (A) (A) (A) (A) (A) (A) (A) (A)
                 (A) (A) (A) (A) (A) (A) (A) (A) (A) (A) (A) (A)
                 (A) (A) (A) (A) (A) (A) (A) (A) (A) (A) (A) (A)
                 (A) (A) (A) (A) (A) (A) (A) (A) (A) (A) (A) (A)
                 (A) (A) (A) (A) (A) (A) (A) (A) (A) (A) (A) (A)
                 (A) (A) (A) (A) (A) (A) (A) (A) (A) (A) (A) (A)
                 (A) (A) (A) (A) (A) (A) (A) (A) (A) (A) (A) (A)
                 (A) (A) (A) (A) (A) (A) (A) (A) (A) (A) (A) (A)
                 (A) (A) (A) (A) (A) (A) (A) (A) (A) (A) (A) (A)
                 (A) (A) (A) (A) (A) (A) (A) (A) (A) (A) (A) (A)
                 (A) (A) (A) (A) (A) (A) (A) (A) (A) (A) (A) (A)
                 (A) (A) (A) (A) (A) (A) (A) (A) (A) (A) (A) (A)
                 (A) (A) (A) (A) (A) (A) (A) (A) (A) (A) (A) (A)
                 (A) (A) (A) (A) (A) (A) (A) (A) (A) (A) (A) (A)
                 (A) (A) (A) (A) (A) (A) (A) (A) (A) (A) (A) (A)
                 (A) (A) (A) (A) (A) (A) (A) (A) (A) (A) (A) (A)
                 (A) (A) (A) (A) (A) (A) (A) (A) (A) (A) (A) (A)
                 (A) (A) (A) (A) (A) (A) (A) (A) (A) (A) (A) (A)
                 (A) (A) (A) (A) (A) (A) (A) (A) (A) (A) (A) (A)
                 (A) (A) (A) (A) (A) (A) (A) (A) (A) (A) (A) (A)
                 (A) (A) (A) (A) (A) (A) (A) (A) (A) (A) (A) (A)
                 (A) (A) (A) (A) (A) (A) (A) (A) (A) (A) (A) (A)
                 (A) (A) (A) (A) (A) (A) (A) (A) (A) (A) (A) (A)
                 (A) (A) (A) (A) (A) (A) (A) (A) (A) (A) (A) (A)
                 (A) (A) (A) (A) (A) (A) (A) (A) (A) (A) (A) (A)
                 (A) (A) (A) (A) (A) (A) (A) (A) (A) (A) (A) (A)
                 (A) (A) (A) (A) (A) (A) (A) (A) (A) (A) (A) (A)
                 (A) (A) (A) (A) (A) (A) (A) (A) (A) (A) (A) (A)
                 (A) (A) (A) (A) (A) (A) (A) (A) (A) (A) (A) (A)
                 (A) (A) (A) (A) (A) (A) (A) (A) (A) (A) (A) (A)
                 (A) (A) (A) (A) (A) (A) (A) (A) (A) (A) (A) (A)
                 (A) (A) (A) (A) (A) (A) (A) (A) (A) (A) (A) (A)
                 (A) (A) (A) (A) (A) (A) (A) (A) (A) (A) (A) (A)
                 (A) (A) (A) (A) (A) (A) (A) (A)
 The electronic state is 1-A.
 Alpha  occ. eigenvalues --  -88.95918 -88.91266 -19.17354 -14.43184 -14.42568
 Alpha  occ. eigenvalues --  -14.33993 -10.32923 -10.28338 -10.27012 -10.26385
 Alpha  occ. eigenvalues --  -10.24948 -10.24859 -10.22583 -10.22479 -10.22383
 Alpha  occ. eigenvalues --  -10.22329 -10.20723  -8.01897  -7.97516  -5.98495
 Alpha  occ. eigenvalues --   -5.97950  -5.97453  -5.93936  -5.93760  -5.92991
 Alpha  occ. eigenvalues --   -1.07682  -1.06591  -0.94797  -0.94362  -0.85948
 Alpha  occ. eigenvalues --   -0.84352  -0.79077  -0.77224  -0.74069  -0.70239
 Alpha  occ. eigenvalues --   -0.64918  -0.63880  -0.61630  -0.60188  -0.56465
 Alpha  occ. eigenvalues --   -0.55369  -0.52522  -0.51812  -0.50325  -0.50058
 Alpha  occ. eigenvalues --   -0.47817  -0.47197  -0.45221  -0.44244  -0.43597
 Alpha  occ. eigenvalues --   -0.42430  -0.42263  -0.41015  -0.39670  -0.39147
 Alpha  occ. eigenvalues --   -0.38935  -0.38780  -0.36369  -0.34430  -0.31226
 Alpha  occ. eigenvalues --   -0.30860  -0.28781  -0.28035  -0.26141  -0.24910
 Alpha  occ. eigenvalues --   -0.23410  -0.19731
 Alpha virt. eigenvalues --   -0.13227  -0.11116  -0.05667  -0.04497  -0.02179
 Alpha virt. eigenvalues --   -0.00300   0.00831   0.02368   0.04685   0.06044
 Alpha virt. eigenvalues --    0.07361   0.08910   0.09694   0.11217   0.12444
 Alpha virt. eigenvalues --    0.12780   0.14000   0.14615   0.15672   0.16380
 Alpha virt. eigenvalues --    0.16860   0.19543   0.20305   0.21793   0.23710
 Alpha virt. eigenvalues --    0.25136   0.25748   0.27116   0.27776   0.29013
 Alpha virt. eigenvalues --    0.29945   0.30332   0.31717   0.32480   0.33663
 Alpha virt. eigenvalues --    0.34436   0.35399   0.35542   0.37317   0.38220
 Alpha virt. eigenvalues --    0.39187   0.40463   0.41782   0.42700   0.42835
 Alpha virt. eigenvalues --    0.43921   0.44575   0.45261   0.45473   0.47110
 Alpha virt. eigenvalues --    0.47500   0.48457   0.50380   0.51055   0.51682
 Alpha virt. eigenvalues --    0.53197   0.53505   0.54390   0.54999   0.56208
 Alpha virt. eigenvalues --    0.56517   0.57067   0.57405   0.58455   0.59165
 Alpha virt. eigenvalues --    0.60221   0.60894   0.61435   0.61981   0.63116
 Alpha virt. eigenvalues --    0.65122   0.65312   0.66774   0.67935   0.68429
 Alpha virt. eigenvalues --    0.69701   0.70180   0.70807   0.72084   0.72509
 Alpha virt. eigenvalues --    0.73608   0.73735   0.74291   0.74360   0.75608
 Alpha virt. eigenvalues --    0.76328   0.76491   0.76967   0.78020   0.78441
 Alpha virt. eigenvalues --    0.80020   0.80689   0.81245   0.82953   0.83220
 Alpha virt. eigenvalues --    0.83525   0.84991   0.85954   0.87008   0.87755
 Alpha virt. eigenvalues --    0.88221   0.89637   0.91766   0.91816   0.93176
 Alpha virt. eigenvalues --    0.94422   0.95278   0.95564   0.96638   0.97617
 Alpha virt. eigenvalues --    0.99389   1.00892   1.01379   1.02056   1.03042
 Alpha virt. eigenvalues --    1.03461   1.04758   1.05085   1.06841   1.09247
 Alpha virt. eigenvalues --    1.09534   1.10774   1.13519   1.14514   1.16079
 Alpha virt. eigenvalues --    1.16744   1.17648   1.18313   1.19583   1.22137
 Alpha virt. eigenvalues --    1.22649   1.24421   1.25499   1.26632   1.27389
 Alpha virt. eigenvalues --    1.28502   1.29286   1.31240   1.31640   1.32644
 Alpha virt. eigenvalues --    1.33636   1.34504   1.35978   1.37774   1.38118
 Alpha virt. eigenvalues --    1.39105   1.40374   1.42143   1.44052   1.44903
 Alpha virt. eigenvalues --    1.45458   1.47373   1.48026   1.50205   1.51302
 Alpha virt. eigenvalues --    1.52359   1.52637   1.53732   1.56236   1.56718
 Alpha virt. eigenvalues --    1.58146   1.59101   1.59882   1.61559   1.61847
 Alpha virt. eigenvalues --    1.62931   1.63211   1.65172   1.65985   1.66449
 Alpha virt. eigenvalues --    1.67017   1.68743   1.69254   1.71671   1.73813
 Alpha virt. eigenvalues --    1.74297   1.75656   1.75939   1.77117   1.79038
 Alpha virt. eigenvalues --    1.80478   1.82496   1.83648   1.84659   1.86259
 Alpha virt. eigenvalues --    1.86777   1.87913   1.89222   1.89831   1.91457
 Alpha virt. eigenvalues --    1.92554   1.94243   1.94844   1.96033   1.99687
 Alpha virt. eigenvalues --    2.01010   2.03445   2.04941   2.05569   2.07351
 Alpha virt. eigenvalues --    2.11317   2.12198   2.12888   2.16566   2.17652
 Alpha virt. eigenvalues --    2.18429   2.20896   2.21332   2.22965   2.23451
 Alpha virt. eigenvalues --    2.24379   2.26846   2.27461   2.29565   2.30538
 Alpha virt. eigenvalues --    2.31229   2.33063   2.35910   2.37358   2.40049
 Alpha virt. eigenvalues --    2.42288   2.42640   2.43505   2.45722   2.48470
 Alpha virt. eigenvalues --    2.48920   2.51685   2.55098   2.57056   2.57196
 Alpha virt. eigenvalues --    2.61215   2.64410   2.65932   2.68461   2.68919
 Alpha virt. eigenvalues --    2.71328   2.73998   2.75917   2.77432   2.79081
 Alpha virt. eigenvalues --    2.82018   2.82643   2.85725   2.86928   2.88330
 Alpha virt. eigenvalues --    2.89097   2.90453   2.91757   2.92665   2.93570
 Alpha virt. eigenvalues --    2.96629   2.98394   3.00080   3.00580   3.01608
 Alpha virt. eigenvalues --    3.01949   3.05428   3.06197   3.06612   3.07157
 Alpha virt. eigenvalues --    3.09790   3.10859   3.12513   3.14775   3.16110
 Alpha virt. eigenvalues --    3.16401   3.16851   3.20013   3.21186   3.22690
 Alpha virt. eigenvalues --    3.23426   3.24875   3.25388   3.25646   3.26859
 Alpha virt. eigenvalues --    3.27716   3.30103   3.31610   3.32962   3.33107
 Alpha virt. eigenvalues --    3.34160   3.35524   3.36484   3.37149   3.37969
 Alpha virt. eigenvalues --    3.40738   3.41551   3.42847   3.44167   3.45975
 Alpha virt. eigenvalues --    3.48657   3.49373   3.50846   3.51553   3.53962
 Alpha virt. eigenvalues --    3.55232   3.57070   3.59234   3.60361   3.62144
 Alpha virt. eigenvalues --    3.64027   3.65101   3.66707   3.67490   3.68709
 Alpha virt. eigenvalues --    3.71344   3.74531   3.75341   3.76272   3.78820
 Alpha virt. eigenvalues --    3.80205   3.82030   3.83886   3.84778   3.85972
 Alpha virt. eigenvalues --    3.87512   3.90055   3.90606   3.90924   3.95333
 Alpha virt. eigenvalues --    3.96463   3.96915   3.97812   4.02656   4.04733
 Alpha virt. eigenvalues --    4.05300   4.08206   4.08960   4.09271   4.11035
 Alpha virt. eigenvalues --    4.14236   4.15375   4.17091   4.17438   4.19943
 Alpha virt. eigenvalues --    4.19958   4.22138   4.22786   4.24653   4.25617
 Alpha virt. eigenvalues --    4.26588   4.27222   4.28200   4.30206   4.32983
 Alpha virt. eigenvalues --    4.34113   4.34916   4.36093   4.38410   4.40616
 Alpha virt. eigenvalues --    4.41081   4.42214   4.43747   4.43971   4.45172
 Alpha virt. eigenvalues --    4.46898   4.47278   4.49187   4.50308   4.51935
 Alpha virt. eigenvalues --    4.53233   4.54628   4.54871   4.55505   4.57427
 Alpha virt. eigenvalues --    4.58354   4.59923   4.60624   4.60911   4.61606
 Alpha virt. eigenvalues --    4.62313   4.63518   4.64916   4.66909   4.68518
 Alpha virt. eigenvalues --    4.69295   4.71354   4.73338   4.76232   4.77167
 Alpha virt. eigenvalues --    4.78057   4.80455   4.81414   4.82956   4.83708
 Alpha virt. eigenvalues --    4.84051   4.85884   4.88794   4.89314   4.91419
 Alpha virt. eigenvalues --    4.92299   4.94462   4.96913   4.98887   4.99441
 Alpha virt. eigenvalues --    5.03026   5.04484   5.05977   5.07644   5.10008
 Alpha virt. eigenvalues --    5.13180   5.15174   5.16698   5.17502   5.18648
 Alpha virt. eigenvalues --    5.21332   5.23352   5.26801   5.29226   5.33011
 Alpha virt. eigenvalues --    5.35755   5.40972   5.42390   5.43235   5.46475
 Alpha virt. eigenvalues --    5.47483   5.50145   5.53893   5.55607   5.59400
 Alpha virt. eigenvalues --    5.61064   5.67053   5.72257   5.74469   5.79261
 Alpha virt. eigenvalues --    5.84747   5.95107   6.03189   6.09601   6.15953
 Alpha virt. eigenvalues --    6.25386   6.38084   6.70311   6.87672   7.78002
 Alpha virt. eigenvalues --    9.96010  10.47164  10.75169  11.01329  11.06446
 Alpha virt. eigenvalues --   11.24418  11.29136  11.39139  11.50441  11.62489
 Alpha virt. eigenvalues --   11.86473  12.11121  12.22296  12.57653  13.06298
 Alpha virt. eigenvalues --   14.44568  16.28337
          Condensed to atoms (all electrons):
               1          2          3          4          5          6
     1  O    7.637945   0.676315  -0.044986   0.004724  -0.000024   0.000000
     2  C    0.676315   4.571979   0.328505  -0.007470   0.001862  -0.000011
     3  C   -0.044986   0.328505   5.402425   0.427909  -0.037331   0.001322
     4  C    0.004724  -0.007470   0.427909   4.644758   0.428258  -0.005654
     5  C   -0.000024   0.001862  -0.037331   0.428258   4.961648   0.609417
     6  C    0.000000  -0.000011   0.001322  -0.005654   0.609417   4.673315
     7  N    0.000000   0.000004  -0.000107  -0.053746  -0.001773   0.475992
     8  C   -0.000001   0.000161   0.003515  -0.027136  -0.033320  -0.095919
     9  C    0.000009  -0.011199  -0.032349   0.447230  -0.008849  -0.020941
    10  C   -0.000281  -0.005085  -0.013375  -0.046358   0.004837   0.000902
    11  C   -0.003049  -0.010012   0.002091  -0.016545   0.000564   0.000066
    12  C   -0.001883  -0.009285  -0.013983   0.001202   0.000016   0.000000
    13  S    0.009508   0.007055   0.001552  -0.000202   0.000001   0.000000
    14  N   -0.000151   0.004075  -0.000031  -0.000002  -0.000000   0.000000
    15  N    0.001816  -0.024343   0.000734  -0.000019   0.000000  -0.000000
    16  C   -0.047305   0.233078  -0.051747   0.004968  -0.000021  -0.000002
    17  S    0.001668   0.001201   0.016218  -0.002898   0.000252   0.000008
    18  H    0.003280  -0.026646   0.324142  -0.027348  -0.006821   0.000051
    19  H    0.000001  -0.000028  -0.004000  -0.043622   0.357455  -0.034763
    20  H   -0.000000   0.000001  -0.000093   0.001364  -0.052562   0.374607
    21  H   -0.000000  -0.000016  -0.000201   0.002162   0.001591   0.002729
    22  H   -0.000011  -0.001158   0.001363   0.006345  -0.000005  -0.000098
    23  H    0.000797  -0.019851   0.001540  -0.000087  -0.000001   0.000000
    24  H    0.000763  -0.005075   0.000425   0.000071  -0.000002  -0.000000
               7          8          9         10         11         12
     1  O    0.000000  -0.000001   0.000009  -0.000281  -0.003049  -0.001883
     2  C    0.000004   0.000161  -0.011199  -0.005085  -0.010012  -0.009285
     3  C   -0.000107   0.003515  -0.032349  -0.013375   0.002091  -0.013983
     4  C   -0.053746  -0.027136   0.447230  -0.046358  -0.016545   0.001202
     5  C   -0.001773  -0.033320  -0.008849   0.004837   0.000564   0.000016
     6  C    0.475992  -0.095919  -0.020941   0.000902   0.000066   0.000000
     7  N    6.273790   0.618675  -0.013131   0.004424  -0.000079   0.000000
     8  C    0.618675   4.838802   0.436613  -0.035293   0.002721  -0.000035
     9  C   -0.013131   0.436613   4.618010   0.486929  -0.026751   0.000958
    10  C    0.004424  -0.035293   0.486929   5.272412   0.451039  -0.046520
    11  C   -0.000079   0.002721  -0.026751   0.451039   4.918364   0.558449
    12  C    0.000000  -0.000035   0.000958  -0.046520   0.558449   4.832108
    13  S    0.000000   0.000001   0.000386  -0.003385  -0.072050   0.377943
    14  N   -0.000000   0.000000  -0.000012   0.000443  -0.002009  -0.019151
    15  N   -0.000000   0.000000   0.000079   0.000835   0.004096   0.002930
    16  C   -0.000000  -0.000104   0.000413  -0.010315  -0.018145   0.011959
    17  S    0.000014  -0.000078  -0.002615  -0.036288   0.166958   0.191454
    18  H   -0.000008  -0.000154   0.005001   0.001509  -0.002301  -0.000348
    19  H    0.005071   0.000192   0.003837  -0.000108  -0.000061   0.000002
    20  H   -0.031334   0.002855   0.000908   0.000014   0.000000  -0.000000
    21  H   -0.025212   0.350497  -0.057477  -0.002708  -0.000166   0.000002
    22  H    0.000036  -0.007130  -0.028973   0.342151  -0.046228  -0.002546
    23  H    0.000001   0.000034  -0.000862   0.001889   0.001784   0.000842
    24  H   -0.000000  -0.000071   0.000761  -0.008191  -0.016617  -0.005262
              13         14         15         16         17         18
     1  O    0.009508  -0.000151   0.001816  -0.047305   0.001668   0.003280
     2  C    0.007055   0.004075  -0.024343   0.233078   0.001201  -0.026646
     3  C    0.001552  -0.000031   0.000734  -0.051747   0.016218   0.324142
     4  C   -0.000202  -0.000002  -0.000019   0.004968  -0.002898  -0.027348
     5  C    0.000001  -0.000000   0.000000  -0.000021   0.000252  -0.006821
     6  C    0.000000   0.000000  -0.000000  -0.000002   0.000008   0.000051
     7  N    0.000000  -0.000000  -0.000000  -0.000000   0.000014  -0.000008
     8  C    0.000001   0.000000   0.000000  -0.000104  -0.000078  -0.000154
     9  C    0.000386  -0.000012   0.000079   0.000413  -0.002615   0.005001
    10  C   -0.003385   0.000443   0.000835  -0.010315  -0.036288   0.001509
    11  C   -0.072050  -0.002009   0.004096  -0.018145   0.166958  -0.002301
    12  C    0.377943  -0.019151   0.002930   0.011959   0.191454  -0.000348
    13  S   15.513461   0.276237  -0.135137  -0.017377  -0.040530   0.000166
    14  N    0.276237   6.400031   0.532558  -0.106254   0.001846   0.000002
    15  N   -0.135137   0.532558   6.431884   0.280222  -0.000697  -0.000016
    16  C   -0.017377  -0.106254   0.280222   5.268925   0.001920   0.002256
    17  S   -0.040530   0.001846  -0.000697   0.001920  15.850234   0.005107
    18  H    0.000166   0.000002  -0.000016   0.002256   0.005107   0.590229
    19  H   -0.000000  -0.000000  -0.000000   0.000001   0.000112   0.003181
    20  H    0.000000  -0.000000   0.000000  -0.000000   0.000000  -0.000008
    21  H    0.000000  -0.000000  -0.000000  -0.000009   0.000000   0.000005
    22  H   -0.000085  -0.000034   0.000079  -0.004139   0.002415   0.000005
    23  H   -0.000540   0.001937  -0.011549   0.358126  -0.000392  -0.000051
    24  H    0.007873  -0.006174  -0.034497   0.379657   0.001956  -0.000012
              19         20         21         22         23         24
     1  O    0.000001  -0.000000  -0.000000  -0.000011   0.000797   0.000763
     2  C   -0.000028   0.000001  -0.000016  -0.001158  -0.019851  -0.005075
     3  C   -0.004000  -0.000093  -0.000201   0.001363   0.001540   0.000425
     4  C   -0.043622   0.001364   0.002162   0.006345  -0.000087   0.000071
     5  C    0.357455  -0.052562   0.001591  -0.000005  -0.000001  -0.000002
     6  C   -0.034763   0.374607   0.002729  -0.000098   0.000000  -0.000000
     7  N    0.005071  -0.031334  -0.025212   0.000036   0.000001  -0.000000
     8  C    0.000192   0.002855   0.350497  -0.007130   0.000034  -0.000071
     9  C    0.003837   0.000908  -0.057477  -0.028973  -0.000862   0.000761
    10  C   -0.000108   0.000014  -0.002708   0.342151   0.001889  -0.008191
    11  C   -0.000061   0.000000  -0.000166  -0.046228   0.001784  -0.016617
    12  C    0.000002  -0.000000   0.000002  -0.002546   0.000842  -0.005262
    13  S   -0.000000   0.000000   0.000000  -0.000085  -0.000540   0.007873
    14  N   -0.000000  -0.000000  -0.000000  -0.000034   0.001937  -0.006174
    15  N   -0.000000   0.000000  -0.000000   0.000079  -0.011549  -0.034497
    16  C    0.000001  -0.000000  -0.000009  -0.004139   0.358126   0.379657
    17  S    0.000112   0.000000   0.000000   0.002415  -0.000392   0.001956
    18  H    0.003181  -0.000008   0.000005   0.000005  -0.000051  -0.000012
    19  H    0.602697  -0.004463   0.000037   0.000006  -0.000000   0.000000
    20  H   -0.004463   0.591586  -0.000285  -0.000001   0.000000  -0.000000
    21  H    0.000037  -0.000285   0.610762   0.004890   0.000001   0.000007
    22  H    0.000006  -0.000001   0.004890   0.604982   0.001250   0.001302
    23  H   -0.000000   0.000000   0.000001   0.001250   0.551625  -0.042693
    24  H    0.000000  -0.000000   0.000007   0.001302  -0.042693   0.543740
 Mulliken charges:
               1
     1  O   -0.239136
     2  C    0.295945
     3  C   -0.313538
     4  C    0.262093
     5  C   -0.225191
     6  C    0.018978
     7  N   -0.252619
     8  C   -0.054824
     9  C    0.202025
    10  C   -0.359477
    11  C    0.107881
    12  C    0.121147
    13  S    0.075123
    14  N   -0.083310
    15  N   -0.048976
    16  C   -0.286108
    17  S   -0.157867
    18  H    0.128779
    19  H    0.114452
    20  H    0.117410
    21  H    0.113391
    22  H    0.125582
    23  H    0.156200
    24  H    0.182039
 Sum of Mulliken charges =  -0.00000
 Mulliken charges with hydrogens summed into heavy atoms:
               1
     1  O   -0.239136
     2  C    0.295945
     3  C   -0.184759
     4  C    0.262093
     5  C   -0.110739
     6  C    0.136387
     7  N   -0.252619
     8  C    0.058567
     9  C    0.202025
    10  C   -0.233894
    11  C    0.107881
    12  C    0.121147
    13  S    0.075123
    14  N   -0.083310
    15  N   -0.048976
    16  C    0.052131
    17  S   -0.157867
 Electronic spatial extent (au):  <R**2>=           4324.2443
 Charge=              0.0000 electrons
 Dipole moment (field-independent basis, Debye):
    X=             -0.5623    Y=              0.1235    Z=             -1.0870  Tot=              1.2300
 Quadrupole moment (field-independent basis, Debye-Ang):
   XX=           -122.3849   YY=           -108.7306   ZZ=           -113.1822
   XY=             -1.2848   XZ=             -5.4474   YZ=              4.9491
 Traceless Quadrupole moment (field-independent basis, Debye-Ang):
   XX=             -7.6190   YY=              6.0353   ZZ=              1.5837
   XY=             -1.2848   XZ=             -5.4474   YZ=              4.9491
 Octapole moment (field-independent basis, Debye-Ang**2):
  XXX=             36.2650  YYY=             -1.7976  ZZZ=             -3.3207  XYY=             -5.3805
  XXY=             55.5391  XXZ=             23.3371  XZZ=             -2.9683  YZZ=             -6.3748
  YYZ=              5.2039  XYZ=             -3.4912
 Hexadecapole moment (field-independent basis, Debye-Ang**3):
 XXXX=          -4407.7432 YYYY=           -993.2568 ZZZZ=           -707.0256 XXXY=            -98.7104
 XXXZ=            -75.3070 YYYX=             19.8787 YYYZ=             28.4748 ZZZX=             -0.4089
 ZZZY=             17.7150 XXYY=           -909.8458 XXZZ=           -825.6695 YYZZ=           -269.7934
 XXYZ=             15.8835 YYXZ=              2.9027 ZZXY=             -6.0529
 N-N= 1.392870480240D+03 E-N=-6.218118153576D+03  KE= 1.451344074708D+03
 PrsmSu:  requested number of processors reduced to:  13 ShMem   1 Linda.
 Calling FoFJK, ICntrl=      2127 FMM=F ISym2X=0 I1Cent= 0 IOpClX= 0 NMat=1 NMatS=1 NMatT=0.
 ***** Axes restored to original set *****
 -------------------------------------------------------------------
 Center     Atomic                   Forces (Hartrees/Bohr)
 Number     Number              X              Y              Z
 -------------------------------------------------------------------
      1        8           0.032142895   -0.014914389   -0.009917142
      2        6           0.010498478    0.004030742    0.027320735
      3        6          -0.039682820   -0.004705503   -0.002067044
      4        6           0.005019760   -0.002567114    0.011633141
      5        6          -0.013651651    0.001386770   -0.008151877
      6        6           0.003731158   -0.000892217    0.006677583
      7        7          -0.015849708   -0.014826803   -0.014557574
      8        6          -0.015831269   -0.018340541    0.000448201
      9        6           0.045990443    0.025386311    0.011691298
     10        6          -0.032688451   -0.021238433   -0.011773406
     11        6           0.056876858   -0.001685339   -0.039178491
     12        6           0.034617896   -0.008041194   -0.016333557
     13       16          -0.004304804   -0.036134794    0.035974048
     14        7          -0.034841878    0.056349773   -0.046417181
     15        7           0.045946468   -0.039787214   -0.018022767
     16        6          -0.027809965    0.024191323    0.015494212
     17       16          -0.016632867    0.029570488    0.075333658
     18        1          -0.004960401    0.006224150   -0.020683677
     19        1          -0.004657342    0.005556456   -0.006961746
     20        1          -0.005106974   -0.006224046   -0.003824972
     21        1          -0.003652601    0.004895012    0.003065784
     22        1          -0.008504366   -0.022810048    0.012772560
     23        1          -0.005354049    0.014351135   -0.010365577
     24        1          -0.001294810    0.020225473    0.007843790
 -------------------------------------------------------------------
 Cartesian Forces:  Max     0.075333658 RMS     0.023667518

 GradGradGradGradGradGradGradGradGradGradGradGradGradGradGradGradGradGrad
 Berny optimization.
 FormGI is forming the generalized inverse of G from B-inverse, IUseBI=4.
 Internal  Forces:  Max     0.062080488 RMS     0.018818972
 Search for a local minimum.
 Step number   1 out of a maximum of  124
 All quantities printed in internal units (Hartrees-Bohrs-Radians)
 Mixed Optimization -- RFO/linear search
 Second derivative matrix not updated -- first step.
 ITU=  0
     Eigenvalues ---    0.00243   0.00350   0.00764   0.00948   0.01071
     Eigenvalues ---    0.01217   0.01372   0.01522   0.01572   0.01726
     Eigenvalues ---    0.01915   0.01974   0.02288   0.02407   0.02463
     Eigenvalues ---    0.02549   0.02842   0.03137   0.05830   0.06371
     Eigenvalues ---    0.07215   0.12012   0.13070   0.15633   0.15703
     Eigenvalues ---    0.15892   0.15967   0.15998   0.15999   0.17216
     Eigenvalues ---    0.17834   0.18542   0.19453   0.21251   0.22437
     Eigenvalues ---    0.22797   0.23135   0.23524   0.23909   0.24803
     Eigenvalues ---    0.24908   0.24999   0.28648   0.29349   0.30251
     Eigenvalues ---    0.31361   0.33450   0.33516   0.33686   0.33825
     Eigenvalues ---    0.33837   0.33932   0.35248   0.35335   0.35621
     Eigenvalues ---    0.38056   0.38738   0.39617   0.46534   0.51074
     Eigenvalues ---    0.52576   0.52930   0.54106   0.62059   0.78054
     Eigenvalues ---    0.98506
 RFO step:  Lambda=-1.31664105D-01 EMin= 2.42911784D-03
 Linear search not attempted -- first point.
 Maximum step size (   0.300) exceeded in Quadratic search.
    -- Step size scaled by   0.625
 Iteration  1 RMS(Cart)=  0.12597765 RMS(Int)=  0.00426397
 Iteration  2 RMS(Cart)=  0.00532590 RMS(Int)=  0.00121921
 Iteration  3 RMS(Cart)=  0.00003213 RMS(Int)=  0.00121915
 Iteration  4 RMS(Cart)=  0.00000013 RMS(Int)=  0.00121915
 Variable       Old X    -DE/DX   Delta X   Delta X   Delta X     New X
                                 (Linear)    (Quad)   (Total)
    R1        2.29243  -0.03496   0.00000  -0.01955  -0.01955   2.27287
    R2        3.19664  -0.04504   0.00000  -0.09462  -0.09547   3.10117
    R3        3.29877  -0.03885   0.00000  -0.09377  -0.09498   3.20379
    R4        2.56416   0.02040   0.00000   0.01984   0.01982   2.58397
    R5        2.07864  -0.00628   0.00000  -0.00837  -0.00837   2.07027
    R6        2.79990  -0.02493   0.00000  -0.03032  -0.02992   2.76997
    R7        2.69451   0.03199   0.00000   0.04431   0.04556   2.74007
    R8        2.55473   0.00193   0.00000   0.00133   0.00102   2.55575
    R9        2.05274  -0.00081   0.00000  -0.00104  -0.00104   2.05170
   R10        2.61816   0.00943   0.00000   0.00719   0.00660   2.62475
   R11        2.07626  -0.00869   0.00000  -0.01155  -0.01155   2.06471
   R12        2.47713  -0.02045   0.00000  -0.01823  -0.01842   2.45871
   R13        2.89290  -0.04234   0.00000  -0.06204  -0.06170   2.83121
   R14        2.08155  -0.00673   0.00000  -0.00900  -0.00900   2.07255
   R15        2.57212   0.01144   0.00000   0.01095   0.01155   2.58367
   R16        2.88846  -0.06208   0.00000  -0.09730  -0.09773   2.79074
   R17        2.07446  -0.00398   0.00000  -0.00529  -0.00529   2.06917
   R18        2.54247  -0.02912   0.00000  -0.02851  -0.02912   2.51335
   R19        3.28937   0.04092   0.00000   0.05173   0.05146   3.34084
   R20        3.17021   0.02441   0.00000   0.03064   0.03110   3.20131
   R21        3.19934   0.04728   0.00000   0.06490   0.06570   3.26504
   R22        3.16514   0.04835   0.00000   0.06549   0.06652   3.23166
   R23        2.38304  -0.00134   0.00000   0.00122   0.00124   2.38428
   R24        2.84670  -0.00676   0.00000  -0.01031  -0.01084   2.83586
   R25        2.04679   0.00696   0.00000   0.00891   0.00891   2.05570
   R26        2.07607  -0.01601   0.00000  -0.02128  -0.02128   2.05479
    A1        1.97519   0.00888   0.00000   0.01581   0.01614   1.99133
    A2        2.07473  -0.01124   0.00000  -0.01808  -0.01769   2.05704
    A3        2.22811   0.00278   0.00000   0.00354   0.00265   2.23077
    A4        2.36493  -0.00676   0.00000   0.00255   0.00297   2.36790
    A5        1.93431  -0.00953   0.00000  -0.02963  -0.03039   1.90392
    A6        1.96043   0.01818   0.00000   0.03436   0.03395   1.99438
    A7        2.26248  -0.02220   0.00000  -0.05276  -0.05413   2.20835
    A8        2.01956   0.02746   0.00000   0.06369   0.06519   2.08476
    A9        2.00067  -0.00540   0.00000  -0.01138  -0.01160   1.98907
   A10        2.05788  -0.01178   0.00000  -0.01347  -0.01256   2.04532
   A11        2.14605   0.00101   0.00000  -0.00375  -0.00423   2.14182
   A12        2.07921   0.01080   0.00000   0.01731   0.01683   2.09604
   A13        2.16725   0.00365   0.00000   0.00678   0.00659   2.17383
   A14        2.11389  -0.00245   0.00000  -0.00474  -0.00466   2.10922
   A15        2.00186  -0.00116   0.00000  -0.00186  -0.00179   2.00007
   A16        2.03243   0.00882   0.00000   0.01099   0.01071   2.04314
   A17        2.17806  -0.01174   0.00000  -0.01884  -0.01813   2.15993
   A18        2.04318   0.00547   0.00000   0.00855   0.00823   2.05141
   A19        2.05898   0.00612   0.00000   0.00987   0.00951   2.06849
   A20        1.93481   0.01455   0.00000   0.02387   0.02335   1.95816
   A21        2.06170   0.00784   0.00000   0.02871   0.03091   2.09261
   A22        2.28653  -0.02240   0.00000  -0.05254  -0.05423   2.23230
   A23        2.24185  -0.02022   0.00000  -0.02478  -0.02290   2.21895
   A24        1.88160   0.02689   0.00000   0.05356   0.05274   1.93434
   A25        2.12484  -0.00521   0.00000  -0.02237  -0.02381   2.10103
   A26        2.64174  -0.02393   0.00000  -0.04093  -0.04310   2.59864
   A27        2.40824   0.00933   0.00000   0.02129   0.02294   2.43118
   A28        2.65952   0.00337   0.00000   0.00439   0.00195   2.66147
   A29        2.32806  -0.01491   0.00000  -0.02439  -0.02223   2.30583
   A30        1.87346   0.03171   0.00000   0.09044   0.09075   1.96421
   A31        2.05312   0.02459   0.00000   0.08358   0.08320   2.13632
   A32        2.02516  -0.00835   0.00000   0.01021   0.00523   2.03038
   A33        1.95178   0.00929   0.00000   0.01880   0.01873   1.97051
   A34        1.93798  -0.00339   0.00000  -0.00683  -0.00641   1.93157
   A35        2.13526  -0.01654   0.00000  -0.04059  -0.04110   2.09416
   A36        1.92783  -0.00137   0.00000  -0.00194  -0.00104   1.92679
   A37        1.69833   0.00198   0.00000   0.00655   0.00596   1.70429
   A38        1.79321   0.01092   0.00000   0.02660   0.02644   1.81965
    D1        3.01459  -0.00681   0.00000  -0.02765  -0.02884   2.98575
    D2        0.13078  -0.01956   0.00000  -0.07055  -0.07003   0.06075
    D3       -0.01562  -0.01076   0.00000  -0.04028  -0.04058  -0.05620
    D4       -2.89943  -0.02351   0.00000  -0.08319  -0.08177  -2.98120
    D5       -0.12444  -0.01306   0.00000  -0.05067  -0.05195  -0.17638
    D6        2.03766  -0.01056   0.00000  -0.04450  -0.04431   1.99335
    D7       -2.12405  -0.01191   0.00000  -0.04669  -0.04623  -2.17028
    D8        2.90020  -0.00774   0.00000  -0.03543  -0.03788   2.86231
    D9       -1.22089  -0.00524   0.00000  -0.02926  -0.03025  -1.25114
   D10        0.90058  -0.00659   0.00000  -0.03145  -0.03217   0.86841
   D11        2.98504  -0.02120   0.00000  -0.05761  -0.05566   2.92938
   D12       -0.12149  -0.01566   0.00000  -0.04096  -0.03944  -0.16093
   D13       -0.41707  -0.01127   0.00000  -0.02100  -0.01980  -0.43688
   D14        2.75957  -0.00573   0.00000  -0.00434  -0.00358   2.75600
   D15       -2.52778  -0.00070   0.00000  -0.00004  -0.00155  -2.52932
   D16        0.62465  -0.00299   0.00000  -0.00954  -0.01056   0.61410
   D17        0.57907  -0.00564   0.00000  -0.01530  -0.01567   0.56341
   D18       -2.55168  -0.00793   0.00000  -0.02480  -0.02468  -2.57636
   D19        2.46381  -0.01337   0.00000  -0.02628  -0.02545   2.43836
   D20       -0.66169  -0.01269   0.00000  -0.02747  -0.02638  -0.68807
   D21       -0.64808  -0.00821   0.00000  -0.01103  -0.01006  -0.65814
   D22        2.50960  -0.00753   0.00000  -0.01221  -0.01099   2.49861
   D23       -0.13988   0.00088   0.00000   0.01122   0.01091  -0.12897
   D24        3.02361  -0.00083   0.00000   0.00082   0.00094   3.02455
   D25        2.99131   0.00303   0.00000   0.02021   0.01954   3.01085
   D26       -0.12839   0.00132   0.00000   0.00982   0.00957  -0.11882
   D27       -0.17303  -0.00460   0.00000  -0.01249  -0.01225  -0.18528
   D28        2.94793  -0.00301   0.00000  -0.00274  -0.00288   2.94505
   D29        0.04619  -0.00077   0.00000  -0.00259  -0.00252   0.04367
   D30       -3.01077   0.00107   0.00000   0.00277   0.00230  -3.00846
   D31        0.37424   0.00348   0.00000   0.01016   0.00959   0.38383
   D32       -2.78615   0.00314   0.00000   0.01270   0.01174  -2.77441
   D33       -2.85269   0.00159   0.00000   0.00468   0.00465  -2.84804
   D34        0.27010   0.00124   0.00000   0.00721   0.00680   0.27690
   D35       -0.30414  -0.01680   0.00000  -0.03802  -0.03626  -0.34040
   D36        2.55598  -0.01038   0.00000  -0.01398  -0.01291   2.54307
   D37        2.85737  -0.01646   0.00000  -0.04058  -0.03840   2.81898
   D38       -0.56569  -0.01004   0.00000  -0.01654  -0.01504  -0.58073
   D39        2.03410  -0.01185   0.00000  -0.04686  -0.04786   1.98624
   D40       -0.33895  -0.01410   0.00000  -0.05202  -0.05155  -0.39051
   D41       -0.79127  -0.02300   0.00000  -0.08422  -0.08389  -0.87515
   D42        3.11887  -0.02524   0.00000  -0.08938  -0.08758   3.03129
   D43       -0.01935  -0.02403   0.00000  -0.06481  -0.06455  -0.08390
   D44        0.30565  -0.02748   0.00000  -0.07391  -0.07163   0.23402
   D45        2.70027  -0.03691   0.00000  -0.11909  -0.11772   2.58255
   D46       -1.15814   0.01655   0.00000   0.07605   0.08141  -1.07673
   D47        0.99920  -0.05457   0.00000  -0.14791  -0.14479   0.85441
   D48       -1.61745   0.00903   0.00000   0.03349   0.03475  -1.58271
   D49        2.49794   0.00772   0.00000   0.03019   0.03019   2.52813
   D50        0.63794  -0.00475   0.00000  -0.00125  -0.00113   0.63681
         Item               Value     Threshold  Converged?
 Maximum Force            0.062080     0.000450     NO 
 RMS     Force            0.018819     0.000300     NO 
 Maximum Displacement     0.382461     0.001800     NO 
 RMS     Displacement     0.128782     0.001200     NO 
 Predicted change in Energy=-6.941059D-02
 GradGradGradGradGradGradGradGradGradGradGradGradGradGradGradGradGradGrad

                          Input orientation:                          
 ---------------------------------------------------------------------
 Center     Atomic      Atomic             Coordinates (Angstroms)
 Number     Number       Type             X           Y           Z
 ---------------------------------------------------------------------
      1          8           0        0.957344    1.196435   -1.137591
      2          6           0        2.079257    0.765413   -1.091266
      3          6           0        2.959917    1.324364    0.175665
      4          6           0        4.175725    1.029552    0.727594
      5          6           0        4.895616    1.823603    1.727508
      6          6           0        6.244995    1.850480    1.640548
      7          7           0        6.994005    1.069020    0.770196
      8          6           0        6.369163    0.114252    0.145024
      9          6           0        4.898853   -0.142747    0.274545
     10          6           0        4.221328   -1.299088    0.004139
     11          6           0        2.872229   -1.672765    0.474475
     12          6           0        1.599523   -1.935028    0.190995
     13         16           0        0.289123   -2.040853   -0.877414
     14          7           0        0.771037   -1.958006   -2.516134
     15          7           0        1.351913   -0.947776   -2.999787
     16          6           0        2.521123   -0.416889   -2.223173
     17         16           0        1.748877   -1.271456    1.779267
     18          1           0        2.324264    1.961304    0.800529
     19          1           0        4.389759    2.373933    2.514918
     20          1           0        6.834951    2.507152    2.284372
     21          1           0        6.973329   -0.586622   -0.443714
     22          1           0        4.686267   -1.837167   -0.828470
     23          1           0        3.283503   -0.035581   -2.899009
     24          1           0        2.916149   -1.371960   -1.885359
 ---------------------------------------------------------------------
                    Distance matrix (angstroms):
                    1          2          3          4          5
     1  O    0.000000
     2  C    1.202754   0.000000
     3  C    2.398188   1.641067   0.000000
     4  C    3.723539   2.788045   1.367380   0.000000
     5  C    4.910410   4.122758   2.530690   1.465807   0.000000
     6  C    6.008751   5.098387   3.635164   2.406094   1.352445
     7  N    6.332232   5.264215   4.085650   2.818878   2.426743
     8  C    5.666040   4.511731   3.617771   2.447107   2.756352
     9  C    4.395797   3.261950   2.433447   1.449983   2.444922
    10  C    4.264361   3.170259   2.916004   2.438859   3.629858
    11  C    3.807604   3.004173   3.013263   3.010928   4.229513
    12  C    3.461733   3.027659   3.531931   3.964024   5.229953
    13  S    3.315757   3.335482   4.423437   5.206641   6.552818
    14  N    3.447549   3.340464   4.776079   5.571281   7.022907
    15  N    2.867246   2.665801   4.222770   5.077116   6.525772
    16  C    2.495338   1.695375   2.996485   3.679256   5.125028
    17  S    3.901932   3.535243   3.282748   3.505744   4.414072
    18  H    2.491947   2.251460   1.095538   2.073980   2.736806
    19  H    5.148669   4.574967   2.935669   2.246709   1.085711
    20  H    6.926331   6.086477   4.567441   3.417359   2.130341
    21  H    6.312910   5.118521   4.488092   3.436650   3.852309
    22  H    4.816966   3.693099   3.739498   3.301524   4.469686
    23  H    3.167250   2.315110   3.377540   3.883660   5.240242
    24  H    3.315528   2.428854   3.394097   3.765808   5.213706
                    6          7          8          9         10
     6  C    0.000000
     7  N    1.388960   0.000000
     8  C    2.294885   1.301095   0.000000
     9  C    2.766047   2.470569   1.498211   0.000000
    10  C    4.085688   3.725925   2.574990   1.367218   0.000000
    11  C    5.014831   4.959221   3.940877   2.547181   1.476794
    12  C    6.165362   6.201630   5.191447   3.755640   2.704292
    13  S    7.546855   7.572409   6.531213   5.116584   4.097510
    14  N    7.857912   7.660821   6.535673   5.303011   4.323245
    15  N    7.301041   7.079084   6.015857   4.893885   4.168996
    16  C    5.825506   5.583445   4.549492   3.459386   2.937667
    17  S    5.475473   5.831588   5.092934   3.668858   3.043823
    18  H    4.011240   4.754322   4.494719   3.366333   3.855288
    19  H    2.116702   3.395432   3.826303   3.407657   4.452355
    20  H    1.092600   2.094338   3.243414   3.848355   5.149558
    21  H    3.288477   2.053084   1.096746   2.239725   2.877792
    22  H    4.703661   4.040706   2.754608   2.032952   1.094958
    23  H    5.738922   5.333950   4.337036   3.562623   3.302155
    24  H    5.822144   5.444195   4.272539   3.179193   2.297608
                   11         12         13         14         15
    11  C    0.000000
    12  C    1.330009   0.000000
    13  S    2.938627   1.694062   0.000000
    14  N    3.666076   2.831159   1.710119   0.000000
    15  N    3.861019   3.349189   2.613199   1.261707   0.000000
    16  C    2.996299   2.997049   3.070855   2.350249   1.500674
    17  S    1.767894   1.727786   3.127429   4.458474   4.806424
    18  H    3.689584   4.009761   4.793177   5.364117   4.883709
    19  H    4.779337   5.634996   6.914728   7.561238   7.118583
    20  H    6.037433   7.178084   8.574911   8.930484   8.361971
    21  H    4.340714   5.576633   6.854305   6.681619   6.185811
    22  H    2.239515   3.252210   4.402131   4.265189   4.077199
    23  H    3.772256   3.998977   4.132103   3.186660   2.138527
    24  H    2.379334   2.522260   2.892168   2.311457   1.966905
                   16         17         18         19         20
    16  C    0.000000
    17  S    4.164874   0.000000
    18  H    3.851925   3.426329   0.000000
    19  H    5.807753   4.561172   2.715817   0.000000
    20  H    6.890362   6.356189   4.779753   2.459647   0.000000
    21  H    4.797647   5.718875   5.445537   4.918660   4.127110
    22  H    2.941128   3.968448   4.760365   5.385120   5.760185
    23  H    1.087830   5.076291   4.312107   6.028280   6.778326
    24  H    1.087347   3.847351   4.321454   5.963697   6.913116
                   21         22         23         24
    21  H    0.000000
    22  H    2.634872   0.000000
    23  H    4.466199   3.082303   0.000000
    24  H    4.376734   2.113469   1.717075   0.000000
 Stoichiometry    C11H7N3OS2
 Framework group  C1[X(C11H7N3OS2)]
 Deg. of freedom    66
 Full point group                 C1      NOp   1
 Largest Abelian subgroup         C1      NOp   1
 Largest concise Abelian subgroup C1      NOp   1
                         Standard orientation:                         
 ---------------------------------------------------------------------
 Center     Atomic      Atomic             Coordinates (Angstroms)
 Number     Number       Type             X           Y           Z
 ---------------------------------------------------------------------
      1          8           0        1.354545   -0.948578    2.128073
      2          6           0        0.601591   -1.040813    1.194708
      3          6           0       -0.844877   -0.300722    1.425129
      4          6           0       -1.927159   -0.003864    0.643931
      5          6           0       -3.239463    0.454542    1.109023
      6          6           0       -4.322530    0.029528    0.419503
      7          7           0       -4.268340   -0.682485   -0.771845
      8          6           0       -3.109491   -0.770254   -1.356836
      9          6           0       -1.845714   -0.198502   -0.790619
     10          6           0       -0.694249    0.116975   -1.456870
     11          6           0        0.388930    1.007139   -0.992922
     12          6           0        1.651924    1.156658   -0.603803
     13         16           0        3.180943    0.550555   -0.198108
     14          7           0        3.381075   -1.084458   -0.657659
     15          7           0        2.660944   -2.010379   -0.192918
     16          6           0        1.178654   -1.777654   -0.218926
     17         16           0        0.636218    2.335486    0.147163
     18          1           0       -0.835939    0.209217    2.394709
     19          1           0       -3.362418    1.108848    1.966656
     20          1           0       -5.332981    0.243873    0.775621
     21          1           0       -3.079296   -1.217907   -2.357610
     22          1           0       -0.525626   -0.572262   -2.290808
     23          1           0        0.651720   -2.710284   -0.408441
     24          1           0        1.132161   -1.246456   -1.166550
 ---------------------------------------------------------------------
 Rotational constants (GHZ):           0.8050301           0.2807574           0.2611991
 Standard basis: 6-31G(2df,p) (6D, 7F)
 There are   570 symmetry adapted cartesian basis functions of A   symmetry.
 There are   519 symmetry adapted basis functions of A   symmetry.
   519 basis functions,   845 primitive gaussians,   570 cartesian basis functions
    67 alpha electrons       67 beta electrons
       nuclear repulsion energy      1382.7888428885 Hartrees.
 NAtoms=   24 NActive=   24 NUniq=   24 SFac= 1.00D+00 NAtFMM=   60 NAOKFM=F Big=F
 Integral buffers will be    131072 words long.
 Raffenetti 2 integral format.
 Two-electron integral symmetry is turned on.
 One-electron integrals computed using PRISM.
 PrsmSu:  requested number of processors reduced to:  12 ShMem   1 Linda.
 NBasis=   519 RedAO= T EigKep=  1.99D-04  NBF=   519
 NBsUse=   519 1.00D-06 EigRej= -1.00D+00 NBFU=   519
 Initial guess from the checkpoint file:  "OdC1Cdc2ccncc2dCC2dCqSNdNC1rS2.chk"
 B after Tr=     0.000000   -0.000000   -0.000000
         Rot=    0.990003   -0.140982   -0.001967   -0.003804 Ang= -16.22 deg.
 ExpMin= 1.17D-01 ExpMax= 2.19D+04 ExpMxC= 3.30D+03 IAcc=2 IRadAn=         4 AccDes= 0.00D+00
 Harris functional with IExCor=  402 and IRadAn=       4 diagonalized for initial guess.
 HarFok:  IExCor=  402 AccDes= 0.00D+00 IRadAn=         4 IDoV= 1 UseB2=F ITyADJ=14
 ICtDFT=  3500011 ScaDFX=  1.000000  1.000000  1.000000  1.000000
 FoFCou: FMM=F IPFlag=           0 FMFlag=      100000 FMFlg1=           0
         NFxFlg=           0 DoJE=T BraDBF=F KetDBF=T FulRan=T
         wScrn=  0.000000 ICntrl=       500 IOpCl=  0 I1Cent=   200000004 NGrid=           0
         NMat0=    1 NMatS0=      1 NMatT0=    0 NMatD0=    1 NMtDS0=    0 NMtDT0=    0
 Petite list used in FoFCou.
 Requested convergence on RMS density matrix=1.00D-08 within 128 cycles.
 Requested convergence on MAX density matrix=1.00D-06.
 Requested convergence on             energy=1.00D-06.
 No special actions if energy rises.
 Integral accuracy reduced to 1.0D-05 until final iterations.
 Initial convergence to 1.0D-05 achieved.  Increase integral accuracy.
 SCF Done:  E(RB3LYP) =  -1458.96273700     A.U. after   15 cycles
            NFock= 15  Conv=0.69D-08     -V/T= 2.0053
 PrsmSu:  requested number of processors reduced to:  13 ShMem   1 Linda.
 Calling FoFJK, ICntrl=      2127 FMM=F ISym2X=0 I1Cent= 0 IOpClX= 0 NMat=1 NMatS=1 NMatT=0.
 ***** Axes restored to original set *****
 -------------------------------------------------------------------
 Center     Atomic                   Forces (Hartrees/Bohr)
 Number     Number              X              Y              Z
 -------------------------------------------------------------------
      1        8           0.008320690   -0.003012556   -0.009702231
      2        6           0.022384419   -0.011407923    0.029023623
      3        6          -0.026605958   -0.013718066   -0.008736909
      4        6          -0.000756521   -0.009448664    0.004827933
      5        6          -0.008113524   -0.000309659   -0.005038890
      6        6           0.005036231   -0.002136458    0.004098821
      7        7          -0.007094560   -0.004387514   -0.005423024
      8        6          -0.016865453   -0.014869246    0.000867694
      9        6           0.028193445    0.025638832    0.003964244
     10        6          -0.025335842   -0.010137356   -0.011266746
     11        6           0.041680580    0.002567749   -0.036624670
     12        6           0.017349054   -0.004995183   -0.013537856
     13       16           0.005791608   -0.029921350    0.021310904
     14        7          -0.026579598    0.057790257   -0.037503261
     15        7           0.027508721   -0.039721932   -0.000964656
     16        6          -0.019047540    0.020126710    0.017801524
     17       16          -0.013090207    0.020952756    0.051067553
     18        1          -0.000686161    0.006943113   -0.015405892
     19        1          -0.003070297    0.005448675   -0.006597283
     20        1          -0.002591268   -0.003827361   -0.001740951
     21        1          -0.002031603    0.002734543    0.001214829
     22        1          -0.004431605   -0.018035676    0.011869250
     23        1          -0.006186853    0.010294250   -0.006889670
     24        1           0.006222243    0.013432059    0.013385666
 -------------------------------------------------------------------
 Cartesian Forces:  Max     0.057790257 RMS     0.018395753

 GradGradGradGradGradGradGradGradGradGradGradGradGradGradGradGradGradGrad
 Berny optimization.
 Using GEDIIS/GDIIS optimizer.
 FormGI is forming the generalized inverse of G from B-inverse, IUseBI=4.
 Internal  Forces:  Max     0.046856371 RMS     0.012493914
 Search for a local minimum.
 Step number   2 out of a maximum of  124
 All quantities printed in internal units (Hartrees-Bohrs-Radians)
 Mixed Optimization -- RFO/linear search
 Update second derivatives using D2CorX and points    1    2
 DE= -6.59D-02 DEPred=-6.94D-02 R= 9.50D-01
 TightC=F SS=  1.41D+00  RLast= 4.46D-01 DXNew= 5.0454D-01 1.3378D+00
 Trust test= 9.50D-01 RLast= 4.46D-01 DXMaxT set to 5.05D-01
 ITU=  1  0
 Use linear search instead of GDIIS.
 Linear search step of   0.536 exceeds DXMaxT=   0.505 but not scaled.
 Quartic linear search produced a step of  1.77217.
 Iteration  1 RMS(Cart)=  0.21625128 RMS(Int)=  0.01261670
 Iteration  2 RMS(Cart)=  0.01718682 RMS(Int)=  0.00590420
 Iteration  3 RMS(Cart)=  0.00043022 RMS(Int)=  0.00590239
 Iteration  4 RMS(Cart)=  0.00000801 RMS(Int)=  0.00590239
 Iteration  5 RMS(Cart)=  0.00000021 RMS(Int)=  0.00590239
 Variable       Old X    -DE/DX   Delta X   Delta X   Delta X     New X
                                 (Linear)    (Quad)   (Total)
    R1        2.27287  -0.00847  -0.03465   0.00000  -0.03465   2.23822
    R2        3.10117  -0.04686  -0.16919   0.00000  -0.17338   2.92779
    R3        3.20379  -0.03891  -0.16831   0.00000  -0.17450   3.02930
    R4        2.58397   0.00363   0.03512   0.00000   0.03514   2.61911
    R5        2.07027  -0.00435  -0.01483   0.00000  -0.01483   2.05543
    R6        2.76997  -0.01338  -0.05303   0.00000  -0.05125   2.71872
    R7        2.74007   0.01245   0.08074   0.00000   0.08612   2.82619
    R8        2.55575   0.00271   0.00181   0.00000   0.00057   2.55632
    R9        2.05170  -0.00059  -0.00185   0.00000  -0.00185   2.04985
   R10        2.62475   0.00252   0.01169   0.00000   0.00917   2.63392
   R11        2.06471  -0.00473  -0.02047   0.00000  -0.02047   2.04425
   R12        2.45871  -0.00743  -0.03264   0.00000  -0.03342   2.42530
   R13        2.83121  -0.02857  -0.10934   0.00000  -0.10780   2.72341
   R14        2.07255  -0.00352  -0.01595   0.00000  -0.01595   2.05660
   R15        2.58367   0.00779   0.02047   0.00000   0.02317   2.60684
   R16        2.79074  -0.04460  -0.17319   0.00000  -0.17573   2.61501
   R17        2.06917  -0.00204  -0.00937   0.00000  -0.00937   2.05980
   R18        2.51335  -0.01873  -0.05160   0.00000  -0.05448   2.45887
   R19        3.34084   0.02982   0.09120   0.00000   0.08924   3.43008
   R20        3.20131   0.00870   0.05511   0.00000   0.05748   3.25879
   R21        3.26504   0.03094   0.11643   0.00000   0.12085   3.38589
   R22        3.23166   0.02748   0.11789   0.00000   0.12250   3.35416
   R23        2.38428  -0.02137   0.00220   0.00000   0.00262   2.38690
   R24        2.83586  -0.00140  -0.01921   0.00000  -0.02181   2.81405
   R25        2.05570   0.00355   0.01579   0.00000   0.01579   2.07149
   R26        2.05479  -0.00538  -0.03771   0.00000  -0.03771   2.01708
    A1        1.99133   0.01425   0.02860   0.00000   0.03039   2.02171
    A2        2.05704  -0.00230  -0.03134   0.00000  -0.02940   2.02764
    A3        2.23077  -0.01151   0.00470   0.00000   0.00031   2.23108
    A4        2.36790  -0.01044   0.00526   0.00000   0.00586   2.37376
    A5        1.90392  -0.00360  -0.05386   0.00000  -0.05647   1.84745
    A6        1.99438   0.01515   0.06017   0.00000   0.05891   2.05329
    A7        2.20835  -0.01305  -0.09592   0.00000  -0.10075   2.10760
    A8        2.08476   0.01508   0.11553   0.00000   0.12107   2.20582
    A9        1.98907  -0.00220  -0.02056   0.00000  -0.02157   1.96750
   A10        2.04532  -0.00497  -0.02225   0.00000  -0.01819   2.02713
   A11        2.14182  -0.00085  -0.00749   0.00000  -0.00963   2.13219
   A12        2.09604   0.00583   0.02983   0.00000   0.02776   2.12380
   A13        2.17383   0.00058   0.01168   0.00000   0.01097   2.18480
   A14        2.10922  -0.00044  -0.00827   0.00000  -0.00801   2.10122
   A15        2.00007  -0.00014  -0.00318   0.00000  -0.00291   1.99716
   A16        2.04314   0.00356   0.01898   0.00000   0.01780   2.06094
   A17        2.15993  -0.00478  -0.03214   0.00000  -0.02919   2.13073
   A18        2.05141   0.00237   0.01458   0.00000   0.01331   2.06472
   A19        2.06849   0.00243   0.01686   0.00000   0.01535   2.08384
   A20        1.95816   0.00947   0.04138   0.00000   0.03937   1.99753
   A21        2.09261   0.00642   0.05477   0.00000   0.06255   2.15516
   A22        2.23230  -0.01587  -0.09611   0.00000  -0.10190   2.13040
   A23        2.21895  -0.01126  -0.04058   0.00000  -0.03552   2.18343
   A24        1.93434   0.02034   0.09347   0.00000   0.09156   2.02590
[...]
 Iteration  5 RMS(Cart)=  0.00000002 RMS(Int)=  0.00139498
 Variable       Old X    -DE/DX   Delta X   Delta X   Delta X     New X
                                 (Linear)    (Quad)   (Total)
    R1        2.26698  -0.00139   0.00008   0.00031   0.00039   2.26737
    R2        2.97955  -0.00941  -0.00035  -0.03184  -0.03277   2.94679
    R3        2.91764  -0.00036  -0.00042  -0.00287  -0.00361   2.91403
    R4        2.87816   0.00024  -0.00027  -0.00664  -0.00729   2.87087
    R5        2.06453  -0.00034  -0.00002  -0.00013  -0.00015   2.06438
    R6        2.64804  -0.00207   0.00022  -0.00029  -0.00002   2.64802
    R7        2.70846  -0.00954   0.00160  -0.00588  -0.00410   2.70437
    R8        2.62512  -0.00082  -0.00049  -0.00288  -0.00352   2.62160
    R9        2.05335  -0.00033  -0.00004  -0.00094  -0.00099   2.05237
   R10        2.52510   0.00042   0.00035   0.00075   0.00087   2.52597
   R11        2.05346  -0.00009  -0.00002  -0.00044  -0.00046   2.05300
   R12        2.51433  -0.00341  -0.00060  -0.00571  -0.00638   2.50795
   R13        2.66127  -0.00212   0.00041  -0.00152  -0.00097   2.66030
   R14        2.05399   0.00093   0.00003   0.00175   0.00178   2.05576
   R15        2.77967  -0.00401  -0.00066  -0.00261  -0.00296   2.77671
   R16        2.47537   0.00037   0.00515  -0.00855  -0.00302   2.47235
   R17        2.04600   0.00104   0.00008   0.00177   0.00185   2.04785
   R18        2.45292   0.00688   0.00250   0.01292   0.01634   2.46925
   R19        4.39428   0.00200  -0.01091  -0.01815  -0.02637   4.36791
   R20        3.34373  -0.00713  -0.00371  -0.02365  -0.02672   3.31702
   R21        3.45651   0.00099   0.00249  -0.00288  -0.00414   3.45237
   R22        3.64187  -0.00803   0.01593  -0.01525   0.00099   3.64286
   R23        2.28037  -0.00821  -0.00129  -0.00535  -0.00689   2.27348
   R24        2.76351   0.00420   0.00107   0.01369   0.01413   2.77764
   R25        2.07146  -0.00075  -0.00015  -0.00172  -0.00187   2.06959
   R26        2.05586   0.00134   0.00037   0.00257   0.00293   2.05879
    A1        2.09490  -0.00047  -0.00026   0.00268   0.00244   2.09734
    A2        2.12182  -0.00249  -0.00039  -0.00914  -0.00951   2.11231
    A3        2.06630   0.00294   0.00066   0.00621   0.00674   2.07304
    A4        2.00152  -0.00111   0.00269   0.00633   0.00963   2.01115
    A5        1.80188  -0.00117  -0.00012   0.00212   0.00202   1.80390
    A6        1.88931  -0.00082  -0.00067   0.00765   0.00656   1.89586
    A7        2.03190  -0.00201  -0.00185  -0.00911  -0.01174   2.02016
    A8        2.24229  -0.00168   0.00191  -0.00252  -0.00000   2.24229
    A9        2.00899   0.00369  -0.00004   0.01163   0.01163   2.02062
   A10        2.12277  -0.00273   0.00012  -0.00596  -0.00568   2.11710
   A11        2.08855   0.00091  -0.00025   0.00098   0.00061   2.08915
   A12        2.07148   0.00183   0.00012   0.00530   0.00531   2.07680
   A13        2.15218  -0.00090   0.00008  -0.00271  -0.00275   2.14943
   A14        2.09207   0.00100   0.00014   0.00584   0.00603   2.09810
   A15        2.03890  -0.00010  -0.00022  -0.00307  -0.00325   2.03565
   A16        2.03229   0.00030   0.00010   0.00344   0.00348   2.03577
   A17        2.18766  -0.00026   0.00042   0.00371   0.00444   2.19210
   A18        2.02577   0.00086   0.00003   0.00177   0.00163   2.02740
   A19        2.06976  -0.00060  -0.00045  -0.00547  -0.00609   2.06366
   A20        2.06155  -0.00011  -0.00069  -0.00965  -0.01075   2.05079
   A21        2.16583  -0.00786  -0.00003   0.00056   0.00165   2.16748
   A22        2.05423   0.00777   0.00070   0.00724   0.00671   2.06094
   A23        1.98793  -0.00499   0.00034   0.02517   0.02743   2.01536
   A24        2.11603  -0.00020  -0.00161  -0.02131  -0.02432   2.09171
   A25        2.15853   0.00487  -0.00076  -0.00425  -0.00612   2.15242
   A26        3.05687   0.00192  -0.01103  -0.07676  -0.08756   2.96930
   A27        2.25087  -0.00091  -0.00355  -0.00829  -0.02341   2.22746
   A28        2.29420   0.00532   0.00520   0.03075   0.03250   2.32670
   A29        2.20346  -0.00404   0.00477   0.01511   0.01762   2.22107
   A30        2.05656  -0.00103  -0.00214   0.00067   0.00013   2.05669
   A31        2.25141  -0.00995  -0.00133  -0.01965  -0.02143   2.22998
   A32        2.17755   0.00360   0.00160   0.00599   0.00587   2.18342
   A33        1.96417  -0.00446  -0.00091  -0.00932  -0.01219   1.95197
   A34        1.86035   0.00295  -0.00047  -0.00103  -0.00094   1.85941
   A35        1.98086  -0.00136   0.00093   0.00305   0.00435   1.98521
   A36        1.85514   0.00010   0.00052  -0.00329  -0.00208   1.85306
   A37        1.91707   0.00280   0.00016   0.00388   0.00453   1.92160
   A38        1.87896   0.00025  -0.00024   0.00687   0.00649   1.88546
    D1       -2.36417   0.00379  -0.00005  -0.01522  -0.01518  -2.37935
    D2       -0.31295   0.00149   0.00041  -0.00141  -0.00093  -0.31388
    D3        0.75828   0.00256   0.00036  -0.03016  -0.02932   0.72896
    D4        2.80950   0.00027   0.00082  -0.01634  -0.01507   2.79443
    D5       -0.76680   0.00150  -0.00130   0.02188   0.02032  -0.74648
    D6        1.26021   0.00103  -0.00145   0.01228   0.01081   1.27103
    D7       -2.95766   0.00249  -0.00152   0.02182   0.02073  -2.93694
    D8        2.39424   0.00272  -0.00172   0.03691   0.03445   2.42869
    D9       -1.86192   0.00225  -0.00187   0.02732   0.02494  -1.83698
   D10        0.20339   0.00371  -0.00194   0.03685   0.03485   0.23824
   D11        1.60431  -0.00249   0.00242   0.01557   0.01862   1.62293
   D12       -1.53791  -0.00441   0.00543   0.03090   0.03661  -1.50130
   D13       -0.39654   0.00013   0.00148   0.00429   0.00608  -0.39046
   D14        2.74442  -0.00179   0.00448   0.01962   0.02407   2.76849
   D15       -3.09916  -0.00215   0.00342   0.00443   0.00750  -3.09166
   D16        0.01239  -0.00141   0.00281   0.01687   0.01942   0.03181
   D17        0.04298  -0.00049   0.00080  -0.00881  -0.00813   0.03485
   D18       -3.12866   0.00025   0.00018   0.00362   0.00379  -3.12487
   D19        3.12436   0.00327  -0.00411  -0.01539  -0.01917   3.10519
   D20       -0.07930  -0.00043  -0.00439  -0.05099  -0.05492  -0.13423
   D21       -0.01785   0.00137  -0.00117  -0.00024  -0.00119  -0.01904
   D22        3.06167  -0.00233  -0.00144  -0.03584  -0.03694   3.02473
   D23       -0.03621  -0.00042   0.00035   0.01125   0.01154  -0.02467
   D24        3.11431   0.00007   0.00027   0.00257   0.00286   3.11717
   D25        3.13514  -0.00114   0.00096  -0.00100  -0.00022   3.13492
   D26        0.00248  -0.00065   0.00088  -0.00968  -0.00890  -0.00642
   D27       -0.00002   0.00050  -0.00108  -0.00278  -0.00381  -0.00383
   D28        3.13289   0.00003  -0.00100   0.00570   0.00463   3.13752
   D29        0.02690   0.00058   0.00066  -0.00693  -0.00629   0.02061
   D30       -3.11617   0.00077   0.00011   0.00346   0.00344  -3.11273
   D31       -0.01751  -0.00158   0.00049   0.00845   0.00879  -0.00872
   D32       -3.10105   0.00242   0.00077   0.04194   0.04244  -3.05861
   D33        3.12559  -0.00178   0.00106  -0.00218  -0.00112   3.12447
   D34        0.04205   0.00223   0.00134   0.03131   0.03252   0.07458
   D35        0.01131   0.00847  -0.00807   0.04110   0.03406   0.04537
   D36       -2.92071   0.00946   0.00525   0.04322   0.04899  -2.87172
   D37        3.09107   0.00453  -0.00839   0.00509  -0.00245   3.08862
   D38        0.15905   0.00552   0.00493   0.00720   0.01247   0.17153
   D39        1.11317   0.00226   0.00370  -0.15774  -0.15244   0.96072
   D40       -0.54859   0.01012   0.01566   0.02096   0.03544  -0.51315
   D41       -2.24383   0.00050  -0.01005  -0.16212  -0.17023  -2.41407
   D42        2.37759   0.00836   0.00191   0.01658   0.01765   2.39525
   D43        0.88023   0.00658   0.00746   0.17720   0.18565   1.06588
   D44       -1.11680  -0.00691  -0.00370  -0.07082  -0.07619  -1.19299
   D45        1.34668  -0.00846  -0.00145   0.00135   0.00072   1.34740
   D46        0.08992  -0.00582  -0.00140  -0.03504  -0.03852   0.05140
   D47       -0.03243   0.00890  -0.00106   0.06947   0.06707   0.03464
   D48       -1.29401   0.00654   0.00265  -0.04842  -0.04526  -1.33927
   D49        2.95904   0.00529   0.00339  -0.04023  -0.03651   2.92253
   D50        0.93109   0.00353   0.00332  -0.04846  -0.04531   0.88579
         Item               Value     Threshold  Converged?
 Maximum Force            0.010122     0.000450     NO 
 RMS     Force            0.003954     0.000300     NO 
 Maximum Displacement     0.111631     0.001800     NO 
 RMS     Displacement     0.023859     0.001200     NO 
 Predicted change in Energy=-2.254739D-03
 GradGradGradGradGradGradGradGradGradGradGradGradGradGradGradGradGradGrad

                          Input orientation:                          
 ---------------------------------------------------------------------
 Center     Atomic      Atomic             Coordinates (Angstroms)
 Number     Number       Type             X           Y           Z
 ---------------------------------------------------------------------
      1          8           0        0.969956    1.645252   -0.816454
      2          6           0        1.894459    0.886617   -0.719587
      3          6           0        2.539128    0.610650    0.673210
      4          6           0        4.058084    0.590150    0.691107
      5          6           0        4.679646    1.807031    1.001631
      6          6           0        6.061124    1.933581    0.992879
      7          7           0        6.886507    0.918073    0.720461
      8          6           0        6.321607   -0.253055    0.454610
      9          6           0        4.937087   -0.504516    0.413481
     10          6           0        4.491417   -1.889314    0.206663
     11          6           0        3.196673   -2.074450    0.238856
     12          6           0        1.896542   -2.101445    0.111099
     13         16           0        0.825829   -2.480250   -1.227229
     14          7           0        0.786580   -1.262606   -2.721183
     15          7           0        1.452395   -0.273815   -2.883552
     16          6           0        2.495517    0.203086   -1.964332
     17         16           0        1.627114   -0.862781    1.426671
     18          1           0        2.194343    1.449905    1.281619
     19          1           0        4.072921    2.676138    1.238438
     20          1           0        6.523783    2.891274    1.214328
     21          1           0        7.000988   -1.080445    0.261442
     22          1           0        5.209924   -2.699362    0.250564
     23          1           0        3.050244    0.975880   -2.506998
     24          1           0        3.186382   -0.606027   -1.729864
 ---------------------------------------------------------------------
                    Distance matrix (angstroms):
                    1          2          3          4          5
     1  O    0.000000
     2  C    1.199840   0.000000
     3  C    2.398291   1.559372   0.000000
     4  C    3.594789   2.599850   1.519199   0.000000
     5  C    4.134416   3.401032   2.474066   1.401272   0.000000
     6  C    5.410805   4.624908   3.775816   2.430646   1.387290
     7  N    6.156011   5.195698   4.358491   2.847521   2.395734
     8  C    5.818877   4.719875   3.885989   2.427027   2.690580
     9  C    4.676790   3.532234   2.657303   1.431089   2.399051
    10  C    5.093193   3.912534   3.206075   2.563241   3.785548
    11  C    4.461853   3.373765   2.798355   2.836662   4.224563
    12  C    3.969465   3.101380   2.843298   3.500480   4.880051
    13  S    4.148406   3.568678   4.012571   4.853333   6.180655
    14  N    3.480986   3.138940   4.254694   5.077319   6.199837
    15  N    2.861549   2.494948   3.822803   4.507132   5.462574
    16  C    2.392656   1.542036   2.669202   3.105284   4.017461
    17  S    3.428366   2.781778   1.889569   2.926035   4.077561
    18  H    2.437045   2.100488   1.092422   2.135747   2.526393
    19  H    3.861825   3.432484   2.634054   2.156649   1.086066
    20  H    6.043313   5.402714   4.622935   3.413005   2.149806
    21  H    6.705567   5.559531   4.789316   3.411185   3.778099
    22  H    6.163727   4.979232   4.274104   3.513077   4.599226
    23  H    2.762897   2.130409   3.241660   3.375263   3.956797
    24  H    3.288635   2.217591   2.770199   2.837570   3.938750
                    6          7          8          9         10
     6  C    0.000000
     7  N    1.336684   0.000000
     8  C    2.266927   1.327151   0.000000
     9  C    2.746539   2.432743   1.407771   0.000000
    10  C    4.206737   3.725838   2.467471   1.469374   0.000000
    11  C    4.983768   4.775145   3.623429   2.350367   1.308310
    12  C    5.865383   5.864176   4.807883   3.447685   2.605285
    13  S    7.198548   7.216226   6.163810   4.847463   3.980175
    14  N    7.199353   7.335489   6.460757   5.256190   4.763493
    15  N    6.414023   6.628656   5.903641   4.802783   4.625465
    16  C    4.945024   5.196164   4.549539   3.480799   3.615934
    17  S    5.260063   5.597445   4.832694   3.480062   3.278174
    18  H    3.907597   4.755434   4.540740   3.477940   4.193145
    19  H    2.136503   3.357880   3.775069   3.397631   4.699261
    20  H    1.086402   2.066154   3.241118   3.832799   5.291495
    21  H    3.240786   2.053748   1.087864   2.148138   2.637274
    22  H    4.768620   4.014670   2.694790   2.217732   1.083678
    23  H    4.715053   5.013656   4.580744   3.779014   4.201223
    24  H    4.703943   4.692324   3.837466   2.769332   2.664597
                   11         12         13         14         15
    11  C    0.000000
    12  C    1.306672   0.000000
    13  S    2.816910   1.755290   0.000000
    14  N    3.902496   3.155549   1.927718   0.000000
    15  N    4.004276   3.536302   2.829195   1.203072   0.000000
    16  C    3.245432   3.158646   3.245223   2.375193   1.469865
    17  S    2.311399   1.826913   3.209587   4.251006   4.353784
    18  H    3.809606   3.751118   4.859348   5.036063   4.568407
    19  H    4.933058   5.369620   6.573542   6.480150   5.706153
    20  H    6.056370   6.896065   8.202509   8.102991   7.247716
    21  H    3.932094   5.207726   6.504474   6.895513   6.428726
    22  H    2.108040   3.369786   4.631649   5.519196   5.461226
    23  H    4.106783   4.201832   4.304726   3.190748   2.063166
    24  H    2.456059   2.699834   3.055742   2.678219   2.109045
                   16         17         18         19         20
    16  C    0.000000
    17  S    3.659112   0.000000
    18  H    3.490194   2.385645   0.000000
    19  H    4.343032   4.305967   2.243785   0.000000
    20  H    5.792854   6.173766   4.563565   2.460404   0.000000
    21  H    5.186597   5.503059   5.526958   4.862100   4.112209
    22  H    4.549503   4.194376   5.231943   5.582533   5.823254
    23  H    1.095180   4.569434   3.912912   4.238518   5.438977
    24  H    1.089465   3.530007   3.778892   4.513245   5.660179
                   21         22         23         24
    21  H    0.000000
    22  H    2.414316   0.000000
    23  H    5.244150   5.076984   0.000000
    24  H    4.329156   3.521203   1.767739   0.000000
 Stoichiometry    C11H7N3OS2
 Framework group  C1[X(C11H7N3OS2)]
 Deg. of freedom    66
 Full point group                 C1      NOp   1
 Largest Abelian subgroup         C1      NOp   1
 Largest concise Abelian subgroup C1      NOp   1
                         Standard orientation:                         
 ---------------------------------------------------------------------
 Center     Atomic      Atomic             Coordinates (Angstroms)
 Number     Number       Type             X           Y           Z
 ---------------------------------------------------------------------
      1          8           0        1.129017   -2.578682    0.639418
      2          6           0        0.617607   -1.588860    0.194079
      3          6           0       -0.346447   -0.739464    1.077689
      4          6           0       -1.614680   -0.269968    0.385499
      5          6           0       -2.731716   -1.103435    0.530858
      6          6           0       -3.932671   -0.815874   -0.101273
      7          7           0       -4.118689    0.270056   -0.858160
      8          6           0       -3.084122    1.091647   -0.984613
      9          6           0       -1.812383    0.902174   -0.411377
     10          6           0       -0.816056    1.970470   -0.569930
     11          6           0        0.326470    1.768538    0.034663
     12          6           0        1.472609    1.374164    0.522747
     13         16           0        3.029347    1.011460   -0.202548
     14          7           0        3.155870   -0.546733   -1.330433
     15          7           0        2.272797   -1.298659   -1.650073
     16          6           0        0.861170   -1.156431   -1.265906
     17         16           0        0.706429    0.554805    1.964701
     18          1           0       -0.621538   -1.425347    1.882223
     19          1           0       -2.657213   -2.002498    1.135568
     20          1           0       -4.780836   -1.486334    0.005350
     21          1           0       -3.252477    1.986895   -1.579285
     22          1           0       -1.114790    2.931073   -0.972866
     23          1           0        0.301637   -1.856182   -1.895741
     24          1           0        0.512131   -0.148796   -1.489013
 ---------------------------------------------------------------------
 Rotational constants (GHZ):           0.7347746           0.3139711           0.2902180
 Standard basis: 6-31G(2df,p) (6D, 7F)
 There are   570 symmetry adapted cartesian basis functions of A   symmetry.
 There are   519 symmetry adapted basis functions of A   symmetry.
   519 basis functions,   845 primitive gaussians,   570 cartesian basis functions
    67 alpha electrons       67 beta electrons
       nuclear repulsion energy      1405.2592510600 Hartrees.
 NAtoms=   24 NActive=   24 NUniq=   24 SFac= 1.00D+00 NAtFMM=   60 NAOKFM=F Big=F
 Integral buffers will be    131072 words long.
 Raffenetti 2 integral format.
 Two-electron integral symmetry is turned on.
 One-electron integrals computed using PRISM.
 PrsmSu:  requested number of processors reduced to:  12 ShMem   1 Linda.
 NBasis=   519 RedAO= T EigKep=  1.30D-04  NBF=   519
 NBsUse=   519 1.00D-06 EigRej= -1.00D+00 NBFU=   519
 Initial guess from the checkpoint file:  "OdC1Cdc2ccncc2dCC2dCqSNdNC1rS2.chk"
 B after Tr=     0.000000   -0.000000    0.000000
         Rot=    0.999983   -0.005829    0.000866    0.000045 Ang=  -0.68 deg.
 ExpMin= 1.17D-01 ExpMax= 2.19D+04 ExpMxC= 3.30D+03 IAcc=2 IRadAn=         4 AccDes= 0.00D+00
 Harris functional with IExCor=  402 and IRadAn=       4 diagonalized for initial guess.
 HarFok:  IExCor=  402 AccDes= 0.00D+00 IRadAn=         4 IDoV= 1 UseB2=F ITyADJ=14
 ICtDFT=  3500011 ScaDFX=  1.000000  1.000000  1.000000  1.000000
 FoFCou: FMM=F IPFlag=           0 FMFlag=      100000 FMFlg1=           0
         NFxFlg=           0 DoJE=T BraDBF=F KetDBF=T FulRan=T
         wScrn=  0.000000 ICntrl=       500 IOpCl=  0 I1Cent=   200000004 NGrid=           0
         NMat0=    1 NMatS0=      1 NMatT0=    0 NMatD0=    1 NMtDS0=    0 NMtDT0=    0
 Petite list used in FoFCou.
 Requested convergence on RMS density matrix=1.00D-08 within 128 cycles.
 Requested convergence on MAX density matrix=1.00D-06.
 Requested convergence on             energy=1.00D-06.
 No special actions if energy rises.
 Integral accuracy reduced to 1.0D-05 until final iterations.
 Initial convergence to 1.0D-05 achieved.  Increase integral accuracy.
slurmstepd: error: *** JOB 27446655 ON lewis4-r630-hpc4-node537 CANCELLED AT 2023-05-17T11:28:15 DUE TO TIME LIMIT ***
