### Starting Gaussian ###
 Entering Gaussian System, Link 0=g16
 Initial command:
 /cluster/software/gaussian/gaussian-16-A.03/avx2/g16/l1.exe "/local/scratch/linjian/Gau-16876.inp" -scrdir="/local/scratch/linjian/"
 Entering Link 1 = /cluster/software/gaussian/gaussian-16-A.03/avx2/g16/l1.exe PID=     16877.
  
 Copyright (c) 1988,1990,1992,1993,1995,1998,2003,2009,2016,
            Gaussian, Inc.  All Rights Reserved.
  
 This is part of the Gaussian(R) 16 program.  It is based on
 the Gaussian(R) 09 system (copyright 2009, Gaussian, Inc.),
 the Gaussian(R) 03 system (copyright 2003, Gaussian, Inc.),
 the Gaussian(R) 98 system (copyright 1998, Gaussian, Inc.),
 the Gaussian(R) 94 system (copyright 1995, Gaussian, Inc.),
 the Gaussian 92(TM) system (copyright 1992, Gaussian, Inc.),
 the Gaussian 90(TM) system (copyright 1990, Gaussian, Inc.),
 the Gaussian 88(TM) system (copyright 1988, Gaussian, Inc.),
 the Gaussian 86(TM) system (copyright 1986, Carnegie Mellon
 University), and the Gaussian 82(TM) system (copyright 1983,
 Carnegie Mellon University). Gaussian is a federally registered
 trademark of Gaussian, Inc.
  
 This software contains proprietary and confidential information,
 including trade secrets, belonging to Gaussian, Inc.
  
 This software is provided under written license and may be
 used, copied, transmitted, or stored only in accord with that
 written license.
  
 The following legend is applicable only to US Government
 contracts under FAR:
  
                    RESTRICTED RIGHTS LEGEND
  
 Use, reproduction and disclosure by the US Government is
 subject to restrictions as set forth in subparagraphs (a)
 and (c) of the Commercial Computer Software - Restricted
 Rights clause in FAR 52.227-19.
  
 Gaussian, Inc.
 340 Quinnipiac St., Bldg. 40, Wallingford CT 06492
  
  
 ---------------------------------------------------------------
 Warning -- This program may not be used in any manner that
 competes with the business of Gaussian, Inc. or will provide
 assistance to any competitor of Gaussian, Inc.  The licensee
 of this program is prohibited from giving any competitor of
 Gaussian, Inc. access to this program.  By using this program,
 the user acknowledges that Gaussian, Inc. is engaged in the
 business of creating and licensing software in the field of
 computational chemistry and represents and warrants to the
 licensee that it is not a competitor of Gaussian, Inc. and that
 it will not use this program in any manner prohibited above.
 ---------------------------------------------------------------
  

 Cite this work as:
 Gaussian 16, Revision A.03,
 M. J. Frisch, G. W. Trucks, H. B. Schlegel, G. E. Scuseria, 
 M. A. Robb, J. R. Cheeseman, G. Scalmani, V. Barone, 
 G. A. Petersson, H. Nakatsuji, X. Li, M. Caricato, A. V. Marenich, 
 J. Bloino, B. G. Janesko, R. Gomperts, B. Mennucci, H. P. Hratchian, 
 J. V. Ortiz, A. F. Izmaylov, J. L. Sonnenberg, D. Williams-Young, 
 F. Ding, F. Lipparini, F. Egidi, J. Goings, B. Peng, A. Petrone, 
 T. Henderson, D. Ranasinghe, V. G. Zakrzewski, J. Gao, N. Rega, 
 G. Zheng, W. Liang, M. Hada, M. Ehara, K. Toyota, R. Fukuda, 
 J. Hasegawa, M. Ishida, T. Nakajima, Y. Honda, O. Kitao, H. Nakai, 
 T. Vreven, K. Throssell, J. A. Montgomery, Jr., J. E. Peralta, 
 F. Ogliaro, M. J. Bearpark, J. J. Heyd, E. N. Brothers, K. N. Kudin, 
 V. N. Staroverov, T. A. Keith, R. Kobayashi, J. Normand, 
 K. Raghavachari, A. P. Rendell, J. C. Burant, S. S. Iyengar, 
 J. Tomasi, M. Cossi, J. M. Millam, M. Klene, C. Adamo, R. Cammi, 
 J. W. Ochterski, R. L. Martin, K. Morokuma, O. Farkas, 
 J. B. Foresman, and D. J. Fox, Gaussian, Inc., Wallingford CT, 2016.
 
 ******************************************
 Gaussian 16:  ES64L-G16RevA.03 25-Dec-2016
                17-May-2023 
 ******************************************
 %chk=Odc1[c]c2cqcc3n4cc-3c1dNC4rdC2.chk
 %NProcShared=20
 Will use up to   20 processors via shared memory.
 -----------------------------
 # opt freq b3lyp/6-31g(2df,p)
 -----------------------------
 1/18=20,19=15,26=3,38=1/1,3;
 2/9=110,12=2,17=6,18=5,40=1/2;
 3/5=1,6=6,7=104,11=2,25=1,30=1,71=1,74=-5/1,2,3;
 4//1;
 5/5=2,38=5/2;
 6/7=2,8=2,9=2,10=2,28=1/1;
 7//1,2,3,16;
 1/18=20,19=15,26=3/3(2);
 2/9=110/2;
 99//99;
 2/9=110/2;
 3/5=1,6=6,7=104,11=2,25=1,30=1,71=1,74=-5/1,2,3;
 4/5=5,16=3,69=1/1;
 5/5=2,38=5/2;
 7//1,2,3,16;
 1/18=20,19=15,26=3/3(-5);
 2/9=110/2;
 6/7=2,8=2,9=2,10=2,19=2,28=1/1;
 99/9=1/99;
 -------------------
 Title Card Required
 -------------------
 Symbolic Z-matrix:
 Charge =  0 Multiplicity = 2
 O                     5.20731   1.12874  -1.12125 
 C                     5.67539   1.74817  -0.18988 
 C                     4.17645   2.0499    0.58742 
 C                     4.82558   1.21308   1.07534 
 C                     5.46308   1.06817   2.30414 
 C                     6.20042   2.40328   2.21138 
 C                     7.3244    3.15929   2.42898 
 N                     8.41977   3.82412   1.84643 
 C                     9.0002    3.26614   2.8858 
 C                     8.26606   2.16764   2.35454 
 C                     7.61705   2.00558   0.51419 
 N                     8.84593   1.66687   0.44414 
 C                     9.14352   3.27779   0.59349 
 C                     5.23485  -0.11075   1.33439 
 H                     6.70163   1.33473   1.80668 
 H                     9.00223   3.65226   4.00152 
 H                     9.42638   2.66138  -0.29504 
 H                     9.39683   4.09769  -0.09081 
 H                     5.41407  -0.48282   0.17115 
 

 GradGradGradGradGradGradGradGradGradGradGradGradGradGradGradGradGradGrad
 Berny optimization.
 Initialization pass.
                           ----------------------------
                           !    Initial Parameters    !
                           ! (Angstroms and Degrees)  !
 --------------------------                            --------------------------
 ! Name  Definition              Value          Derivative Info.                !
 --------------------------------------------------------------------------------
 ! R1    R(1,2)                  1.2125         estimate D2E/DX2                !
 ! R2    R(2,3)                  1.7152         estimate D2E/DX2                !
 ! R3    R(2,4)                  1.6153         estimate D2E/DX2                !
 ! R4    R(3,4)                  1.1661         estimate D2E/DX2                !
 ! R5    R(4,5)                  1.3919         estimate D2E/DX2                !
 ! R6    R(4,14)                 1.4097         estimate D2E/DX2                !
 ! R7    R(5,6)                  1.528          estimate D2E/DX2                !
 ! R8    R(5,14)                 1.5435         estimate D2E/DX2                !
 ! R9    R(6,7)                  1.3719         estimate D2E/DX2                !
 ! R10   R(6,15)                 1.2477         estimate D2E/DX2                !
 ! R11   R(7,8)                  1.4076         estimate D2E/DX2                !
 ! R12   R(7,9)                  1.7402         estimate D2E/DX2                !
 ! R13   R(7,10)                 1.3695         estimate D2E/DX2                !
 ! R14   R(8,9)                  1.3147         estimate D2E/DX2                !
 ! R15   R(8,10)                 1.7395         estimate D2E/DX2                !
 ! R16   R(8,13)                 1.5467         estimate D2E/DX2                !
 ! R17   R(9,10)                 1.424          estimate D2E/DX2                !
 ! R18   R(9,16)                 1.1806         estimate D2E/DX2                !
 ! R19   R(11,12)                1.2766         estimate D2E/DX2                !
 ! R20   R(12,13)                1.645          estimate D2E/DX2                !
 ! R21   R(13,17)                1.1178         estimate D2E/DX2                !
 ! R22   R(13,18)                1.0976         estimate D2E/DX2                !
 ! R23   R(14,19)                1.2344         estimate D2E/DX2                !
 ! A1    A(1,2,3)               95.7738         estimate D2E/DX2                !
 ! A2    A(1,2,4)              103.2571         estimate D2E/DX2                !
 ! A3    A(2,4,5)              119.0135         estimate D2E/DX2                !
 ! A4    A(2,4,14)             107.5949         estimate D2E/DX2                !
 ! A5    A(3,4,5)              134.3538         estimate D2E/DX2                !
 ! A6    A(3,4,14)             155.849          estimate D2E/DX2                !
 ! A7    A(4,5,6)               94.3847         estimate D2E/DX2                !
 ! A8    A(6,5,14)             134.4746         estimate D2E/DX2                !
 ! A9    A(5,6,7)              150.1341         estimate D2E/DX2                !
 ! A10   A(5,6,15)              57.6723         estimate D2E/DX2                !
 ! A11   A(7,6,15)             101.202          estimate D2E/DX2                !
 ! A12   A(6,7,8)              146.3245         estimate D2E/DX2                !
 ! A13   A(6,7,9)              149.8139         estimate D2E/DX2                !
 ! A14   A(6,7,10)              98.9562         estimate D2E/DX2                !
 ! A15   A(7,8,13)             122.1809         estimate D2E/DX2                !
 ! A16   A(9,8,13)             106.4944         estimate D2E/DX2                !
 ! A17   A(10,8,13)             86.6523         estimate D2E/DX2                !
 ! A18   A(7,9,16)             105.6527         estimate D2E/DX2                !
 ! A19   A(8,9,16)             127.5202         estimate D2E/DX2                !
 ! A20   A(10,9,16)            127.2802         estimate D2E/DX2                !
 ! A21   A(11,12,13)            84.7982         estimate D2E/DX2                !
 ! A22   A(8,13,12)            109.5613         estimate D2E/DX2                !
 ! A23   A(8,13,17)            163.1663         estimate D2E/DX2                !
 ! A24   A(8,13,18)            110.4381         estimate D2E/DX2                !
 ! A25   A(12,13,17)            55.4984         estimate D2E/DX2                !
 ! A26   A(12,13,18)           135.7823         estimate D2E/DX2                !
 ! A27   A(17,13,18)            81.8334         estimate D2E/DX2                !
 ! A28   A(4,14,19)             98.7456         estimate D2E/DX2                !
 ! A29   A(5,14,19)            143.2101         estimate D2E/DX2                !
 ! D1    D(1,2,3,4)            103.6183         estimate D2E/DX2                !
 ! D2    D(1,2,4,5)            144.2157         estimate D2E/DX2                !
 ! D3    D(1,2,4,14)            71.4063         estimate D2E/DX2                !
 ! D4    D(2,4,5,6)             43.9327         estimate D2E/DX2                !
 ! D5    D(3,4,5,6)            -52.1692         estimate D2E/DX2                !
 ! D6    D(2,4,14,19)          -36.1637         estimate D2E/DX2                !
 ! D7    D(3,4,14,19)           54.3102         estimate D2E/DX2                !
 ! D8    D(4,5,6,7)           -142.0609         estimate D2E/DX2                !
 ! D9    D(4,5,6,15)           -91.8827         estimate D2E/DX2                !
 ! D10   D(14,5,6,7)           -95.5127         estimate D2E/DX2                !
 ! D11   D(14,5,6,15)          -45.3345         estimate D2E/DX2                !
 ! D12   D(6,5,14,19)           -6.0514         estimate D2E/DX2                !
 ! D13   D(5,6,7,8)            109.3932         estimate D2E/DX2                !
 ! D14   D(5,6,7,9)              9.1476         estimate D2E/DX2                !
 ! D15   D(5,6,7,10)            28.4283         estimate D2E/DX2                !
 ! D16   D(15,6,7,8)            67.9712         estimate D2E/DX2                !
 ! D17   D(15,6,7,9)           -32.2744         estimate D2E/DX2                !
 ! D18   D(15,6,7,10)          -12.9938         estimate D2E/DX2                !
 ! D19   D(6,7,8,13)           -35.3059         estimate D2E/DX2                !
 ! D20   D(6,7,9,16)          -101.7131         estimate D2E/DX2                !
 ! D21   D(13,8,9,16)          158.4512         estimate D2E/DX2                !
 ! D22   D(9,8,10,7)           108.6179         estimate D2E/DX2                !
 ! D23   D(7,8,13,12)          -21.0933         estimate D2E/DX2                !
 ! D24   D(7,8,13,17)            4.5703         estimate D2E/DX2                !
 ! D25   D(7,8,13,18)          139.6589         estimate D2E/DX2                !
 ! D26   D(9,8,13,12)           66.5854         estimate D2E/DX2                !
 ! D27   D(9,8,13,17)           92.249          estimate D2E/DX2                !
 ! D28   D(9,8,13,18)         -132.6624         estimate D2E/DX2                !
 ! D29   D(10,8,13,12)          16.3801         estimate D2E/DX2                !
 ! D30   D(10,8,13,17)          42.0438         estimate D2E/DX2                !
 ! D31   D(10,8,13,18)         177.1324         estimate D2E/DX2                !
 ! D32   D(11,12,13,8)          53.4944         estimate D2E/DX2                !
 ! D33   D(11,12,13,17)       -117.7518         estimate D2E/DX2                !
 ! D34   D(11,12,13,18)       -100.2138         estimate D2E/DX2                !
 --------------------------------------------------------------------------------
 Trust Radius=3.00D-01 FncErr=1.00D-07 GrdErr=1.00D-06 EigMax=2.50D+02 EigMin=1.00D-04
 Number of steps in this run=     96 maximum allowed number of steps=    114.
 GradGradGradGradGradGradGradGradGradGradGradGradGradGradGradGradGradGrad

                          Input orientation:                          
 ---------------------------------------------------------------------
 Center     Atomic      Atomic             Coordinates (Angstroms)
 Number     Number       Type             X           Y           Z
 ---------------------------------------------------------------------
      1          8           0        5.207310    1.128740   -1.121250
      2          6           0        5.675390    1.748170   -0.189880
      3          6           0        4.176450    2.049900    0.587420
      4          6           0        4.825580    1.213080    1.075340
      5          6           0        5.463080    1.068170    2.304140
      6          6           0        6.200420    2.403280    2.211380
      7          6           0        7.324400    3.159290    2.428980
      8          7           0        8.419770    3.824120    1.846430
      9          6           0        9.000200    3.266140    2.885800
     10          6           0        8.266060    2.167640    2.354540
     11          6           0        7.617050    2.005580    0.514190
     12          7           0        8.845930    1.666870    0.444140
     13          6           0        9.143520    3.277790    0.593490
     14          6           0        5.234850   -0.110750    1.334390
     15          1           0        6.701630    1.334730    1.806680
     16          1           0        9.002230    3.652260    4.001520
     17          1           0        9.426380    2.661380   -0.295040
     18          1           0        9.396830    4.097690   -0.090810
     19          1           0        5.414070   -0.482820    0.171150
 ---------------------------------------------------------------------
                    Distance matrix (angstroms):
                    1          2          3          4          5
     1  O    0.000000
     2  C    1.212536   0.000000
     3  C    2.197899   1.715243   0.000000
     4  C    2.231107   1.615327   1.166063   0.000000
     5  C    3.435460   2.593764   2.359309   1.391889   0.000000
     6  C    3.703666   2.543792   2.618889   2.144143   1.528003
     7  C    4.605360   3.401312   3.812044   3.444441   2.802299
     8  N    5.137324   3.998468   4.768514   4.508915   4.067773
     9  C    5.917005   4.776861   5.479996   4.992021   4.204833
    10  C    4.745143   3.655352   4.456623   3.792682   3.011324
    11  C    3.041440   2.081350   3.441665   2.955546   2.953345
    12  N    3.997447   3.234334   4.687354   4.094820   3.906625
    13  C    4.801302   3.870573   5.116594   4.810386   4.621080
    14  C    2.750866   2.443984   2.519243   1.409658   1.543488
    15  H    3.293660   2.282620   2.893890   2.017231   1.361076
    16  H    6.856555   5.679899   6.124687   5.653011   4.699383
    17  H    4.564226   3.861986   5.358583   5.014267   5.000180
    18  H    5.237227   4.402178   5.648523   5.529666   5.512546
    19  H    2.076096   2.275071   2.849501   2.009964   2.637730
                    6          7          8          9         10
     6  C    0.000000
     7  C    1.371945   0.000000
     8  N    2.660355   1.407551   0.000000
     9  C    3.006350   1.740232   1.314736   0.000000
    10  C    2.083960   1.369538   1.739462   1.424044   0.000000
    11  C    2.246210   2.254576   2.392971   3.021034   1.958154
    12  N    3.265603   2.912381   2.608018   2.922870   2.058312
    13  C    3.470472   2.586941   1.546657   2.296816   2.259130
    14  C    2.832275   4.032060   5.088133   5.290380   3.926831
    15  H    1.247715   2.025863   3.025004   3.190340   1.855082
    16  H    3.551717   2.351811   2.239020   1.180646   2.336362
    17  H    4.093357   3.476567   2.636498   3.265748   2.934348
    18  H    4.288140   3.394835   2.186867   3.115926   3.314132
    19  H    3.620837   4.691708   5.512760   5.855284   4.463852
                   11         12         13         14         15
    11  C    0.000000
    12  N    1.276627   0.000000
    13  C    1.988697   1.644971   0.000000
    14  C    3.290358   4.122181   5.225786   0.000000
    15  H    1.720048   2.562197   3.348155   2.112798   0.000000
    16  H    4.097774   4.076905   3.431451   5.955416   3.934594
    17  H    2.087726   1.368342   1.117791   5.282866   3.688020
    18  H    2.812573   2.549225   1.097574   6.088041   4.300991
    19  H    3.341097   4.058738   5.313131   1.234376   2.763378
                   16         17         18         19
    16  H    0.000000
    17  H    4.429692   0.000000
    18  H    4.135370   1.451058   0.000000
    19  H    6.681730   5.118785   6.075531   0.000000
 Stoichiometry    C11H5N2O(2)
 Framework group  C1[X(C11H5N2O)]
 Deg. of freedom    51
 Full point group                 C1      NOp   1
 Largest Abelian subgroup         C1      NOp   1
 Largest concise Abelian subgroup C1      NOp   1
                         Standard orientation:                         
 ---------------------------------------------------------------------
 Center     Atomic      Atomic             Coordinates (Angstroms)
 Number     Number       Type             X           Y           Z
 ---------------------------------------------------------------------
      1          8           0        2.530837    1.572509   -0.280083
      2          6           0        1.572072    0.854255   -0.467494
      3          6           0        2.449515   -0.411162   -1.223055
      4          6           0        2.138174   -0.617820   -0.118490
      5          6           0        1.294499   -1.536645    0.499026
      6          6           0        0.098847   -1.218327   -0.397570
      7          6           0       -1.251582   -1.039728   -0.560891
      8          7           0       -2.291298   -0.121419   -0.799422
      9          6           0       -2.841179   -0.874140    0.127709
     10          6           0       -1.564599   -0.613463    0.702419
     11          6           0       -0.384102    0.879753    0.242963
     12          7           0       -1.235766    1.389142    1.046063
     13          6           0       -2.263559    1.318841   -0.236367
     14          6           0        2.319181   -0.684738    1.277895
     15          1           0        0.290281   -0.638036    0.690276
     16          1           0       -3.360660   -1.924874   -0.013787
     17          1           0       -1.947066    2.263587    0.270332
     18          1           0       -2.638728    2.029798   -0.983668
     19          1           0        2.695316    0.474437    1.474157
 ---------------------------------------------------------------------
 Rotational constants (GHZ):           1.7423787           0.6630897           0.5737052
 Standard basis: 6-31G(2df,p) (6D, 7F)
 There are   459 symmetry adapted cartesian basis functions of A   symmetry.
 There are   417 symmetry adapted basis functions of A   symmetry.
   417 basis functions,   651 primitive gaussians,   459 cartesian basis functions
    47 alpha electrons       46 beta electrons
       nuclear repulsion energy       816.0864590230 Hartrees.
 NAtoms=   19 NActive=   19 NUniq=   19 SFac= 1.00D+00 NAtFMM=   60 NAOKFM=F Big=F
 Integral buffers will be    131072 words long.
 Raffenetti 2 integral format.
 Two-electron integral symmetry is turned on.
 One-electron integrals computed using PRISM.
 PrsmSu:  requested number of processors reduced to:  13 ShMem   1 Linda.
 NBasis=   417 RedAO= T EigKep=  1.81D-04  NBF=   417
 NBsUse=   417 1.00D-06 EigRej= -1.00D+00 NBFU=   417
 ExpMin= 1.61D-01 ExpMax= 5.48D+03 ExpMxC= 8.25D+02 IAcc=3 IRadAn=         5 AccDes= 0.00D+00
 Harris functional with IExCor=  402 and IRadAn=       5 diagonalized for initial guess.
 HarFok:  IExCor=  402 AccDes= 0.00D+00 IRadAn=         5 IDoV= 1 UseB2=F ITyADJ=14
 ICtDFT=  3500011 ScaDFX=  1.000000  1.000000  1.000000  1.000000
 FoFCou: FMM=F IPFlag=           0 FMFlag=      100000 FMFlg1=           0
         NFxFlg=           0 DoJE=T BraDBF=F KetDBF=T FulRan=T
         wScrn=  0.000000 ICntrl=       500 IOpCl=  0 I1Cent=   200000004 NGrid=           0
         NMat0=    1 NMatS0=      1 NMatT0=    0 NMatD0=    1 NMtDS0=    0 NMtDT0=    0
 Petite list used in FoFCou.
 Initial guess <Sx>= 0.0000 <Sy>= 0.0000 <Sz>= 0.5000 <S**2>= 0.7500 S= 0.5000
 Requested convergence on RMS density matrix=1.00D-08 within 128 cycles.
 Requested convergence on MAX density matrix=1.00D-06.
 Requested convergence on             energy=1.00D-06.
 No special actions if energy rises.
 Integral accuracy reduced to 1.0D-05 until final iterations.
 EnCoef did     6 forward-backward iterations
 EnCoef did   100 forward-backward iterations
 Restarting incremental Fock formation.
 Initial convergence to 1.0D-05 achieved.  Increase integral accuracy.
 Restarting incremental Fock formation.
 SCF Done:  E(UB3LYP) =  -605.404995094     A.U. after   55 cycles
            NFock= 55  Conv=0.97D-08     -V/T= 2.0028
 <Sx>= 0.0000 <Sy>= 0.0000 <Sz>= 0.5000 <S**2>= 1.2946 S= 0.7428
 <L.S>=  0.00000000000    
 Annihilation of the first spin contaminant:
 S**2 before annihilation     1.2946,   after     0.9434

 **********************************************************************

            Population analysis using the SCF density.

 **********************************************************************

 Orbital symmetries:
 Alpha Orbitals:
       Occupied  (A) (A) (A) (A) (A) (A) (A) (A) (A) (A) (A) (A)
                 (A) (A) (A) (A) (A) (A) (A) (A) (A) (A) (A) (A)
                 (A) (A) (A) (A) (A) (A) (A) (A) (A) (A) (A) (A)
                 (A) (A) (A) (A) (A) (A) (A) (A) (A) (A) (A)
       Virtual   (A) (A) (A) (A) (A) (A) (A) (A) (A) (A) (A) (A)
                 (A) (A) (A) (A) (A) (A) (A) (A) (A) (A) (A) (A)
                 (A) (A) (A) (A) (A) (A) (A) (A) (A) (A) (A) (A)
                 (A) (A) (A) (A) (A) (A) (A) (A) (A) (A) (A) (A)
                 (A) (A) (A) (A) (A) (A) (A) (A) (A) (A) (A) (A)
                 (A) (A) (A) (A) (A) (A) (A) (A) (A) (A) (A) (A)
                 (A) (A) (A) (A) (A) (A) (A) (A) (A) (A) (A) (A)
                 (A) (A) (A) (A) (A) (A) (A) (A) (A) (A) (A) (A)
                 (A) (A) (A) (A) (A) (A) (A) (A) (A) (A) (A) (A)
                 (A) (A) (A) (A) (A) (A) (A) (A) (A) (A) (A) (A)
                 (A) (A) (A) (A) (A) (A) (A) (A) (A) (A) (A) (A)
                 (A) (A) (A) (A) (A) (A) (A) (A) (A) (A) (A) (A)
                 (A) (A) (A) (A) (A) (A) (A) (A) (A) (A) (A) (A)
                 (A) (A) (A) (A) (A) (A) (A) (A) (A) (A) (A) (A)
                 (A) (A) (A) (A) (A) (A) (A) (A) (A) (A) (A) (A)
                 (A) (A) (A) (A) (A) (A) (A) (A) (A) (A) (A) (A)
                 (A) (A) (A) (A) (A) (A) (A) (A) (A) (A) (A) (A)
                 (A) (A) (A) (A) (A) (A) (A) (A) (A) (A) (A) (A)
                 (A) (A) (A) (A) (A) (A) (A) (A) (A) (A) (A) (A)
                 (A) (A) (A) (A) (A) (A) (A) (A) (A) (A) (A) (A)
                 (A) (A) (A) (A) (A) (A) (A) (A) (A) (A) (A) (A)
                 (A) (A) (A) (A) (A) (A) (A) (A) (A) (A) (A) (A)
                 (A) (A) (A) (A) (A) (A) (A) (A) (A) (A) (A) (A)
                 (A) (A) (A) (A) (A) (A) (A) (A) (A) (A) (A) (A)
                 (A) (A) (A) (A) (A) (A) (A) (A) (A) (A) (A) (A)
                 (A) (A) (A) (A) (A) (A) (A) (A) (A) (A) (A) (A)
                 (A) (A) (A) (A) (A) (A) (A) (A) (A) (A) (A) (A)
                 (A) (A) (A) (A) (A) (A) (A) (A) (A) (A) (A) (A)
                 (A) (A) (A) (A) (A) (A) (A) (A) (A) (A) (A) (A)
                 (A) (A) (A) (A) (A) (A) (A) (A) (A) (A) (A) (A)
                 (A) (A) (A) (A) (A) (A) (A) (A) (A) (A)
 Beta  Orbitals:
       Occupied  (A) (A) (A) (A) (A) (A) (A) (A) (A) (A) (A) (A)
                 (A) (A) (A) (A) (A) (A) (A) (A) (A) (A) (A) (A)
                 (A) (A) (A) (A) (A) (A) (A) (A) (A) (A) (A) (A)
                 (A) (A) (A) (A) (A) (A) (A) (A) (A) (A)
       Virtual   (A) (A) (A) (A) (A) (A) (A) (A) (A) (A) (A) (A)
                 (A) (A) (A) (A) (A) (A) (A) (A) (A) (A) (A) (A)
                 (A) (A) (A) (A) (A) (A) (A) (A) (A) (A) (A) (A)
                 (A) (A) (A) (A) (A) (A) (A) (A) (A) (A) (A) (A)
                 (A) (A) (A) (A) (A) (A) (A) (A) (A) (A) (A) (A)
                 (A) (A) (A) (A) (A) (A) (A) (A) (A) (A) (A) (A)
                 (A) (A) (A) (A) (A) (A) (A) (A) (A) (A) (A) (A)
                 (A) (A) (A) (A) (A) (A) (A) (A) (A) (A) (A) (A)
                 (A) (A) (A) (A) (A) (A) (A) (A) (A) (A) (A) (A)
                 (A) (A) (A) (A) (A) (A) (A) (A) (A) (A) (A) (A)
                 (A) (A) (A) (A) (A) (A) (A) (A) (A) (A) (A) (A)
                 (A) (A) (A) (A) (A) (A) (A) (A) (A) (A) (A) (A)
                 (A) (A) (A) (A) (A) (A) (A) (A) (A) (A) (A) (A)
                 (A) (A) (A) (A) (A) (A) (A) (A) (A) (A) (A) (A)
                 (A) (A) (A) (A) (A) (A) (A) (A) (A) (A) (A) (A)
                 (A) (A) (A) (A) (A) (A) (A) (A) (A) (A) (A) (A)
                 (A) (A) (A) (A) (A) (A) (A) (A) (A) (A) (A) (A)
                 (A) (A) (A) (A) (A) (A) (A) (A) (A) (A) (A) (A)
                 (A) (A) (A) (A) (A) (A) (A) (A) (A) (A) (A) (A)
                 (A) (A) (A) (A) (A) (A) (A) (A) (A) (A) (A) (A)
                 (A) (A) (A) (A) (A) (A) (A) (A) (A) (A) (A) (A)
                 (A) (A) (A) (A) (A) (A) (A) (A) (A) (A) (A) (A)
                 (A) (A) (A) (A) (A) (A) (A) (A) (A) (A) (A) (A)
                 (A) (A) (A) (A) (A) (A) (A) (A) (A) (A) (A) (A)
                 (A) (A) (A) (A) (A) (A) (A) (A) (A) (A) (A) (A)
                 (A) (A) (A) (A) (A) (A) (A) (A) (A) (A) (A) (A)
                 (A) (A) (A) (A) (A) (A) (A) (A) (A) (A) (A) (A)
                 (A) (A) (A) (A) (A) (A) (A) (A) (A) (A) (A) (A)
                 (A) (A) (A) (A) (A) (A) (A) (A) (A) (A) (A) (A)
                 (A) (A) (A) (A) (A) (A) (A) (A) (A) (A) (A) (A)
                 (A) (A) (A) (A) (A) (A) (A) (A) (A) (A) (A)
 The electronic state is 2-A.
 Alpha  occ. eigenvalues --  -19.17873 -14.43307 -14.42273 -10.32308 -10.30741
 Alpha  occ. eigenvalues --  -10.29520 -10.29275 -10.28520 -10.28135 -10.27364
 Alpha  occ. eigenvalues --  -10.26395 -10.24860 -10.23935 -10.22884  -1.15406
 Alpha  occ. eigenvalues --   -1.10497  -1.01482  -0.98870  -0.86986  -0.83052
 Alpha  occ. eigenvalues --   -0.76627  -0.71115  -0.69962  -0.65624  -0.62483
 Alpha  occ. eigenvalues --   -0.59838  -0.55775  -0.53553  -0.50435  -0.49840
 Alpha  occ. eigenvalues --   -0.48992  -0.47486  -0.46344  -0.44797  -0.43404
 Alpha  occ. eigenvalues --   -0.40424  -0.39616  -0.37833  -0.36458  -0.34927
 Alpha  occ. eigenvalues --   -0.31637  -0.29844  -0.25468  -0.24156  -0.21222
 Alpha  occ. eigenvalues --   -0.20450  -0.18899
 Alpha virt. eigenvalues --   -0.12303  -0.11746  -0.09408  -0.08976  -0.06102
 Alpha virt. eigenvalues --   -0.05279  -0.01370  -0.01216   0.03613   0.05811
 Alpha virt. eigenvalues --    0.07310   0.09358   0.11103   0.12093   0.13680
 Alpha virt. eigenvalues --    0.15788   0.17223   0.19306   0.19962   0.22699
 Alpha virt. eigenvalues --    0.23957   0.27951   0.29190   0.30729   0.33179
 Alpha virt. eigenvalues --    0.34473   0.36183   0.36952   0.37673   0.39435
 Alpha virt. eigenvalues --    0.41577   0.42711   0.43164   0.43631   0.44679
 Alpha virt. eigenvalues --    0.45130   0.45834   0.48068   0.48809   0.49682
 Alpha virt. eigenvalues --    0.50287   0.51272   0.52092   0.52963   0.54556
 Alpha virt. eigenvalues --    0.55630   0.56927   0.57286   0.58883   0.60357
 Alpha virt. eigenvalues --    0.61563   0.61920   0.62386   0.63718   0.64565
 Alpha virt. eigenvalues --    0.66203   0.66784   0.67405   0.69162   0.70398
 Alpha virt. eigenvalues --    0.70913   0.71774   0.72779   0.73639   0.75281
 Alpha virt. eigenvalues --    0.76833   0.78292   0.78329   0.79602   0.80079
 Alpha virt. eigenvalues --    0.82250   0.83123   0.83745   0.84444   0.86640
 Alpha virt. eigenvalues --    0.88165   0.89212   0.90851   0.92986   0.93246
 Alpha virt. eigenvalues --    0.94938   0.96429   0.98325   0.99078   1.00069
 Alpha virt. eigenvalues --    1.01275   1.03485   1.05072   1.06977   1.08610
 Alpha virt. eigenvalues --    1.09007   1.10963   1.12128   1.13472   1.15882
 Alpha virt. eigenvalues --    1.17256   1.19146   1.19537   1.21256   1.24133
 Alpha virt. eigenvalues --    1.26906   1.27703   1.29980   1.30366   1.32331
 Alpha virt. eigenvalues --    1.34454   1.35194   1.37142   1.38577   1.39574
 Alpha virt. eigenvalues --    1.40288   1.43261   1.44406   1.45071   1.45920
 Alpha virt. eigenvalues --    1.46173   1.47798   1.48156   1.48925   1.49376
 Alpha virt. eigenvalues --    1.51577   1.52646   1.53551   1.54923   1.55270
 Alpha virt. eigenvalues --    1.58503   1.58790   1.59342   1.63005   1.64111
 Alpha virt. eigenvalues --    1.64680   1.66530   1.69007   1.69407   1.70822
 Alpha virt. eigenvalues --    1.72327   1.73093   1.74209   1.75313   1.80577
 Alpha virt. eigenvalues --    1.80814   1.82724   1.84966   1.87102   1.87548
 Alpha virt. eigenvalues --    1.89015   1.90105   1.92632   1.96775   1.98486
 Alpha virt. eigenvalues --    2.03141   2.04198   2.05985   2.08353   2.13010
 Alpha virt. eigenvalues --    2.14345   2.15468   2.18277   2.22278   2.27403
 Alpha virt. eigenvalues --    2.30798   2.34204   2.35258   2.39614   2.40907
 Alpha virt. eigenvalues --    2.42022   2.46169   2.47936   2.48347   2.53438
 Alpha virt. eigenvalues --    2.55999   2.58327   2.59626   2.61778   2.64542
 Alpha virt. eigenvalues --    2.66490   2.67596   2.69660   2.70067   2.72076
 Alpha virt. eigenvalues --    2.75169   2.77873   2.79203   2.80802   2.81923
 Alpha virt. eigenvalues --    2.83858   2.86397   2.87563   2.89331   2.91411
 Alpha virt. eigenvalues --    2.93299   2.94975   2.95811   2.97206   2.99184
 Alpha virt. eigenvalues --    3.01263   3.02067   3.03632   3.05482   3.07524
 Alpha virt. eigenvalues --    3.08993   3.10514   3.14042   3.16041   3.16421
 Alpha virt. eigenvalues --    3.19576   3.20230   3.21351   3.21744   3.23083
 Alpha virt. eigenvalues --    3.24859   3.27669   3.28729   3.30596   3.32955
 Alpha virt. eigenvalues --    3.34280   3.36072   3.37967   3.40052   3.40862
 Alpha virt. eigenvalues --    3.41778   3.42006   3.45905   3.46809   3.48484
 Alpha virt. eigenvalues --    3.50203   3.50419   3.53309   3.54939   3.56898
 Alpha virt. eigenvalues --    3.59172   3.60677   3.63275   3.64943   3.67449
 Alpha virt. eigenvalues --    3.70233   3.71251   3.72680   3.76180   3.80461
 Alpha virt. eigenvalues --    3.82068   3.83118   3.84008   3.90436   3.92155
 Alpha virt. eigenvalues --    3.94401   3.95765   3.95994   3.97426   4.00010
 Alpha virt. eigenvalues --    4.02372   4.04872   4.07482   4.08739   4.09804
 Alpha virt. eigenvalues --    4.10878   4.14175   4.15278   4.16710   4.19851
 Alpha virt. eigenvalues --    4.20840   4.22813   4.22904   4.26132   4.26977
 Alpha virt. eigenvalues --    4.28861   4.31383   4.32729   4.35330   4.36804
 Alpha virt. eigenvalues --    4.37896   4.39402   4.40682   4.42640   4.43099
 Alpha virt. eigenvalues --    4.46479   4.47213   4.47982   4.49285   4.50126
 Alpha virt. eigenvalues --    4.50421   4.51839   4.53121   4.54315   4.54696
 Alpha virt. eigenvalues --    4.58661   4.60736   4.61475   4.62188   4.63457
 Alpha virt. eigenvalues --    4.64555   4.66586   4.68401   4.69698   4.70772
 Alpha virt. eigenvalues --    4.72400   4.72641   4.74076   4.77260   4.77848
 Alpha virt. eigenvalues --    4.79186   4.80059   4.82724   4.84985   4.86408
 Alpha virt. eigenvalues --    4.88404   4.89488   4.91438   4.92782   4.94911
 Alpha virt. eigenvalues --    4.97867   4.99567   5.02148   5.06068   5.06822
 Alpha virt. eigenvalues --    5.08200   5.09214   5.10809   5.12387   5.15766
 Alpha virt. eigenvalues --    5.18751   5.19896   5.21027   5.22596   5.24384
 Alpha virt. eigenvalues --    5.24748   5.27329   5.31329   5.31943   5.34765
 Alpha virt. eigenvalues --    5.39007   5.40578   5.42683   5.44901   5.45850
 Alpha virt. eigenvalues --    5.49248   5.51100   5.55459   5.58196   5.64771
 Alpha virt. eigenvalues --    5.68084   5.74657   5.79686   5.80315   5.89752
 Alpha virt. eigenvalues --    6.00017   6.04582   6.16253   6.22534   6.31252
 Alpha virt. eigenvalues --    6.42240   6.67154   6.86664   7.11636  10.29266
 Alpha virt. eigenvalues --   10.64690  10.84275  11.06316  11.24222  11.28152
 Alpha virt. eigenvalues --   11.28916  11.54433  11.78465  12.00367  12.24371
 Alpha virt. eigenvalues --   12.49814  12.79288  13.14327  19.25979  22.50643
  Beta  occ. eigenvalues --  -19.17520 -14.43289 -14.42152 -10.31526 -10.30400
  Beta  occ. eigenvalues --  -10.29879 -10.28851 -10.28738 -10.27985 -10.26836
  Beta  occ. eigenvalues --  -10.26286 -10.24361 -10.23758 -10.22888  -1.15418
  Beta  occ. eigenvalues --   -1.09843  -1.01232  -0.98551  -0.86776  -0.82564
  Beta  occ. eigenvalues --   -0.76924  -0.71051  -0.69875  -0.65265  -0.61802
  Beta  occ. eigenvalues --   -0.59654  -0.55527  -0.52877  -0.50479  -0.49181
  Beta  occ. eigenvalues --   -0.47854  -0.46892  -0.45465  -0.43697  -0.42763
  Beta  occ. eigenvalues --   -0.39903  -0.38781  -0.36796  -0.34682  -0.33705
  Beta  occ. eigenvalues --   -0.31203  -0.28813  -0.26280  -0.23752  -0.20226
  Beta  occ. eigenvalues --   -0.19054
  Beta virt. eigenvalues --   -0.12539  -0.10752  -0.09999  -0.08974  -0.08071
  Beta virt. eigenvalues --   -0.06355  -0.05215  -0.00910  -0.00448   0.03717
  Beta virt. eigenvalues --    0.06075   0.07963   0.09291   0.11936   0.13228
  Beta virt. eigenvalues --    0.13567   0.16343   0.17544   0.19708   0.19835
  Beta virt. eigenvalues --    0.23134   0.24214   0.28166   0.29377   0.30706
  Beta virt. eigenvalues --    0.33470   0.34557   0.36502   0.37303   0.38363
  Beta virt. eigenvalues --    0.39349   0.41714   0.43229   0.43706   0.43831
  Beta virt. eigenvalues --    0.44855   0.45261   0.46038   0.48211   0.49280
  Beta virt. eigenvalues --    0.49828   0.50621   0.51517   0.52172   0.53015
  Beta virt. eigenvalues --    0.54556   0.56016   0.57358   0.57501   0.59184
  Beta virt. eigenvalues --    0.60570   0.61769   0.62384   0.62862   0.63712
  Beta virt. eigenvalues --    0.64628   0.66148   0.67146   0.67579   0.69158
  Beta virt. eigenvalues --    0.70658   0.71459   0.71895   0.73184   0.73966
  Beta virt. eigenvalues --    0.75473   0.77092   0.78250   0.78594   0.79744
  Beta virt. eigenvalues --    0.80354   0.82559   0.83226   0.84050   0.84919
  Beta virt. eigenvalues --    0.87096   0.88412   0.89317   0.91012   0.93351
  Beta virt. eigenvalues --    0.93823   0.95150   0.96862   0.98354   0.99487
  Beta virt. eigenvalues --    1.00365   1.01578   1.03805   1.05123   1.07183
  Beta virt. eigenvalues --    1.08804   1.09219   1.11018   1.11903   1.13906
  Beta virt. eigenvalues --    1.16131   1.17670   1.19359   1.20073   1.21411
  Beta virt. eigenvalues --    1.24496   1.27084   1.28192   1.30252   1.30503
  Beta virt. eigenvalues --    1.32495   1.34995   1.35331   1.37551   1.38546
  Beta virt. eigenvalues --    1.39755   1.40776   1.43475   1.44630   1.45302
  Beta virt. eigenvalues --    1.46311   1.46663   1.48019   1.48491   1.49349
  Beta virt. eigenvalues --    1.50012   1.52015   1.52995   1.53832   1.55278
  Beta virt. eigenvalues --    1.55709   1.58897   1.59288   1.59681   1.63436
  Beta virt. eigenvalues --    1.64461   1.65163   1.66823   1.69386   1.69870
  Beta virt. eigenvalues --    1.71393   1.72673   1.73559   1.74678   1.75867
  Beta virt. eigenvalues --    1.80920   1.81237   1.82963   1.85330   1.87446
  Beta virt. eigenvalues --    1.87634   1.89239   1.90420   1.92717   1.97266
  Beta virt. eigenvalues --    1.98828   2.03260   2.04345   2.06484   2.08959
  Beta virt. eigenvalues --    2.13401   2.14099   2.15597   2.18486   2.22934
  Beta virt. eigenvalues --    2.27053   2.31561   2.34641   2.35538   2.39490
  Beta virt. eigenvalues --    2.40751   2.42408   2.46352   2.48020   2.48443
  Beta virt. eigenvalues --    2.54070   2.56140   2.58305   2.59724   2.62119
  Beta virt. eigenvalues --    2.64535   2.66757   2.67849   2.70134   2.70499
  Beta virt. eigenvalues --    2.72355   2.75245   2.78247   2.79833   2.81105
  Beta virt. eigenvalues --    2.82379   2.84311   2.86751   2.87858   2.89730
  Beta virt. eigenvalues --    2.91820   2.93448   2.95219   2.95987   2.97385
  Beta virt. eigenvalues --    2.99420   3.01536   3.02590   3.03951   3.05939
  Beta virt. eigenvalues --    3.07549   3.09489   3.10643   3.14142   3.16319
  Beta virt. eigenvalues --    3.16743   3.19703   3.20178   3.21580   3.22159
  Beta virt. eigenvalues --    3.23373   3.24974   3.27842   3.29195   3.30889
  Beta virt. eigenvalues --    3.33175   3.34624   3.36178   3.38380   3.40377
  Beta virt. eigenvalues --    3.41190   3.42100   3.42496   3.46533   3.47141
  Beta virt. eigenvalues --    3.48839   3.50344   3.50856   3.53469   3.55415
  Beta virt. eigenvalues --    3.57183   3.59391   3.61249   3.63764   3.65590
  Beta virt. eigenvalues --    3.68107   3.70310   3.71393   3.73133   3.76388
  Beta virt. eigenvalues --    3.81096   3.82383   3.83721   3.84551   3.91129
  Beta virt. eigenvalues --    3.92654   3.94840   3.95934   3.96309   3.97842
  Beta virt. eigenvalues --    4.00331   4.02711   4.05470   4.07798   4.09010
  Beta virt. eigenvalues --    4.09706   4.11144   4.14363   4.15696   4.17511
  Beta virt. eigenvalues --    4.20346   4.21530   4.23259   4.23626   4.26856
  Beta virt. eigenvalues --    4.27337   4.29360   4.31901   4.33152   4.35535
  Beta virt. eigenvalues --    4.37086   4.38647   4.40074   4.41435   4.43075
  Beta virt. eigenvalues --    4.43890   4.47127   4.47607   4.48267   4.49069
  Beta virt. eigenvalues --    4.50592   4.51072   4.52219   4.53650   4.54634
  Beta virt. eigenvalues --    4.55378   4.58719   4.61136   4.61610   4.62768
  Beta virt. eigenvalues --    4.63911   4.65367   4.67179   4.68716   4.70019
  Beta virt. eigenvalues --    4.71437   4.72782   4.73169   4.74327   4.77545
  Beta virt. eigenvalues --    4.78311   4.79350   4.80369   4.83045   4.85445
  Beta virt. eigenvalues --    4.86919   4.89095   4.90180   4.91805   4.93161
  Beta virt. eigenvalues --    4.95598   4.98438   5.00011   5.02718   5.06960
  Beta virt. eigenvalues --    5.07538   5.08186   5.09643   5.11285   5.13143
  Beta virt. eigenvalues --    5.15951   5.19180   5.20346   5.21486   5.23121
  Beta virt. eigenvalues --    5.24600   5.25571   5.27704   5.31901   5.32495
  Beta virt. eigenvalues --    5.35076   5.39535   5.41060   5.43147   5.45362
  Beta virt. eigenvalues --    5.46238   5.49539   5.51808   5.55696   5.58516
  Beta virt. eigenvalues --    5.65375   5.68459   5.74834   5.80024   5.80801
  Beta virt. eigenvalues --    5.90236   6.00596   6.04978   6.16604   6.23338
  Beta virt. eigenvalues --    6.31762   6.42984   6.67446   6.87531   7.11884
  Beta virt. eigenvalues --   10.29653  10.64870  10.84525  11.06807  11.24346
  Beta virt. eigenvalues --   11.28234  11.28841  11.54121  11.79374  12.00835
  Beta virt. eigenvalues --   12.24872  12.50036  12.79472  13.14756  19.26065
  Beta virt. eigenvalues --   22.50698
          Condensed to atoms (all electrons):
               1          2          3          4          5          6
     1  O    7.723704   0.603905  -0.006224  -0.065317   0.006772   0.001397
     2  C    0.603905   5.073225   0.044871   0.146587   0.000978  -0.007143
     3  C   -0.006224   0.044871   5.995804   0.491615  -0.142710   0.008205
     4  C   -0.065317   0.146587   0.491615   4.239050   0.335465  -0.139890
     5  C    0.006772   0.000978  -0.142710   0.335465   5.354973   0.346070
     6  C    0.001397  -0.007143   0.008205  -0.139890   0.346070   5.485393
     7  C    0.000098   0.002822   0.002521  -0.001448  -0.024507   0.502169
     8  N   -0.000003   0.000477   0.000169   0.000057   0.000164   0.015443
     9  C    0.000001  -0.000406   0.000078  -0.000271  -0.002853  -0.030625
    10  C   -0.000026  -0.000342  -0.000218   0.003035  -0.017746  -0.105233
    11  C   -0.014527   0.072659  -0.004039  -0.000620  -0.047922  -0.043881
    12  N    0.000023  -0.008007  -0.000078  -0.000289   0.001750   0.012389
    13  C    0.000047  -0.001036   0.000114   0.000147   0.000274  -0.000138
    14  C   -0.041035  -0.017962  -0.171863   0.489369   0.385072  -0.066436
    15  H    0.000505  -0.017349   0.010666  -0.019174   0.053833   0.112545
    16  H   -0.000000   0.000001   0.000000  -0.000000  -0.000035  -0.000609
    17  H    0.000010  -0.001880   0.000019   0.000060  -0.000174  -0.001414
    18  H   -0.000001   0.000487  -0.000007   0.000002   0.000023   0.000332
    19  H    0.022022  -0.001251  -0.004627  -0.039770  -0.012745  -0.002848
               7          8          9         10         11         12
     1  O    0.000098  -0.000003   0.000001  -0.000026  -0.014527   0.000023
     2  C    0.002822   0.000477  -0.000406  -0.000342   0.072659  -0.008007
     3  C    0.002521   0.000169   0.000078  -0.000218  -0.004039  -0.000078
     4  C   -0.001448   0.000057  -0.000271   0.003035  -0.000620  -0.000289
     5  C   -0.024507   0.000164  -0.002853  -0.017746  -0.047922   0.001750
     6  C    0.502169   0.015443  -0.030625  -0.105233  -0.043881   0.012389
     7  C    5.072085   0.272899  -0.126072   0.376570  -0.041368   0.010953
     8  N    0.272899   6.398688   0.289923  -0.174078  -0.088401  -0.069709
     9  C   -0.126072   0.289923   5.433119   0.321443   0.017124   0.002359
    10  C    0.376570  -0.174078   0.321443   5.689281   0.012836  -0.030362
    11  C   -0.041368  -0.088401   0.017124   0.012836   5.628239   0.415519
    12  N    0.010953  -0.069709   0.002359  -0.030362   0.415519   6.823140
    13  C   -0.089669   0.390349  -0.033960  -0.060758   0.040659   0.051587
    14  C    0.001159  -0.000089  -0.000094   0.000603   0.010245  -0.000405
    15  H   -0.048325   0.013749   0.004281   0.021826   0.075771  -0.016346
    16  H   -0.001462  -0.013174   0.338104  -0.043424  -0.000260  -0.000707
    17  H   -0.001651   0.020376  -0.002424   0.013690  -0.047642  -0.012967
    18  H    0.004475  -0.049120   0.005636   0.002555   0.015307  -0.006331
    19  H   -0.000025   0.000001  -0.000005  -0.000199   0.000380  -0.000098
              13         14         15         16         17         18
     1  O    0.000047  -0.041035   0.000505  -0.000000   0.000010  -0.000001
     2  C   -0.001036  -0.017962  -0.017349   0.000001  -0.001880   0.000487
     3  C    0.000114  -0.171863   0.010666   0.000000   0.000019  -0.000007
     4  C    0.000147   0.489369  -0.019174  -0.000000   0.000060   0.000002
     5  C    0.000274   0.385072   0.053833  -0.000035  -0.000174   0.000023
     6  C   -0.000138  -0.066436   0.112545  -0.000609  -0.001414   0.000332
     7  C   -0.089669   0.001159  -0.048325  -0.001462  -0.001651   0.004475
     8  N    0.390349  -0.000089   0.013749  -0.013174   0.020376  -0.049120
     9  C   -0.033960  -0.000094   0.004281   0.338104  -0.002424   0.005636
    10  C   -0.060758   0.000603   0.021826  -0.043424   0.013690   0.002555
    11  C    0.040659   0.010245   0.075771  -0.000260  -0.047642   0.015307
    12  N    0.051587  -0.000405  -0.016346  -0.000707  -0.012967  -0.006331
    13  C    5.467563  -0.000007   0.005810   0.001847   0.211883   0.323481
    14  C   -0.000007   5.542293  -0.016071   0.000001   0.000031   0.000001
    15  H    0.005810  -0.016071   0.512398   0.000371   0.001508  -0.000242
    16  H    0.001847   0.000001   0.000371   0.541125   0.000167  -0.000338
    17  H    0.211883   0.000031   0.001508   0.000167   0.625162  -0.083800
    18  H    0.323481   0.000001  -0.000242  -0.000338  -0.083800   0.622382
    19  H    0.000008   0.290087   0.000915  -0.000000  -0.000010   0.000000
              19
     1  O    0.022022
     2  C   -0.001251
     3  C   -0.004627
     4  C   -0.039770
     5  C   -0.012745
     6  C   -0.002848
     7  C   -0.000025
     8  N    0.000001
     9  C   -0.000005
    10  C   -0.000199
    11  C    0.000380
    12  N   -0.000098
    13  C    0.000008
    14  C    0.290087
    15  H    0.000915
    16  H   -0.000000
    17  H   -0.000010
    18  H    0.000000
    19  H    0.537435
          Atomic-Atomic Spin Densities.
               1          2          3          4          5          6
     1  O    0.161351  -0.039606  -0.006212   0.003431   0.000387   0.000109
     2  C   -0.039606   0.515180  -0.052426  -0.034880   0.023447   0.002444
     3  C   -0.006212  -0.052426   0.109513   0.034810  -0.004183  -0.002228
     4  C    0.003431  -0.034880   0.034810   0.010624  -0.000843  -0.013536
     5  C    0.000387   0.023447  -0.004183  -0.000843   0.211973  -0.032234
     6  C    0.000109   0.002444  -0.002228  -0.013536  -0.032234   0.081388
     7  C   -0.000025   0.006285  -0.000526  -0.000584   0.001411  -0.032083
     8  N    0.000000   0.000176  -0.000036  -0.000016   0.000450   0.003532
     9  C    0.000000  -0.000303   0.000022   0.000139   0.000916   0.011150
    10  C    0.000005   0.002843  -0.000089  -0.001211   0.005861  -0.017429
    11  C    0.001482  -0.102862   0.006626   0.009254  -0.018094  -0.002095
    12  N   -0.000074   0.005806  -0.000106  -0.000282   0.000789   0.000124
    13  C   -0.000001   0.000159   0.000006   0.000030   0.000216   0.001577
    14  C   -0.001972  -0.006278   0.003149  -0.013187  -0.039170   0.001279
    15  H   -0.000042  -0.008553  -0.000263   0.007599   0.015206  -0.000003
    16  H   -0.000000   0.000004  -0.000000  -0.000001   0.000031   0.000751
    17  H    0.000033  -0.001093   0.000013   0.000019   0.000025   0.000270
    18  H   -0.000002   0.000244  -0.000004  -0.000004  -0.000002   0.000023
    19  H   -0.004664   0.000169  -0.002762  -0.009500  -0.001830  -0.001246
               7          8          9         10         11         12
     1  O   -0.000025   0.000000   0.000000   0.000005   0.001482  -0.000074
     2  C    0.006285   0.000176  -0.000303   0.002843  -0.102862   0.005806
     3  C   -0.000526  -0.000036   0.000022  -0.000089   0.006626  -0.000106
     4  C   -0.000584  -0.000016   0.000139  -0.001211   0.009254  -0.000282
     5  C    0.001411   0.000450   0.000916   0.005861  -0.018094   0.000789
     6  C   -0.032083   0.003532   0.011150  -0.017429  -0.002095   0.000124
     7  C    0.057913   0.025640   0.068623  -0.012808  -0.066163   0.007787
     8  N    0.025640  -0.005295  -0.000663   0.009002   0.006990   0.006250
     9  C    0.068623  -0.000663  -0.322409  -0.016730   0.018598  -0.003246
    10  C   -0.012808   0.009002  -0.016730   0.393418  -0.094115  -0.000792
    11  C   -0.066163   0.006990   0.018598  -0.094115   0.419368  -0.073140
    12  N    0.007787   0.006250  -0.003246  -0.000792  -0.073140   0.076385
    13  C    0.000639  -0.005609  -0.003246  -0.010738   0.062616   0.003499
    14  C   -0.000155   0.000004  -0.000038   0.000257   0.000180  -0.000008
    15  H    0.001289  -0.001793  -0.001402  -0.011175   0.013053  -0.002079
    16  H    0.011025  -0.000778  -0.007037   0.002672  -0.000262   0.000103
    17  H    0.001081  -0.008915   0.001271  -0.004739   0.040475   0.025797
    18  H   -0.000625   0.004892  -0.001236   0.000032  -0.007574  -0.001631
    19  H   -0.000006  -0.000000   0.000002  -0.000192   0.000101   0.000054
              13         14         15         16         17         18
     1  O   -0.000001  -0.001972  -0.000042  -0.000000   0.000033  -0.000002
     2  C    0.000159  -0.006278  -0.008553   0.000004  -0.001093   0.000244
     3  C    0.000006   0.003149  -0.000263  -0.000000   0.000013  -0.000004
     4  C    0.000030  -0.013187   0.007599  -0.000001   0.000019  -0.000004
     5  C    0.000216  -0.039170   0.015206   0.000031   0.000025  -0.000002
     6  C    0.001577   0.001279  -0.000003   0.000751   0.000270   0.000023
     7  C    0.000639  -0.000155   0.001289   0.011025   0.001081  -0.000625
     8  N   -0.005609   0.000004  -0.001793  -0.000778  -0.008915   0.004892
     9  C   -0.003246  -0.000038  -0.001402  -0.007037   0.001271  -0.001236
    10  C   -0.010738   0.000257  -0.011175   0.002672  -0.004739   0.000032
    11  C    0.062616   0.000180   0.013053  -0.000262   0.040475  -0.007574
    12  N    0.003499  -0.000008  -0.002079   0.000103   0.025797  -0.001631
    13  C   -0.287945   0.000004  -0.001488   0.000855  -0.012252  -0.004602
    14  C    0.000004   0.302192  -0.000519  -0.000001  -0.000004   0.000000
    15  H   -0.001488  -0.000519  -0.034207  -0.000111  -0.000444   0.000038
    16  H    0.000855  -0.000001  -0.000111  -0.002236  -0.000089   0.000126
    17  H   -0.012252  -0.000004  -0.000444  -0.000089  -0.098306   0.011929
    18  H   -0.004602   0.000000   0.000038   0.000126   0.011929   0.000112
    19  H    0.000006  -0.013940   0.000956  -0.000000  -0.000000   0.000000
              19
     1  O   -0.004664
     2  C    0.000169
     3  C   -0.002762
     4  C   -0.009500
     5  C   -0.001830
     6  C   -0.001246
     7  C   -0.000006
     8  N   -0.000000
     9  C    0.000002
    10  C   -0.000192
    11  C    0.000101
    12  N    0.000054
    13  C    0.000006
    14  C   -0.013940
    15  H    0.000956
    16  H   -0.000000
    17  H   -0.000000
    18  H    0.000000
    19  H    0.100455
 Mulliken charges and spin densities:
               1          2
     1  O   -0.231354   0.114200
     2  C    0.109364   0.310755
     3  C   -0.224297   0.085303
     4  C    0.561392  -0.008140
     5  C   -0.236683   0.164358
     6  C   -0.085728   0.001794
     7  C    0.088776   0.068717
     8  N   -0.007720   0.033830
     9  C   -0.215359  -0.255590
    10  C   -0.009453   0.244073
    11  C   -0.000079   0.214438
    12  N   -0.172422   0.045237
    13  C   -0.308202  -0.256272
    14  C   -0.404901   0.231793
    15  H    0.303329  -0.023936
    16  H    0.178391   0.005051
    17  H    0.279057  -0.044929
    18  H    0.165157   0.001716
    19  H    0.210731   0.067603
 Sum of Mulliken charges =  -0.00000   1.00000
 Mulliken charges and spin densities with hydrogens summed into heavy atoms:
               1          2
     1  O   -0.231354   0.114200
     2  C    0.109364   0.310755
     3  C   -0.224297   0.085303
     4  C    0.561392  -0.008140
     5  C   -0.236683   0.164358
     6  C    0.217601  -0.022142
     7  C    0.088776   0.068717
     8  N   -0.007720   0.033830
     9  C   -0.036968  -0.250539
    10  C   -0.009453   0.244073
    11  C   -0.000079   0.214438
    12  N   -0.172422   0.045237
    13  C    0.136012  -0.299485
    14  C   -0.194170   0.299395
 Electronic spatial extent (au):  <R**2>=           1990.2215
 Charge=             -0.0000 electrons
 Dipole moment (field-independent basis, Debye):
    X=             -4.4650    Y=              0.2735    Z=              0.1259  Tot=              4.4752
 Quadrupole moment (field-independent basis, Debye-Ang):
   XX=            -80.5690   YY=            -76.5255   ZZ=            -86.8938
   XY=             -0.1261   XZ=              5.5355   YZ=             -0.3768
 Traceless Quadrupole moment (field-independent basis, Debye-Ang):
   XX=              0.7604   YY=              4.8040   ZZ=             -5.5644
   XY=             -0.1261   XZ=              5.5355   YZ=             -0.3768
 Octapole moment (field-independent basis, Debye-Ang**2):
  XXX=            -38.5704  YYY=             20.4948  ZZZ=              0.1982  XYY=            -28.9017
  XXY=             -2.6983  XXZ=              3.2126  XZZ=             -3.8266  YZZ=              7.4455
  YYZ=             -5.1107  XYZ=              8.7837
 Hexadecapole moment (field-independent basis, Debye-Ang**3):
 XXXX=          -1857.1231 YYYY=           -593.0586 ZZZZ=           -345.9572 XXXY=             43.0173
 XXXZ=             39.8999 YYYX=              4.8947 YYYZ=             -1.8777 ZZZX=             20.8830
 ZZZY=             -0.2050 XXYY=           -376.2292 XXZZ=           -397.1676 YYZZ=           -160.7037
 XXYZ=              4.8802 YYXZ=              7.0842 ZZXY=             20.0126
 N-N= 8.160864590230D+02 E-N=-3.040189011344D+03  KE= 6.037050417483D+02
                          Isotropic Fermi Contact Couplings
        Atom                 a.u.       MegaHertz       Gauss      10(-4) cm-1
     1  O(17)              0.03084     -18.69269      -6.67002      -6.23521
     2  C(13)              0.43899     493.50306     176.09416     164.61490
     3  C(13)              0.02811      31.60233      11.27650      10.54140
     4  C(13)             -0.01697     -19.07962      -6.80808      -6.36428
     5  C(13)              0.22337     251.10609      89.60090      83.75998
     6  C(13)              0.12471     140.20147      50.02737      46.76618
     7  C(13)             -0.04826     -54.25741     -19.36039     -18.09832
     8  N(14)             -0.03751     -12.11956      -4.32456      -4.04265
     9  C(13)             -0.02265     -25.46197      -9.08546      -8.49320
    10  C(13)              0.25711     289.04261     103.13759      96.41424
    11  C(13)              0.31260     351.41982     125.39533     117.22103
    12  N(14)             -0.02325      -7.51367      -2.68107      -2.50629
    13  C(13)             -0.03035     -34.12428     -12.17639     -11.38264
    14  C(13)              0.25401     285.55328     101.89251      95.25032
    15  H(1)              -0.00469     -20.95560      -7.47748      -6.99004
    16  H(1)               0.00045       1.99355       0.71135       0.66498
    17  H(1)              -0.02554    -114.14688     -40.73044     -38.07530
    18  H(1)               0.00146       6.51650       2.32525       2.17367
    19  H(1)               0.03259     145.67436      51.98023      48.59174
 --------------------------------------------------------
       Center         ----  Spin Dipole Couplings  ----
                      3XX-RR        3YY-RR        3ZZ-RR
 --------------------------------------------------------
     1   Atom        0.360649      0.010374     -0.371023
     2   Atom        0.325937     -0.175401     -0.150536
     3   Atom        0.012778      0.039294     -0.052073
     4   Atom       -0.030660      0.037810     -0.007150
     5   Atom       -0.044305      0.174133     -0.129828
     6   Atom        0.222323     -0.195918     -0.026405
     7   Atom        0.009174     -0.008168     -0.001006
     8   Atom       -0.029341     -0.054588      0.083929
     9   Atom       -0.063506     -0.045044      0.108550
    10   Atom        0.040959     -0.152748      0.111789
    11   Atom       -0.135822      0.257292     -0.121470
    12   Atom       -0.186954      0.237924     -0.050969
    13   Atom       -0.233498      0.133431      0.100067
    14   Atom       -0.075815      0.095783     -0.019968
    15   Atom        0.008647      0.017581     -0.026227
    16   Atom        0.004173     -0.014416      0.010243
    17   Atom        0.013289     -0.007155     -0.006133
    18   Atom        0.004640     -0.000074     -0.004567
    19   Atom       -0.005760      0.007859     -0.002099
 --------------------------------------------------------
                        XY            XZ            YZ
 --------------------------------------------------------
     1   Atom       -0.437248     -0.108870      0.103168
     2   Atom       -0.068707      0.002099     -0.022387
     3   Atom       -0.137666      0.070878     -0.055234
     4   Atom       -0.020099      0.001371     -0.006450
     5   Atom       -0.072482     -0.043438      0.021649
     6   Atom       -0.219464     -0.142514      0.300576
     7   Atom        0.094709      0.003408      0.037924
     8   Atom       -0.014786      0.077846     -0.120184
     9   Atom        0.205038      0.228828     -0.125498
    10   Atom        0.018824      0.169813      0.046098
    11   Atom       -0.104291      0.063875      0.148264
    12   Atom       -0.014081      0.004518      0.108037
    13   Atom       -0.103629      0.152835      0.049669
    14   Atom       -0.008527     -0.001879     -0.152579
    15   Atom       -0.018034      0.003322     -0.012620
    16   Atom       -0.004182      0.003911     -0.004772
    17   Atom       -0.011319      0.008460     -0.023754
    18   Atom       -0.007148      0.000770      0.019700
    19   Atom        0.007004      0.007722      0.004201
 --------------------------------------------------------


 ---------------------------------------------------------------------------------
              Anisotropic Spin Dipole Couplings in Principal Axis System
 ---------------------------------------------------------------------------------

       Atom             a.u.   MegaHertz   Gauss  10(-4) cm-1        Axes

              Baa    -0.3972    28.738    10.254     9.586 -0.0061 -0.2516  0.9678
     1 O(17)  Bbb    -0.2803    20.281     7.237     6.765  0.5751  0.7909  0.2092
              Bcc     0.6774   -49.018   -17.491   -16.351  0.8181 -0.5579 -0.1398
 
              Baa    -0.1954   -26.216    -9.354    -8.745  0.1156  0.8908  0.4394
     2 C(13)  Bbb    -0.1399   -18.769    -6.697    -6.261 -0.0681 -0.4343  0.8982
              Bcc     0.3352    44.985    16.052    15.006  0.9910 -0.1338  0.0104
 
              Baa    -0.1184   -15.883    -5.667    -5.298  0.7606  0.5356 -0.3670
     3 C(13)  Bbb    -0.0777   -10.423    -3.719    -3.477  0.0711  0.4931  0.8671
              Bcc     0.1960    26.306     9.387     8.775 -0.6453  0.6856 -0.3370
 
              Baa    -0.0361    -4.848    -1.730    -1.617  0.9646  0.2633  0.0130
     4 C(13)  Bbb    -0.0080    -1.072    -0.383    -0.358 -0.0460  0.1195  0.9918
              Bcc     0.0441     5.920     2.113     1.975 -0.2596  0.9573 -0.1274
 
              Baa    -0.1483   -19.894    -7.099    -6.636  0.4026  0.0291  0.9149
     5 C(13)  Bbb    -0.0512    -6.864    -2.449    -2.290  0.8647  0.3157 -0.3906
              Bcc     0.1994    26.758     9.548     8.926 -0.3002  0.9484  0.1020
 
              Baa    -0.4375   -58.704   -20.947   -19.582  0.1553  0.8223 -0.5475
     6 C(13)  Bbb    -0.0253    -3.392    -1.210    -1.131  0.6695  0.3199  0.6704
              Bcc     0.4627    62.096    22.157    20.713  0.7264 -0.4706 -0.5008
 
              Baa    -0.1015   -13.615    -4.858    -4.541 -0.6238  0.7380 -0.2574
     7 C(13)  Bbb    -0.0020    -0.262    -0.093    -0.087 -0.3711  0.0102  0.9285
              Bcc     0.1034    13.877     4.952     4.629  0.6878  0.6748  0.2675
 
              Baa    -0.1322    -5.100    -1.820    -1.701 -0.2985  0.7845  0.5436
     8 N(14)  Bbb    -0.0481    -1.855    -0.662    -0.619  0.8922  0.4317 -0.1330
              Bcc     0.1804     6.956     2.482     2.320  0.3390 -0.4453  0.8287
 
              Baa    -0.3894   -52.251   -18.644   -17.429  0.6810 -0.5721 -0.4571
     9 C(13)  Bbb     0.1215    16.298     5.815     5.436  0.4264  0.8173 -0.3877
              Bcc     0.2679    35.953    12.829    11.993  0.5954  0.0691  0.8005
 
              Baa    -0.1615   -21.674    -7.734    -7.230  0.0982  0.9695 -0.2245
    10 C(13)  Bbb    -0.0939   -12.600    -4.496    -4.203  0.7762 -0.2158 -0.5924
              Bcc     0.2554    34.274    12.230    11.432  0.6228  0.1161  0.7737
 
              Baa    -0.2549   -34.200   -12.203   -11.408 -0.6543 -0.3302  0.6803
    11 C(13)  Bbb    -0.0673    -9.032    -3.223    -3.013  0.7359 -0.0711  0.6733
              Bcc     0.3222    43.232    15.426    14.421 -0.1740  0.9412  0.2895
 
              Baa    -0.1880    -7.251    -2.587    -2.419  0.9960  0.0516 -0.0735
    12 N(14)  Bbb    -0.0861    -3.323    -1.186    -1.108  0.0860 -0.3117  0.9463
              Bcc     0.2742    10.574     3.773     3.527 -0.0259  0.9488  0.3149
 
              Baa    -0.3218   -43.181   -15.408   -14.404  0.9022  0.2442 -0.3556
    13 C(13)  Bbb     0.1523    20.439     7.293     6.818  0.4266 -0.6273  0.6516
              Bcc     0.1695    22.742     8.115     7.586  0.0640  0.7395  0.6701
 
              Baa    -0.1261   -16.920    -6.038    -5.644  0.1264  0.5654  0.8151
    14 C(13)  Bbb    -0.0751   -10.082    -3.597    -3.363  0.9918 -0.0542 -0.1161
              Bcc     0.2012    27.002     9.635     9.007 -0.0215  0.8230 -0.5676
 
              Baa    -0.0297   -15.830    -5.649    -5.280  0.0457  0.2740  0.9606
    15 H(1)   Bbb    -0.0044    -2.365    -0.844    -0.789  0.8106  0.5518 -0.1959
              Bcc     0.0341    18.194     6.492     6.069 -0.5838  0.7877 -0.1969
 
              Baa    -0.0159    -8.486    -3.028    -2.831  0.1732  0.9731  0.1517
    16 H(1)   Bbb     0.0024     1.276     0.455     0.426  0.8721 -0.0799 -0.4828
              Bcc     0.0135     7.210     2.573     2.405  0.4578 -0.2159  0.8625
 
              Baa    -0.0305   -16.286    -5.811    -5.432  0.0546  0.7247  0.6869
    17 H(1)   Bbb     0.0012     0.636     0.227     0.212  0.7509  0.4237 -0.5067
              Bcc     0.0293    15.649     5.584     5.220  0.6582 -0.5434  0.5210
 
              Baa    -0.0232   -12.374    -4.415    -4.127 -0.1920 -0.6702  0.7169
    18 H(1)   Bbb     0.0040     2.138     0.763     0.713  0.9249  0.1208  0.3606
              Bcc     0.0192    10.236     3.652     3.414 -0.3283  0.7322  0.5967
 
              Baa    -0.0124    -6.598    -2.354    -2.201  0.8197 -0.1703 -0.5469
    19 H(1)   Bbb    -0.0016    -0.879    -0.314    -0.293  0.3616 -0.5866  0.7247
              Bcc     0.0140     7.477     2.668     2.494  0.4442  0.7918  0.4193
 

 ---------------------------------------------------------------------------------

 PrsmSu:  requested number of processors reduced to:  13 ShMem   1 Linda.
 Calling FoFJK, ICntrl=      2127 FMM=F ISym2X=0 I1Cent= 0 IOpClX= 1 NMat=1 NMatS=1 NMatT=0.
 ***** Axes restored to original set *****
 -------------------------------------------------------------------
 Center     Atomic                   Forces (Hartrees/Bohr)
 Number     Number              X              Y              Z
 -------------------------------------------------------------------
      1        8           0.031436123    0.009738247   -0.030492327
      2        6          -0.025132154    0.017085681   -0.083612102
      3        6          -0.141274648    0.221689780   -0.136596975
      4        6           0.034199002   -0.229555080    0.115092387
      5        6           0.055476952    0.011605023    0.027935374
      6        6          -0.072823648   -0.028869230    0.033559661
      7        6           0.010645304    0.006230503    0.026452910
      8        7           0.016017222    0.131505062   -0.117037953
      9        6           0.036641922   -0.040614735    0.156790073
     10        6           0.040359421   -0.097459927    0.084099679
     11        6          -0.020658824   -0.016310073   -0.026089519
     12        7           0.030400240   -0.016584143   -0.022100047
     13        6          -0.050466871    0.069212706    0.013461857
     14        6           0.005928825    0.001608412   -0.024013746
     15        1           0.013046936    0.008465080    0.006633462
     16        1           0.014621070   -0.009419220   -0.045794139
     17        1           0.037289639   -0.047566600   -0.037995782
     18        1          -0.023992758    0.016265231   -0.006416726
     19        1           0.008286248   -0.007026717    0.066123913
 -------------------------------------------------------------------
 Cartesian Forces:  Max     0.229555080 RMS     0.069872245

 GradGradGradGradGradGradGradGradGradGradGradGradGradGradGradGradGradGrad
 Berny optimization.
 FormGI is forming the generalized inverse of G from B-inverse, IUseBI=4.
 Internal  Forces:  Max     0.289971091 RMS     0.055273258
 Search for a local minimum.
 Step number   1 out of a maximum of   96
 All quantities printed in internal units (Hartrees-Bohrs-Radians)
 Mixed Optimization -- RFO/linear search
 Second derivative matrix not updated -- first step.
 ITU=  0
     Eigenvalues ---    0.00230   0.00230   0.00376   0.00396   0.00652
     Eigenvalues ---    0.01462   0.01795   0.02107   0.02460   0.03139
     Eigenvalues ---    0.03360   0.05459   0.07546   0.07842   0.08722
     Eigenvalues ---    0.09040   0.12473   0.13686   0.14193   0.14728
     Eigenvalues ---    0.15100   0.15480   0.15634   0.17180   0.18264
     Eigenvalues ---    0.20218   0.20288   0.20519   0.20927   0.21486
     Eigenvalues ---    0.22066   0.22317   0.22341   0.24739   0.25000
     Eigenvalues ---    0.25217   0.26134   0.27937   0.29609   0.31789
     Eigenvalues ---    0.33242   0.33952   0.37609   0.39543   0.43381
     Eigenvalues ---    0.44522   0.50605   0.54857   0.74126   0.98768
     Eigenvalues ---    1.18949
 RFO step:  Lambda=-3.45931045D-01 EMin= 2.30000000D-03
 Linear search not attempted -- first point.
 Maximum step size (   0.300) exceeded in Quadratic search.
    -- Step size scaled by   0.452
 Iteration  1 RMS(Cart)=  0.12354811 RMS(Int)=  0.00455223
 Iteration  2 RMS(Cart)=  0.00748881 RMS(Int)=  0.00064588
 Iteration  3 RMS(Cart)=  0.00003263 RMS(Int)=  0.00064545
 Iteration  4 RMS(Cart)=  0.00000001 RMS(Int)=  0.00064545
 Variable       Old X    -DE/DX   Delta X   Delta X   Delta X     New X
                                 (Linear)    (Quad)   (Total)
    R1        2.29136   0.00631   0.00000   0.00214   0.00214   2.29350
    R2        3.24134   0.01518   0.00000  -0.00554  -0.00630   3.23504
    R3        3.05252   0.08901   0.00000   0.08245   0.08303   3.13555
    R4        2.20354   0.28997   0.00000   0.08547   0.08575   2.28929
    R5        2.63029   0.15626   0.00000   0.08831   0.08871   2.71900
    R6        2.66387   0.01571   0.00000   0.01103   0.01038   2.67425
    R7        2.88751  -0.01095   0.00000  -0.00771  -0.00771   2.87980
    R8        2.91677  -0.02832   0.00000  -0.02477  -0.02455   2.89222
    R9        2.59260   0.07585   0.00000   0.04021   0.04021   2.63281
   R10        2.35784  -0.00416   0.00000  -0.00335  -0.00335   2.35449
   R11        2.65989   0.02372   0.00000   0.01385   0.01399   2.67387
   R12        3.28856   0.03262   0.00000   0.01706   0.01621   3.30477
   R13        2.58805   0.05338   0.00000   0.03356   0.03334   2.62140
   R14        2.48449   0.12315   0.00000   0.06213   0.06275   2.54724
   R15        3.28711   0.08447   0.00000   0.07249   0.07363   3.36074
   R16        2.92276   0.04950   0.00000   0.03576   0.03576   2.95852
   R17        2.69105  -0.01397   0.00000  -0.00883  -0.00973   2.68132
   R18        2.23110  -0.04633   0.00000  -0.03446  -0.03446   2.19664
   R19        2.41248   0.01413   0.00000   0.00587   0.00587   2.41835
   R20        3.10854   0.03483   0.00000   0.02833   0.02833   3.13688
   R21        2.11232   0.06587   0.00000   0.04482   0.04482   2.15714
   R22        2.07411   0.01061   0.00000   0.00699   0.00699   2.08111
   R23        2.33263  -0.05899   0.00000  -0.04682  -0.04682   2.28581
    A1        1.67157   0.03456   0.00000   0.03244   0.03230   1.70387
    A2        1.80218   0.05463   0.00000   0.04196   0.04183   1.84400
    A3        2.07718   0.05451   0.00000   0.03118   0.03189   2.10907
    A4        1.87789   0.06633   0.00000   0.03333   0.03341   1.91129
    A5        2.34492   0.03148   0.00000   0.02385   0.02270   2.36762
    A6        2.72008   0.03351   0.00000   0.02071   0.02009   2.74017
    A7        1.64732   0.10698   0.00000   0.08493   0.08461   1.73193
    A8        2.34702   0.07193   0.00000   0.05389   0.05254   2.39956
    A9        2.62033   0.03234   0.00000   0.02619   0.02624   2.64657
   A10        1.00657   0.02934   0.00000   0.02559   0.02573   1.03230
   A11        1.76631  -0.00821   0.00000  -0.00939  -0.00939   1.75691
   A12        2.55384  -0.04033   0.00000  -0.02241  -0.02307   2.53077
   A13        2.61475   0.01194   0.00000   0.01963   0.02009   2.63483
   A14        1.72711   0.02415   0.00000   0.02267   0.02373   1.75084
   A15        2.13246   0.05927   0.00000   0.03908   0.03822   2.17068
   A16        1.85868   0.06653   0.00000   0.05483   0.05404   1.91272
   A17        1.51237   0.09183   0.00000   0.07691   0.07640   1.58876
   A18        1.84399  -0.00016   0.00000   0.00692   0.00700   1.85098
   A19        2.22565   0.00872   0.00000   0.00353   0.00327   2.22892
   A20        2.22146  -0.01601   0.00000  -0.01569  -0.01578   2.20568
   A21        1.48001   0.05659   0.00000   0.04289   0.04289   1.52290
   A22        1.91221   0.10043   0.00000   0.08287   0.08278   1.99499
   A23        2.84779   0.06275   0.00000   0.05347   0.05342   2.90121
   A24        1.92751  -0.05363   0.00000  -0.04480  -0.04458   1.88293
   A25        0.96863  -0.04393   0.00000  -0.03469  -0.03485   0.93378
   A26        2.36985  -0.03931   0.00000  -0.03124  -0.03130   2.33855
   A27        1.42826   0.00596   0.00000   0.00441   0.00458   1.43285
   A28        1.72344   0.01844   0.00000   0.02872   0.02889   1.75232
   A29        2.49949   0.04497   0.00000   0.02978   0.02839   2.52788
    D1        1.80848   0.02825   0.00000   0.02285   0.02321   1.83169
    D2        2.51704  -0.02175   0.00000  -0.01486  -0.01440   2.50264
    D3        1.24628   0.00125   0.00000   0.00529   0.00447   1.25074
    D4        0.76677  -0.02613   0.00000  -0.01440  -0.01252   0.75425
    D5       -0.91053   0.03170   0.00000   0.01796   0.01774  -0.89279
    D6       -0.63118   0.04319   0.00000   0.04064   0.03864  -0.59253
    D7        0.94789  -0.01349   0.00000  -0.00659  -0.00629   0.94160
    D8       -2.47943  -0.01469   0.00000  -0.01303  -0.01430  -2.49373
    D9       -1.60366  -0.03122   0.00000  -0.02964  -0.03060  -1.63425
   D10       -1.66701   0.04284   0.00000   0.04463   0.04559  -1.62142
   D11       -0.79124   0.02631   0.00000   0.02802   0.02929  -0.76194
   D12       -0.10562   0.01727   0.00000   0.01646   0.01705  -0.08857
   D13        1.90927   0.04603   0.00000   0.04655   0.04606   1.95533
   D14        0.15966   0.00301   0.00000   0.00478   0.00454   0.16420
   D15        0.49617  -0.02554   0.00000  -0.02713  -0.02679   0.46938
   D16        1.18632   0.04325   0.00000   0.04612   0.04589   1.23221
   D17       -0.56330   0.00022   0.00000   0.00435   0.00437  -0.55892
   D18       -0.22678  -0.02832   0.00000  -0.02756  -0.02696  -0.25374
   D19       -0.61620   0.00233   0.00000   0.00176   0.00214  -0.61406
   D20       -1.77523  -0.00720   0.00000  -0.00972  -0.00949  -1.78472
   D21        2.76550  -0.03648   0.00000  -0.03915  -0.03927   2.72622
   D22        1.89574  -0.00405   0.00000   0.01245   0.01247   1.90822
   D23       -0.36815  -0.03195   0.00000  -0.03383  -0.03427  -0.40242
   D24        0.07977  -0.02631   0.00000  -0.02855  -0.02880   0.05097
   D25        2.43751  -0.02546   0.00000  -0.02676  -0.02700   2.41051
   D26        1.16213  -0.01037   0.00000  -0.00772  -0.00678   1.15536
   D27        1.61005  -0.00473   0.00000  -0.00245  -0.00131   1.60874
   D28       -2.31540  -0.00388   0.00000  -0.00066   0.00049  -2.31490
   D29        0.28589   0.01367   0.00000   0.00778   0.00687   0.29276
   D30        0.73380   0.01931   0.00000   0.01305   0.01234   0.74614
   D31        3.09154   0.02015   0.00000   0.01484   0.01414   3.10568
   D32        0.93365   0.03491   0.00000   0.03910   0.03943   0.97308
   D33       -2.05516   0.00944   0.00000   0.01724   0.01673  -2.03843
   D34       -1.74906   0.01565   0.00000   0.02149   0.02167  -1.72739
         Item               Value     Threshold  Converged?
 Maximum Force            0.289971     0.000450     NO 
 RMS     Force            0.055273     0.000300     NO 
 Maximum Displacement     0.359090     0.001800     NO 
 RMS     Displacement     0.128098     0.001200     NO 
 Predicted change in Energy=-1.398594D-01
 GradGradGradGradGradGradGradGradGradGradGradGradGradGradGradGradGradGrad

                          Input orientation:                          
 ---------------------------------------------------------------------
 Center     Atomic      Atomic             Coordinates (Angstroms)
 Number     Number       Type             X           Y           Z
 ---------------------------------------------------------------------
      1          8           0        5.059012    1.027511   -1.226563
      2          6           0        5.526303    1.690458   -0.323718
      3          6           0        4.057909    2.043457    0.482414
      4          6           0        4.726957    1.206311    1.047342
      5          6           0        5.413403    1.117111    2.308722
      6          6           0        6.211991    2.413454    2.244694
      7          6           0        7.365293    3.156218    2.488143
      8          7           0        8.464661    3.818581    1.892532
      9          6           0        9.041244    3.261957    2.976352
     10          6           0        8.316883    2.146909    2.481148
     11          6           0        7.758348    1.897730    0.324168
     12          7           0        9.023224    1.706614    0.288359
     13          6           0        9.196589    3.328124    0.598401
     14          6           0        5.153751   -0.093546    1.409104
     15          1           0        6.707842    1.337752    1.858211
     16          1           0        9.033384    3.659177    4.068758
     17          1           0        9.537517    2.776191   -0.340843
     18          1           0        9.399802    4.209512   -0.029824
     19          1           0        5.347037   -0.572260    0.315210
 ---------------------------------------------------------------------
                    Distance matrix (angstroms):
                    1          2          3          4          5
     1  O    0.000000
     2  C    1.213667   0.000000
     3  C    2.225973   1.711911   0.000000
     4  C    2.304967   1.659264   1.211438   0.000000
     5  C    3.554132   2.696519   2.455785   1.438834   0.000000
     6  C    3.911499   2.754929   2.807597   2.257470   1.523925
     7  C    4.863061   3.665638   4.024919   3.583136   2.828431
     8  N    5.396042   4.251426   4.955700   4.637750   4.096502
     9  C    6.206078   5.070984   5.704217   5.153623   4.267004
    10  C    5.061017   3.982833   4.705795   3.978454   3.085516
    11  C    3.232408   2.333398   3.706687   3.192236   3.169635
    12  N    4.297806   3.550120   4.980509   4.391385   4.178538
    13  C    5.073742   4.123501   5.298100   4.968023   4.703857
    14  C    2.865742   2.514783   2.574180   1.415151   1.530498
    15  H    3.511513   2.506243   3.068059   2.144456   1.388242
    16  H    7.124725   5.955612   6.342536   5.804378   4.760681
    17  H    4.888700   4.155593   5.589344   5.247196   5.175042
    18  H    5.513598   4.629903   5.787055   5.658178   5.560855
    19  H    2.240377   2.358020   2.920922   2.020849   2.613899
                    6          7          8          9         10
     6  C    0.000000
     7  C    1.393223   0.000000
     8  N    2.678231   1.414952   0.000000
     9  C    3.043016   1.748810   1.347941   0.000000
    10  C    2.134836   1.387183   1.778425   1.418893   0.000000
    11  C    2.519050   2.533984   2.578433   3.246693   2.242012
    12  N    3.497127   3.112738   2.710308   3.105595   2.345442
    13  C    3.529125   2.637105   1.565580   2.383938   2.390374
    14  C    2.846600   4.076298   5.147870   5.369196   4.021731
    15  H    1.245942   2.033685   3.040083   3.224525   1.905727
    16  H    3.583195   2.352410   2.254953   1.162410   2.306693
    17  H    4.227967   3.586940   2.688040   3.389105   3.138403
    18  H    4.308293   3.404235   2.173193   3.172305   3.425204
    19  H    3.658626   4.764089   5.611329   5.952315   4.572215
                   11         12         13         14         15
    11  C    0.000000
    12  N    1.279733   0.000000
    13  C    2.046893   1.659963   0.000000
    14  C    3.453432   4.412421   5.358135   0.000000
    15  H    1.941759   2.821610   3.426743   2.159980   0.000000
    16  H    4.330169   4.254882   3.489929   6.017328   3.960261
    17  H    2.092696   1.343275   1.141508   5.524049   3.861607
    18  H    2.857274   2.550990   1.101275   6.214159   4.365584
    19  H    3.451862   4.325313   5.487463   1.209599   2.807275
                   16         17         18         19
    16  H    0.000000
    17  H    4.525306   0.000000
    18  H    4.151566   1.473128   0.000000
    19  H    6.751543   5.403948   6.277682   0.000000
 Stoichiometry    C11H5N2O(2)
 Framework group  C1[X(C11H5N2O)]
 Deg. of freedom    51
 Full point group                 C1      NOp   1
 Largest Abelian subgroup         C1      NOp   1
 Largest concise Abelian subgroup C1      NOp   1
                         Standard orientation:                         
 ---------------------------------------------------------------------
 Center     Atomic      Atomic             Coordinates (Angstroms)
 Number     Number       Type             X           Y           Z
 ---------------------------------------------------------------------
      1          8           0        2.738791    1.576623   -0.235954
      2          6           0        1.767617    0.890886   -0.480029
      3          6           0        2.589851   -0.406650   -1.235657
      4          6           0        2.214160   -0.664484   -0.113178
      5          6           0        1.273983   -1.583374    0.471590
      6          6           0        0.055291   -1.265218   -0.386265
      7          6           0       -1.317040   -1.088266   -0.548944
      8          7           0       -2.341167   -0.148693   -0.814376
      9          6           0       -2.927578   -0.930397    0.114066
     10          6           0       -1.672311   -0.706070    0.736352
     11          6           0       -0.405686    1.101533    0.342845
     12          7           0       -1.373535    1.603791    1.012714
     13          6           0       -2.328580    1.336180   -0.318358
     14          6           0        2.309601   -0.810002    1.291233
     15          1           0        0.233167   -0.695512    0.707429
     16          1           0       -3.443477   -1.959654   -0.046165
     17          1           0       -2.073665    2.349252    0.141798
     18          1           0       -2.685134    1.971618   -1.144128
[...]
 Rotational constants (GHZ):           1.1073127           0.3097275           0.2745954
 Standard basis: 6-31G(2df,p) (6D, 7F)
 There are   459 symmetry adapted cartesian basis functions of A   symmetry.
 There are   417 symmetry adapted basis functions of A   symmetry.
   417 basis functions,   651 primitive gaussians,   459 cartesian basis functions
    47 alpha electrons       46 beta electrons
       nuclear repulsion energy       671.9490791240 Hartrees.
 NAtoms=   19 NActive=   19 NUniq=   19 SFac= 1.00D+00 NAtFMM=   60 NAOKFM=F Big=F
 Integral buffers will be    131072 words long.
 Raffenetti 2 integral format.
 Two-electron integral symmetry is turned on.
 One-electron integrals computed using PRISM.
 PrsmSu:  requested number of processors reduced to:  13 ShMem   1 Linda.
 NBasis=   417 RedAO= T EigKep=  1.65D-04  NBF=   417
 NBsUse=   417 1.00D-06 EigRej= -1.00D+00 NBFU=   417
 Initial guess from the checkpoint file:  "Odc1[c]c2cqcc3n4cc-3c1dNC4rdC2.chk"
 B after Tr=    -0.000000    0.000000   -0.000000
         Rot=    0.999299   -0.036525    0.007074   -0.004160 Ang=  -4.29 deg.
 Initial guess <Sx>= 0.0000 <Sy>= 0.0000 <Sz>= 0.5000 <S**2>= 0.7654 S= 0.5077
 ExpMin= 1.61D-01 ExpMax= 5.48D+03 ExpMxC= 8.25D+02 IAcc=2 IRadAn=         4 AccDes= 0.00D+00
 Harris functional with IExCor=  402 and IRadAn=       4 diagonalized for initial guess.
 HarFok:  IExCor=  402 AccDes= 0.00D+00 IRadAn=         4 IDoV= 1 UseB2=F ITyADJ=14
 ICtDFT=  3500011 ScaDFX=  1.000000  1.000000  1.000000  1.000000
 FoFCou: FMM=F IPFlag=           0 FMFlag=      100000 FMFlg1=           0
         NFxFlg=           0 DoJE=T BraDBF=F KetDBF=T FulRan=T
         wScrn=  0.000000 ICntrl=       500 IOpCl=  0 I1Cent=   200000004 NGrid=           0
         NMat0=    1 NMatS0=      1 NMatT0=    0 NMatD0=    1 NMtDS0=    0 NMtDT0=    0
 Petite list used in FoFCou.
 Requested convergence on RMS density matrix=1.00D-08 within 128 cycles.
 Requested convergence on MAX density matrix=1.00D-06.
 Requested convergence on             energy=1.00D-06.
 No special actions if energy rises.
 Integral accuracy reduced to 1.0D-05 until final iterations.
 Initial convergence to 1.0D-05 achieved.  Increase integral accuracy.
 SCF Done:  E(UB3LYP) =  -606.287693515     A.U. after   27 cycles
            NFock= 27  Conv=0.95D-08     -V/T= 2.0077
 <Sx>= 0.0000 <Sy>= 0.0000 <Sz>= 0.5000 <S**2>= 0.7686 S= 0.5093
 <L.S>=  0.00000000000    
 Annihilation of the first spin contaminant:
 S**2 before annihilation     0.7686,   after     0.7502
 PrsmSu:  requested number of processors reduced to:  13 ShMem   1 Linda.
 Calling FoFJK, ICntrl=      2127 FMM=F ISym2X=0 I1Cent= 0 IOpClX= 1 NMat=1 NMatS=1 NMatT=0.
 ***** Axes restored to original set *****
 -------------------------------------------------------------------
 Center     Atomic                   Forces (Hartrees/Bohr)
 Number     Number              X              Y              Z
 -------------------------------------------------------------------
      1        8           0.005172258    0.003334154    0.004357319
      2        6          -0.002906141   -0.006133870    0.007724579
      3        6           0.000222529   -0.000931325   -0.009479150
      4        6          -0.018100303    0.001062675   -0.018425833
      5        6           0.015992631    0.024975687    0.007716413
      6        6          -0.003344664   -0.040049170    0.019356429
      7        6           0.012206277   -0.012476815   -0.040542639
      8        7           0.024687495    0.006663278    0.030180136
      9        6          -0.016611264    0.011320816    0.000215074
     10        6           0.002793438    0.007825512    0.006771779
     11        6          -0.005880170   -0.019577786   -0.004533888
     12        7           0.010519200    0.047345338   -0.025165832
     13        6          -0.051719256   -0.021145000   -0.027765118
     14        6           0.015967519    0.010325566    0.015992932
     15        1          -0.004358219    0.011771846   -0.006858500
     16        1           0.001702419   -0.004266240    0.000235128
     17        1           0.012828869   -0.035413525    0.033803483
     18        1           0.003376340    0.014009149    0.011856612
     19        1          -0.002548957    0.001359710   -0.005438927
 -------------------------------------------------------------------
 Cartesian Forces:  Max     0.051719256 RMS     0.018252689

 GradGradGradGradGradGradGradGradGradGradGradGradGradGradGradGradGradGrad
 Berny optimization.
 Using GEDIIS/GDIIS optimizer.
 FormGI is forming the generalized inverse of G from B-inverse, IUseBI=4.
 Internal  Forces:  Max     0.082657471 RMS     0.016186377
 Search for a local minimum.
 Step number  15 out of a maximum of   96
 All quantities printed in internal units (Hartrees-Bohrs-Radians)
 Mixed Optimization -- RFO/linear search
 Update second derivatives using D2CorX and points   14   15
 DE= -2.68D-02 DEPred=-2.78D-02 R= 9.62D-01
 TightC=F SS=  1.41D+00  RLast= 6.32D-01 DXNew= 5.0454D+00 1.8950D+00
 Trust test= 9.62D-01 RLast= 6.32D-01 DXMaxT set to 3.00D+00
 ITU=  1  1  1  1  1  1  1  1  1  1  0  0  0  1  0
 Use linear search instead of GDIIS.
     Eigenvalues ---    0.00046   0.00177   0.00206   0.00256   0.00313
     Eigenvalues ---    0.00386   0.00451   0.00556   0.00628   0.01019
     Eigenvalues ---    0.01560   0.01971   0.02017   0.02119   0.03043
     Eigenvalues ---    0.05171   0.06942   0.07452   0.08654   0.09708
     Eigenvalues ---    0.12146   0.14967   0.15704   0.15907   0.17817
     Eigenvalues ---    0.19596   0.20666   0.21234   0.21767   0.23487
     Eigenvalues ---    0.24210   0.25060   0.25503   0.27148   0.27738
     Eigenvalues ---    0.28073   0.31750   0.33640   0.34106   0.38282
     Eigenvalues ---    0.38873   0.40445   0.44274   0.47361   0.51244
     Eigenvalues ---    0.57877   0.71860   0.77349   0.98604   1.06153
     Eigenvalues ---    2.38335
 RFO step:  Lambda=-3.60763812D-02 EMin= 4.55237945D-04
 Quartic linear search produced a step of  0.41914.
 Iteration  1 RMS(Cart)=  0.01775592 RMS(Int)=  0.06718848
 Iteration  2 RMS(Cart)=  0.00178062 RMS(Int)=  0.33839195
 Iteration  3 RMS(Cart)=  0.05621759 RMS(Int)=  0.33664495
 Iteration  4 RMS(Cart)=  0.06521271 RMS(Int)=  0.32987607
 Iteration  5 RMS(Cart)=  0.06265973 RMS(Int)=  0.31432946
 Iteration  6 RMS(Cart)=  0.00248696 RMS(Int)=  0.29297976
 Iteration  7 RMS(Cart)=  0.00161040 RMS(Int)=  0.27141839
 Iteration  8 RMS(Cart)=  0.00209713 RMS(Int)=  0.25011946
 Iteration  9 RMS(Cart)=  0.00269074 RMS(Int)=  0.22923934
 Iteration 10 RMS(Cart)=  0.00288787 RMS(Int)=  0.21082527
 Iteration 11 RMS(Cart)=  0.00002372 RMS(Int)=  0.21072934
 Iteration 12 RMS(Cart)=  0.00002390 RMS(Int)=  0.21063257
 Iteration 13 RMS(Cart)=  0.00002406 RMS(Int)=  0.21053501
 Iteration 14 RMS(Cart)=  0.00002422 RMS(Int)=  0.21043664
 Iteration 15 RMS(Cart)=  0.00002440 RMS(Int)=  0.21033744
 Iteration 16 RMS(Cart)=  0.00002457 RMS(Int)=  0.21023737
 Iteration 17 RMS(Cart)=  0.00002476 RMS(Int)=  0.21013641
 Iteration 18 RMS(Cart)=  0.00002494 RMS(Int)=  0.21003453
 Iteration 19 RMS(Cart)=  0.00002514 RMS(Int)=  0.20993171
 Iteration 20 RMS(Cart)=  0.00002534 RMS(Int)=  0.20982792
 Iteration 21 RMS(Cart)=  0.00002554 RMS(Int)=  0.20972313
 Iteration 22 RMS(Cart)=  0.00002576 RMS(Int)=  0.20961729
 Iteration 23 RMS(Cart)=  0.00002598 RMS(Int)=  0.20951039
 Iteration 24 RMS(Cart)=  0.00002620 RMS(Int)=  0.20940238
 Iteration 25 RMS(Cart)=  0.00002644 RMS(Int)=  0.20929322
 Iteration 26 RMS(Cart)=  0.00002668 RMS(Int)=  0.20918288
 Iteration 27 RMS(Cart)=  0.00002694 RMS(Int)=  0.20907131
 Iteration 28 RMS(Cart)=  0.00002720 RMS(Int)=  0.20895847
 Iteration 29 RMS(Cart)=  0.00002747 RMS(Int)=  0.20884431
 Iteration 30 RMS(Cart)=  0.00002775 RMS(Int)=  0.20872878
 Iteration 31 RMS(Cart)=  0.00002804 RMS(Int)=  0.20861183
 Iteration 32 RMS(Cart)=  0.00002835 RMS(Int)=  0.20849340
 Iteration 33 RMS(Cart)=  0.00002866 RMS(Int)=  0.20837344
 Iteration 34 RMS(Cart)=  0.00002899 RMS(Int)=  0.20825188
 Iteration 35 RMS(Cart)=  0.00002934 RMS(Int)=  0.20812866
 Iteration 36 RMS(Cart)=  0.00002969 RMS(Int)=  0.20800370
 Iteration 37 RMS(Cart)=  0.00003007 RMS(Int)=  0.20787693
 Iteration 38 RMS(Cart)=  0.00003046 RMS(Int)=  0.20774828
 Iteration 39 RMS(Cart)=  0.00003086 RMS(Int)=  0.20761765
 Iteration 40 RMS(Cart)=  0.00003129 RMS(Int)=  0.20748496
 Iteration 41 RMS(Cart)=  0.00003173 RMS(Int)=  0.20735010
 Iteration 42 RMS(Cart)=  0.00003220 RMS(Int)=  0.20721299
 Iteration 43 RMS(Cart)=  0.00003268 RMS(Int)=  0.20707350
 Iteration 44 RMS(Cart)=  0.00003319 RMS(Int)=  0.20693153
 Iteration 45 RMS(Cart)=  0.00003373 RMS(Int)=  0.20678695
 Iteration 46 RMS(Cart)=  0.00003429 RMS(Int)=  0.20663962
 Iteration 47 RMS(Cart)=  0.00003488 RMS(Int)=  0.20648940
 Iteration 48 RMS(Cart)=  0.00003550 RMS(Int)=  0.20633615
 Iteration 49 RMS(Cart)=  0.00003615 RMS(Int)=  0.20617971
 Iteration 50 RMS(Cart)=  0.00003684 RMS(Int)=  0.20601988
 Iteration 51 RMS(Cart)=  0.00003756 RMS(Int)=  0.20585654
 Iteration 52 RMS(Cart)=  0.00003833 RMS(Int)=  0.20568940
 Iteration 53 RMS(Cart)=  0.00003910 RMS(Int)=  0.20551841
 Iteration 54 RMS(Cart)=  0.00003997 RMS(Int)=  0.20534316
 Iteration 55 RMS(Cart)=  0.00004082 RMS(Int)=  0.20516366
 Iteration 56 RMS(Cart)=  0.00004178 RMS(Int)=  0.20497945
 Iteration 57 RMS(Cart)=  0.00004272 RMS(Int)=  0.20479050
 Iteration 58 RMS(Cart)=  0.00004366 RMS(Int)=  0.20459672
 Iteration 59 RMS(Cart)=  0.00004476 RMS(Int)=  0.20439749
 Iteration 60 RMS(Cart)=  0.00004584 RMS(Int)=  0.20419277
 Iteration 61 RMS(Cart)=  0.00004683 RMS(Int)=  0.20398278
 Iteration 62 RMS(Cart)=  0.00004794 RMS(Int)=  0.20376703
 Iteration 63 RMS(Cart)=  0.00004907 RMS(Int)=  0.20354538
 Iteration 64 RMS(Cart)=  0.00005022 RMS(Int)=  0.20331768
 Iteration 65 RMS(Cart)=  0.00005136 RMS(Int)=  0.20308388
 Iteration 66 RMS(Cart)=  0.00005250 RMS(Int)=  0.20284394
 Iteration 67 RMS(Cart)=  0.00005361 RMS(Int)=  0.20259790
 Iteration 68 RMS(Cart)=  0.00005469 RMS(Int)=  0.20234584
 Iteration 69 RMS(Cart)=  0.00005572 RMS(Int)=  0.20208789
 Iteration 70 RMS(Cart)=  0.00005670 RMS(Int)=  0.20182422
 Iteration 71 RMS(Cart)=  0.00005759 RMS(Int)=  0.20155512
 Iteration 72 RMS(Cart)=  0.00005843 RMS(Int)=  0.20128077
 Iteration 73 RMS(Cart)=  0.00005921 RMS(Int)=  0.20100143
 Iteration 74 RMS(Cart)=  0.00005990 RMS(Int)=  0.20071739
 Iteration 75 RMS(Cart)=  0.00006053 RMS(Int)=  0.20042894
 Iteration 76 RMS(Cart)=  0.00006107 RMS(Int)=  0.61958096
 New curvilinear step failed, DQL= 2.85D+00 SP=-4.90D-01.
 ITry= 1 IFail=1 DXMaxC= 7.04D-01 DCOld= 1.00D+10 DXMaxT= 3.00D+00 DXLimC= 3.00D+00 Rises=F
 Iteration  1 RMS(Cart)=  0.01660507 RMS(Int)=  0.06237309
 Iteration  2 RMS(Cart)=  0.00192782 RMS(Int)=  0.06158816
 Iteration  3 RMS(Cart)=  0.00180837 RMS(Int)=  0.33996729
 Iteration  4 RMS(Cart)=  0.07085581 RMS(Int)=  0.33845567
 Iteration  5 RMS(Cart)=  0.08965800 RMS(Int)=  0.32880923
 Iteration  6 RMS(Cart)=  0.00848723 RMS(Int)=  0.30586618
 Iteration  7 RMS(Cart)=  0.00156750 RMS(Int)=  0.28478672
 Iteration  8 RMS(Cart)=  0.00171042 RMS(Int)=  0.26339668
 Iteration  9 RMS(Cart)=  0.00229678 RMS(Int)=  0.24220698
 Iteration 10 RMS(Cart)=  0.00279724 RMS(Int)=  0.22180060
 Iteration 11 RMS(Cart)=  0.00252880 RMS(Int)=  0.20603106
 Iteration 12 RMS(Cart)=  0.00003725 RMS(Int)=  0.20587326
 Iteration 13 RMS(Cart)=  0.00003785 RMS(Int)=  0.20571242
 Iteration 14 RMS(Cart)=  0.00003850 RMS(Int)=  0.20554834
 Iteration 15 RMS(Cart)=  0.00003918 RMS(Int)=  0.20538085
 Iteration 16 RMS(Cart)=  0.00003989 RMS(Int)=  0.20520976
 Iteration 17 RMS(Cart)=  0.00004065 RMS(Int)=  0.20503488
 Iteration 18 RMS(Cart)=  0.00004144 RMS(Int)=  0.20485600
 Iteration 19 RMS(Cart)=  0.00004227 RMS(Int)=  0.20467293
 Iteration 20 RMS(Cart)=  0.00004313 RMS(Int)=  0.20448547
 Iteration 21 RMS(Cart)=  0.00004403 RMS(Int)=  0.20429340
 Iteration 22 RMS(Cart)=  0.00004497 RMS(Int)=  0.20409653
 Iteration 23 RMS(Cart)=  0.00004594 RMS(Int)=  0.20389467
 Iteration 24 RMS(Cart)=  0.00004694 RMS(Int)=  0.20368761
 Iteration 25 RMS(Cart)=  0.00004796 RMS(Int)=  0.20347519
 Iteration 26 RMS(Cart)=  0.00004901 RMS(Int)=  0.20325724
 Iteration 27 RMS(Cart)=  0.00005007 RMS(Int)=  0.20303365
 Iteration 28 RMS(Cart)=  0.00005113 RMS(Int)=  0.20280430
 Iteration 29 RMS(Cart)=  0.00005220 RMS(Int)=  0.20256914
 Iteration 30 RMS(Cart)=  0.00005325 RMS(Int)=  0.20232815
 Iteration 31 RMS(Cart)=  0.00005427 RMS(Int)=  0.20208135
 Iteration 32 RMS(Cart)=  0.00005527 RMS(Int)=  0.20182879
 Iteration 33 RMS(Cart)=  0.00005623 RMS(Int)=  0.20157060
 Iteration 34 RMS(Cart)=  0.00005713 RMS(Int)=  0.20130693
 Iteration 35 RMS(Cart)=  0.00005798 RMS(Int)=  0.20103796
 Iteration 36 RMS(Cart)=  0.00005876 RMS(Int)=  0.20076390
 Iteration 37 RMS(Cart)=  0.00005948 RMS(Int)=  0.20048500
 Iteration 38 RMS(Cart)=  0.00006013 RMS(Int)=  0.20020151
 Iteration 39 RMS(Cart)=  0.00006070 RMS(Int)=  0.19991369
 Iteration 40 RMS(Cart)=  0.00006121 RMS(Int)=  0.19962181
 Iteration 41 RMS(Cart)=  0.00006165 RMS(Int)=  0.19932612
 Iteration 42 RMS(Cart)=  0.00006203 RMS(Int)=  0.19902687
 Iteration 43 RMS(Cart)=  0.00006234 RMS(Int)=  0.19872431
 Iteration 44 RMS(Cart)=  0.00006260 RMS(Int)=  0.19841866
 Iteration 45 RMS(Cart)=  0.00006280 RMS(Int)=  0.19811013
 Iteration 46 RMS(Cart)=  0.00006296 RMS(Int)=  0.19779892
 Iteration 47 RMS(Cart)=  0.00006307 RMS(Int)=  0.19748520
 Iteration 48 RMS(Cart)=  0.00006313 RMS(Int)=  0.19716914
 Iteration 49 RMS(Cart)=  0.00006316 RMS(Int)=  0.19685090
 Iteration 50 RMS(Cart)=  0.00006315 RMS(Int)=  0.19653060
 Iteration 51 RMS(Cart)=  0.00006312 RMS(Int)=  0.19620838
 Iteration 52 RMS(Cart)=  0.00006305 RMS(Int)=  0.19588435
 Iteration 53 RMS(Cart)=  0.00006295 RMS(Int)=  0.19555860
 Iteration 54 RMS(Cart)=  0.00006284 RMS(Int)=  0.19523122
 Iteration 55 RMS(Cart)=  0.00006270 RMS(Int)=  0.19490230
 Iteration 56 RMS(Cart)=  0.00006260 RMS(Int)=  0.19457186
 Iteration 57 RMS(Cart)=  0.00006243 RMS(Int)=  0.19424001
 Iteration 58 RMS(Cart)=  0.00006226 RMS(Int)=  0.19390679
 Iteration 59 RMS(Cart)=  0.00006206 RMS(Int)=  0.19357226
 Iteration 60 RMS(Cart)=  0.00006185 RMS(Int)=  0.19323647
 Iteration 61 RMS(Cart)=  0.00006163 RMS(Int)=  0.19289946
 Iteration 62 RMS(Cart)=  0.00006139 RMS(Int)=  0.19256124
 Iteration 63 RMS(Cart)=  0.00006115 RMS(Int)=  0.19222186
 Iteration 64 RMS(Cart)=  0.00006090 RMS(Int)=  0.19188132
 Iteration 65 RMS(Cart)=  0.00006064 RMS(Int)=  0.19153964
 Iteration 66 RMS(Cart)=  0.00006038 RMS(Int)=  0.19119683
 Iteration 67 RMS(Cart)=  0.00006010 RMS(Int)=  0.19085289
 Iteration 68 RMS(Cart)=  0.00005983 RMS(Int)=  0.19050782
 Iteration 69 RMS(Cart)=  0.00005954 RMS(Int)=  0.19016160
 Iteration 70 RMS(Cart)=  0.00005926 RMS(Int)=  0.18981423
 Iteration 71 RMS(Cart)=  0.00005897 RMS(Int)=  0.18946568
 Iteration 72 RMS(Cart)=  0.00005868 RMS(Int)=  0.18911591
 Iteration 73 RMS(Cart)=  0.00005838 RMS(Int)=  0.18876488
 Iteration 74 RMS(Cart)=  0.00005808 RMS(Int)=  0.18841255
 Iteration 75 RMS(Cart)=  0.00005778 RMS(Int)=  0.18805885
 Iteration 76 RMS(Cart)=  0.00005748 RMS(Int)=  0.18770369
 Iteration 77 RMS(Cart)=  0.00005718 RMS(Int)=  0.18734699
 Iteration 78 RMS(Cart)=  0.00005688 RMS(Int)=  0.18698862
 Iteration 79 RMS(Cart)=  0.00005658 RMS(Int)=  0.18662844
 Iteration 80 RMS(Cart)=  0.00005627 RMS(Int)=  0.18626626
 Iteration 81 RMS(Cart)=  0.00005596 RMS(Int)=  0.18590186
 Iteration 82 RMS(Cart)=  0.00005565 RMS(Int)=  0.18553496
 Iteration 83 RMS(Cart)=  0.00005547 RMS(Int)=  0.18516512
 Iteration 84 RMS(Cart)=  0.00005500 RMS(Int)=  0.18479322
 Iteration 85 RMS(Cart)=  0.00005473 RMS(Int)=  0.18441734
 Iteration 86 RMS(Cart)=  0.00005447 RMS(Int)=  0.18403659
 Iteration 87 RMS(Cart)=  0.00005421 RMS(Int)=  0.18364972
 Iteration 88 RMS(Cart)=  0.00005397 RMS(Int)=  0.18325485
 Iteration 89 RMS(Cart)=  0.00005375 RMS(Int)=  0.18284898
 Iteration 90 RMS(Cart)=  0.00005355 RMS(Int)=  0.18242699
 Iteration 91 RMS(Cart)=  0.00005338 RMS(Int)=  0.18197880
 Iteration 92 RMS(Cart)=  0.00005327 RMS(Int)=  0.18148016
 Iteration 93 RMS(Cart)=  0.00005327 RMS(Int)=  0.18084290
 Iteration 94 RMS(Cart)=  0.00005358 RMS(Int)=  0.17804765
 Iteration 95 RMS(Cart)=  0.00005869 RMS(Int)=  0.16133308
 New curvilinear step failed, DQL= 3.14D+00 SP=-9.87D-01.
 ITry= 2 IFail=1 DXMaxC= 6.46D-01 DCOld= 1.00D+10 DXMaxT= 3.00D+00 DXLimC= 3.00D+00 Rises=F
 Iteration  1 RMS(Cart)=  0.01521618 RMS(Int)=  0.05773056
 Iteration  2 RMS(Cart)=  0.00183578 RMS(Int)=  0.05697374
 Iteration  3 RMS(Cart)=  0.00172871 RMS(Int)=  0.34035723
 Iteration  4 RMS(Cart)=  0.07980739 RMS(Int)=  0.33974138
 Iteration  5 RMS(Cart)=  0.07233033 RMS(Int)=  0.32598610
 Iteration  6 RMS(Cart)=  0.00428876 RMS(Int)=  0.30385693
 Iteration  7 RMS(Cart)=  0.00202812 RMS(Int)=  0.28240561
 Iteration  8 RMS(Cart)=  0.00229590 RMS(Int)=  0.26123908
 Iteration  9 RMS(Cart)=  0.00242956 RMS(Int)=  0.24069515
 Iteration 10 RMS(Cart)=  0.00218531 RMS(Int)=  0.22188521
 Iteration 11 RMS(Cart)=  0.00149555 RMS(Int)=  0.20817651
 Iteration 12 RMS(Cart)=  0.00060999 RMS(Int)=  0.20278221
 Iteration 13 RMS(Cart)=  0.00029582 RMS(Int)=  0.20017789
 Iteration 14 RMS(Cart)=  0.00022548 RMS(Int)=  0.19813562
 Iteration 15 RMS(Cart)=  0.00019681 RMS(Int)=  0.19629489
 Iteration 16 RMS(Cart)=  0.00018089 RMS(Int)=  0.19454745
 Iteration 17 RMS(Cart)=  0.00017056 RMS(Int)=  0.19284566
 Iteration 18 RMS(Cart)=  0.00016333 RMS(Int)=  0.19116187
 Iteration 19 RMS(Cart)=  0.00015810 RMS(Int)=  0.18947486
 Iteration 20 RMS(Cart)=  0.00015444 RMS(Int)=  0.18776269
 Iteration 21 RMS(Cart)=  0.00015213 RMS(Int)=  0.18599470
 Iteration 22 RMS(Cart)=  0.00015118 RMS(Int)=  0.18411408
 Iteration 23 RMS(Cart)=  0.00015197 RMS(Int)=  0.18197308
 Iteration 24 RMS(Cart)=  0.00015570 RMS(Int)=  0.17883455
 Iteration 25 RMS(Cart)=  0.00016882 RMS(Int)=  0.15697870
 New curvilinear step failed, DQL= 6.01D+00 SP=-5.14D-01.
 ITry= 3 IFail=1 DXMaxC= 5.96D-01 DCOld= 1.00D+10 DXMaxT= 3.00D+00 DXLimC= 3.00D+00 Rises=F
 Iteration  1 RMS(Cart)=  0.01385175 RMS(Int)=  0.05317561
 Iteration  2 RMS(Cart)=  0.00162596 RMS(Int)=  0.05249584
 Iteration  3 RMS(Cart)=  0.00154031 RMS(Int)=  0.05185979
 Iteration  4 RMS(Cart)=  0.00141667 RMS(Int)=  0.34004844
 Iteration  5 RMS(Cart)=  0.08285679 RMS(Int)=  0.33827754
 Iteration  6 RMS(Cart)=  0.05477083 RMS(Int)=  0.32331082
 Iteration  7 RMS(Cart)=  0.00300278 RMS(Int)=  0.30188210
 Iteration  8 RMS(Cart)=  0.00186300 RMS(Int)=  0.28045687
 Iteration  9 RMS(Cart)=  0.00226110 RMS(Int)=  0.25928616
 Iteration 10 RMS(Cart)=  0.00237932 RMS(Int)=  0.23869349
 Iteration 11 RMS(Cart)=  0.00214303 RMS(Int)=  0.21981973
 Iteration 12 RMS(Cart)=  0.00145955 RMS(Int)=  0.20611414
 Iteration 13 RMS(Cart)=  0.00058331 RMS(Int)=  0.20084613
 Iteration 14 RMS(Cart)=  0.00028503 RMS(Int)=  0.19828361
 Iteration 15 RMS(Cart)=  0.00021914 RMS(Int)=  0.19625757
 Iteration 16 RMS(Cart)=  0.00019209 RMS(Int)=  0.19442474
 Iteration 17 RMS(Cart)=  0.00017702 RMS(Int)=  0.19268133
 Iteration 18 RMS(Cart)=  0.00016724 RMS(Int)=  0.19098131
 Iteration 19 RMS(Cart)=  0.00016041 RMS(Int)=  0.18929757
 Iteration 20 RMS(Cart)=  0.00015552 RMS(Int)=  0.18760897
 Iteration 21 RMS(Cart)=  0.00015214 RMS(Int)=  0.18589318
 Iteration 22 RMS(Cart)=  0.00015008 RMS(Int)=  0.18411839
 Iteration 23 RMS(Cart)=  0.00014940 RMS(Int)=  0.18222417
 Iteration 24 RMS(Cart)=  0.00015048 RMS(Int)=  0.18004850
 Iteration 25 RMS(Cart)=  0.00015452 RMS(Int)=  0.17670807
 Iteration 26 RMS(Cart)=  0.00016927 RMS(Int)=  0.16014333
 Iteration 27 RMS(Cart)=  0.00035648 RMS(Int)=  0.17890153
 Iteration 28 RMS(Cart)=  0.00016707 RMS(Int)=  0.17573624
 Iteration 29 RMS(Cart)=  0.00017961 RMS(Int)=  0.16005644
 Iteration 30 RMS(Cart)=  0.00035734 RMS(Int)=  0.17904337
slurmstepd: error: *** JOB 27446641 ON lewis4-r630-hpc4-node538 CANCELLED AT 2023-05-17T08:29:29 DUE TO TIME LIMIT ***
