### Starting Gaussian ###
 Entering Gaussian System, Link 0=g16
 Initial command:
 /cluster/software/gaussian/gaussian-16-A.03/avx2/g16/l1.exe "/local/scratch/ks29c/Gau-31411.inp" -scrdir="/local/scratch/ks29c/"
 Entering Link 1 = /cluster/software/gaussian/gaussian-16-A.03/avx2/g16/l1.exe PID=     31412.
  
 Copyright (c) 1988,1990,1992,1993,1995,1998,2003,2009,2016,
            Gaussian, Inc.  All Rights Reserved.
  
 This is part of the Gaussian(R) 16 program.  It is based on
 the Gaussian(R) 09 system (copyright 2009, Gaussian, Inc.),
 the Gaussian(R) 03 system (copyright 2003, Gaussian, Inc.),
 the Gaussian(R) 98 system (copyright 1998, Gaussian, Inc.),
 the Gaussian(R) 94 system (copyright 1995, Gaussian, Inc.),
 the Gaussian 92(TM) system (copyright 1992, Gaussian, Inc.),
 the Gaussian 90(TM) system (copyright 1990, Gaussian, Inc.),
 the Gaussian 88(TM) system (copyright 1988, Gaussian, Inc.),
 the Gaussian 86(TM) system (copyright 1986, Carnegie Mellon
 University), and the Gaussian 82(TM) system (copyright 1983,
 Carnegie Mellon University). Gaussian is a federally registered
 trademark of Gaussian, Inc.
  
 This software contains proprietary and confidential information,
 including trade secrets, belonging to Gaussian, Inc.
  
 This software is provided under written license and may be
 used, copied, transmitted, or stored only in accord with that
 written license.
  
 The following legend is applicable only to US Government
 contracts under FAR:
  
                    RESTRICTED RIGHTS LEGEND
  
 Use, reproduction and disclosure by the US Government is
 subject to restrictions as set forth in subparagraphs (a)
 and (c) of the Commercial Computer Software - Restricted
 Rights clause in FAR 52.227-19.
  
 Gaussian, Inc.
 340 Quinnipiac St., Bldg. 40, Wallingford CT 06492
  
  
 ---------------------------------------------------------------
 Warning -- This program may not be used in any manner that
 competes with the business of Gaussian, Inc. or will provide
 assistance to any competitor of Gaussian, Inc.  The licensee
 of this program is prohibited from giving any competitor of
 Gaussian, Inc. access to this program.  By using this program,
 the user acknowledges that Gaussian, Inc. is engaged in the
 business of creating and licensing software in the field of
 computational chemistry and represents and warrants to the
 licensee that it is not a competitor of Gaussian, Inc. and that
 it will not use this program in any manner prohibited above.
 ---------------------------------------------------------------
  

 Cite this work as:
 Gaussian 16, Revision A.03,
 M. J. Frisch, G. W. Trucks, H. B. Schlegel, G. E. Scuseria, 
 M. A. Robb, J. R. Cheeseman, G. Scalmani, V. Barone, 
 G. A. Petersson, H. Nakatsuji, X. Li, M. Caricato, A. V. Marenich, 
 J. Bloino, B. G. Janesko, R. Gomperts, B. Mennucci, H. P. Hratchian, 
 J. V. Ortiz, A. F. Izmaylov, J. L. Sonnenberg, D. Williams-Young, 
 F. Ding, F. Lipparini, F. Egidi, J. Goings, B. Peng, A. Petrone, 
 T. Henderson, D. Ranasinghe, V. G. Zakrzewski, J. Gao, N. Rega, 
 G. Zheng, W. Liang, M. Hada, M. Ehara, K. Toyota, R. Fukuda, 
 J. Hasegawa, M. Ishida, T. Nakajima, Y. Honda, O. Kitao, H. Nakai, 
 T. Vreven, K. Throssell, J. A. Montgomery, Jr., J. E. Peralta, 
 F. Ogliaro, M. J. Bearpark, J. J. Heyd, E. N. Brothers, K. N. Kudin, 
 V. N. Staroverov, T. A. Keith, R. Kobayashi, J. Normand, 
 K. Raghavachari, A. P. Rendell, J. C. Burant, S. S. Iyengar, 
 J. Tomasi, M. Cossi, J. M. Millam, M. Klene, C. Adamo, R. Cammi, 
 J. W. Ochterski, R. L. Martin, K. Morokuma, O. Farkas, 
 J. B. Foresman, and D. J. Fox, Gaussian, Inc., Wallingford CT, 2016.
 
 ******************************************
 Gaussian 16:  ES64L-G16RevA.03 25-Dec-2016
                20-May-2023 
 ******************************************
 %chk=OdC1CdNCC2CC1dCC1dNCdC12.chk
 %NProcShared=20
 Will use up to   20 processors via shared memory.
 -----------------------------
 # opt freq b3lyp/6-31g(2df,p)
 -----------------------------
 1/18=20,19=15,26=3,38=1/1,3;
 2/9=110,12=2,17=6,18=5,40=1/2;
 3/5=1,6=6,7=104,11=2,25=1,30=1,71=1,74=-5/1,2,3;
 4//1;
 5/5=2,38=5/2;
 6/7=2,8=2,9=2,10=2,28=1/1;
 7//1,2,3,16;
 1/18=20,19=15,26=3/3(2);
 2/9=110/2;
 99//99;
 2/9=110/2;
 3/5=1,6=6,7=104,11=2,25=1,30=1,71=1,74=-5/1,2,3;
 4/5=5,16=3,69=1/1;
 5/5=2,38=5/2;
 7//1,2,3,16;
 1/18=20,19=15,26=3/3(-5);
 2/9=110/2;
 6/7=2,8=2,9=2,10=2,19=2,28=1/1;
 99/9=1/99;
 -------------------
 Title Card Required
 -------------------
 Symbolic Z-matrix:
 Charge =  0 Multiplicity = 1
 O                     1.2715   -0.17174  -0.00145 
 C                     2.14231  -0.38221   0.83031 
 C                     3.28599  -1.27713   0.53334 
 N                     4.47734  -0.9392    0.878 
 C                     4.931     0.38274   1.54403 
 C                     4.0073    1.89358   1.64272 
 C                     3.0522    1.8091    0.6375 
 C                     2.53783   0.59739   1.85343 
 C                     3.00693   0.57294   3.26423 
 C                     3.90342   1.82951   4.16387 
 N                     4.38481   2.97301   4.57128 
 C                     4.27189   3.65643   3.37801 
 C                     4.37145   2.47705   2.89867 
 H                     2.9968   -2.20376  -0.01028 
 H                     5.74586   0.69733   0.89667 
 H                     5.3875    0.10455   2.51114 
 H                     2.93309   2.3267    2.19764 
 H                     3.94765   2.01609  -0.01207 
 H                     2.40735   2.69707   0.53448 
 H                     3.11287  -0.32      3.91004 
 H                     4.31361   4.60406   2.77971 
 

 GradGradGradGradGradGradGradGradGradGradGradGradGradGradGradGradGradGrad
 Berny optimization.
 Initialization pass.
                           ----------------------------
                           !    Initial Parameters    !
                           ! (Angstroms and Degrees)  !
 --------------------------                            --------------------------
 ! Name  Definition              Value          Derivative Info.                !
 --------------------------------------------------------------------------------
 ! R1    R(1,2)                  1.2225         estimate D2E/DX2                !
 ! R2    R(2,3)                  1.4823         estimate D2E/DX2                !
 ! R3    R(2,8)                  1.4707         estimate D2E/DX2                !
 ! R4    R(3,4)                  1.2854         estimate D2E/DX2                !
 ! R5    R(3,14)                 1.1126         estimate D2E/DX2                !
 ! R6    R(4,5)                  1.5482         estimate D2E/DX2                !
 ! R7    R(5,6)                  1.7736         estimate D2E/DX2                !
 ! R8    R(5,15)                 1.0872         estimate D2E/DX2                !
 ! R9    R(5,16)                 1.105          estimate D2E/DX2                !
 ! R10   R(6,7)                  1.3892         estimate D2E/DX2                !
 ! R11   R(6,13)                 1.4319         estimate D2E/DX2                !
 ! R12   R(6,17)                 1.2843         estimate D2E/DX2                !
 ! R13   R(7,8)                  1.792          estimate D2E/DX2                !
 ! R14   R(7,18)                 1.1254         estimate D2E/DX2                !
 ! R15   R(7,19)                 1.1022         estimate D2E/DX2                !
 ! R16   R(8,9)                  1.4869         estimate D2E/DX2                !
 ! R17   R(9,10)                 1.7866         estimate D2E/DX2                !
 ! R18   R(9,20)                 1.1071         estimate D2E/DX2                !
 ! R19   R(10,11)                1.3059         estimate D2E/DX2                !
 ! R20   R(10,13)                1.4964         estimate D2E/DX2                !
 ! R21   R(11,12)                1.3797         estimate D2E/DX2                !
 ! R22   R(12,13)                1.277          estimate D2E/DX2                !
 ! R23   R(12,21)                1.1215         estimate D2E/DX2                !
 ! A1    A(1,2,3)              121.1484         estimate D2E/DX2                !
 ! A2    A(1,2,8)              123.3834         estimate D2E/DX2                !
 ! A3    A(3,2,8)              109.5137         estimate D2E/DX2                !
 ! A4    A(2,3,4)              120.1769         estimate D2E/DX2                !
 ! A5    A(2,3,14)             113.5902         estimate D2E/DX2                !
 ! A6    A(4,3,14)             126.2196         estimate D2E/DX2                !
 ! A7    A(3,4,5)              127.691          estimate D2E/DX2                !
 ! A8    A(4,5,6)              126.7762         estimate D2E/DX2                !
 ! A9    A(4,5,15)             102.1537         estimate D2E/DX2                !
 ! A10   A(4,5,16)             106.4153         estimate D2E/DX2                !
 ! A11   A(6,5,15)             100.1943         estimate D2E/DX2                !
 ! A12   A(6,5,16)             112.3899         estimate D2E/DX2                !
 ! A13   A(15,5,16)            106.5191         estimate D2E/DX2                !
 ! A14   A(5,6,7)              105.4266         estimate D2E/DX2                !
 ! A15   A(5,6,13)             105.2758         estimate D2E/DX2                !
 ! A16   A(5,6,17)             138.3253         estimate D2E/DX2                !
 ! A17   A(7,6,13)             146.5425         estimate D2E/DX2                !
 ! A18   A(7,6,17)              76.0017         estimate D2E/DX2                !
 ! A19   A(13,6,17)             72.321          estimate D2E/DX2                !
 ! A20   A(6,7,8)               75.3731         estimate D2E/DX2                !
 ! A21   A(6,7,18)              81.9193         estimate D2E/DX2                !
 ! A22   A(6,7,19)             114.8894         estimate D2E/DX2                !
 ! A23   A(8,7,18)             138.1046         estimate D2E/DX2                !
 ! A24   A(8,7,19)             116.1179         estimate D2E/DX2                !
 ! A25   A(18,7,19)            105.2701         estimate D2E/DX2                !
 ! A26   A(2,8,7)               93.1843         estimate D2E/DX2                !
 ! A27   A(2,8,9)              137.2191         estimate D2E/DX2                !
 ! A28   A(7,8,9)              124.3569         estimate D2E/DX2                !
 ! A29   A(8,9,10)             128.6449         estimate D2E/DX2                !
 ! A30   A(8,9,20)             126.6497         estimate D2E/DX2                !
 ! A31   A(10,9,20)            103.0336         estimate D2E/DX2                !
 ! A32   A(9,10,11)            163.3232         estimate D2E/DX2                !
 ! A33   A(9,10,13)             92.0373         estimate D2E/DX2                !
 ! A34   A(11,10,13)            76.6765         estimate D2E/DX2                !
 ! A35   A(10,11,12)            97.6861         estimate D2E/DX2                !
 ! A36   A(11,12,13)            81.9978         estimate D2E/DX2                !
 ! A37   A(11,12,21)           151.2689         estimate D2E/DX2                !
 ! A38   A(13,12,21)           125.2578         estimate D2E/DX2                !
 ! A39   A(6,13,10)            119.0604         estimate D2E/DX2                !
 ! A40   A(6,13,12)            133.2944         estimate D2E/DX2                !
 ! A41   A(10,13,12)            93.3194         estimate D2E/DX2                !
 ! D1    D(1,2,3,4)            136.5792         estimate D2E/DX2                !
 ! D2    D(1,2,3,14)           -42.1784         estimate D2E/DX2                !
 ! D3    D(8,2,3,4)            -17.0964         estimate D2E/DX2                !
 ! D4    D(8,2,3,14)           164.1461         estimate D2E/DX2                !
 ! D5    D(1,2,8,7)            -61.0011         estimate D2E/DX2                !
 ! D6    D(1,2,8,9)            145.8344         estimate D2E/DX2                !
 ! D7    D(3,2,8,7)             91.9653         estimate D2E/DX2                !
 ! D8    D(3,2,8,9)            -61.1991         estimate D2E/DX2                !
 ! D9    D(2,3,4,5)             -3.2862         estimate D2E/DX2                !
 ! D10   D(14,3,4,5)           175.3024         estimate D2E/DX2                !
 ! D11   D(3,4,5,6)            -15.8051         estimate D2E/DX2                !
 ! D12   D(3,4,5,15)          -128.5731         estimate D2E/DX2                !
 ! D13   D(3,4,5,16)           119.9171         estimate D2E/DX2                !
 ! D14   D(4,5,6,7)            -20.3495         estimate D2E/DX2                !
 ! D15   D(4,5,6,13)           146.192          estimate D2E/DX2                !
 ! D16   D(4,5,6,17)            65.7852         estimate D2E/DX2                !
 ! D17   D(15,5,6,7)            93.3208         estimate D2E/DX2                !
 ! D18   D(15,5,6,13)         -100.1378         estimate D2E/DX2                !
 ! D19   D(15,5,6,17)          179.4555         estimate D2E/DX2                !
 ! D20   D(16,5,6,7)          -153.9403         estimate D2E/DX2                !
 ! D21   D(16,5,6,13)           12.6011         estimate D2E/DX2                !
 ! D22   D(16,5,6,17)          -67.8056         estimate D2E/DX2                !
 ! D23   D(5,6,7,8)             69.8318         estimate D2E/DX2                !
 ! D24   D(5,6,7,18)           -74.6632         estimate D2E/DX2                !
 ! D25   D(5,6,7,19)          -177.8058         estimate D2E/DX2                !
 ! D26   D(13,6,7,8)           -86.1366         estimate D2E/DX2                !
 ! D27   D(13,6,7,18)          129.3683         estimate D2E/DX2                !
 ! D28   D(13,6,7,19)           26.2258         estimate D2E/DX2                !
 ! D29   D(17,6,7,8)           -67.0354         estimate D2E/DX2                !
 ! D30   D(17,6,7,18)          148.4695         estimate D2E/DX2                !
 ! D31   D(17,6,7,19)           45.327          estimate D2E/DX2                !
 ! D32   D(5,6,13,10)          -70.1256         estimate D2E/DX2                !
 ! D33   D(5,6,13,12)          161.9544         estimate D2E/DX2                !
 ! D34   D(7,6,13,10)           85.8613         estimate D2E/DX2                !
 ! D35   D(7,6,13,12)          -42.0587         estimate D2E/DX2                !
 ! D36   D(17,6,13,10)          66.3946         estimate D2E/DX2                !
 ! D37   D(17,6,13,12)         -61.5254         estimate D2E/DX2                !
 ! D38   D(6,7,8,2)           -140.2564         estimate D2E/DX2                !
 ! D39   D(6,7,8,9)             17.9412         estimate D2E/DX2                !
 ! D40   D(18,7,8,2)           -80.8183         estimate D2E/DX2                !
 ! D41   D(18,7,8,9)            77.3793         estimate D2E/DX2                !
 ! D42   D(19,7,8,2)           108.8596         estimate D2E/DX2                !
 ! D43   D(19,7,8,9)           -92.9428         estimate D2E/DX2                !
 ! D44   D(2,8,9,10)           159.0453         estimate D2E/DX2                !
 ! D45   D(2,8,9,20)            -3.6618         estimate D2E/DX2                !
 ! D46   D(7,8,9,10)            12.1375         estimate D2E/DX2                !
 ! D47   D(7,8,9,20)          -150.5696         estimate D2E/DX2                !
 ! D48   D(8,9,10,11)           26.6508         estimate D2E/DX2                !
 ! D49   D(8,9,10,13)          -20.1293         estimate D2E/DX2                !
 ! D50   D(20,9,10,11)        -167.5189         estimate D2E/DX2                !
 ! D51   D(20,9,10,13)         145.701          estimate D2E/DX2                !
 ! D52   D(9,10,11,12)         -25.6808         estimate D2E/DX2                !
 ! D53   D(13,10,11,12)         22.7724         estimate D2E/DX2                !
 ! D54   D(9,10,13,6)           -1.8311         estimate D2E/DX2                !
 ! D55   D(9,10,13,12)         143.0597         estimate D2E/DX2                !
 ! D56   D(11,10,13,6)        -169.4209         estimate D2E/DX2                !
 ! D57   D(11,10,13,12)        -24.53           estimate D2E/DX2                !
 ! D58   D(10,11,12,13)        -26.4687         estimate D2E/DX2                !
 ! D59   D(10,11,12,21)        170.5458         estimate D2E/DX2                !
 ! D60   D(11,12,13,6)         159.0267         estimate D2E/DX2                !
 ! D61   D(11,12,13,10)         22.7136         estimate D2E/DX2                !
 ! D62   D(21,12,13,6)         -30.8924         estimate D2E/DX2                !
 ! D63   D(21,12,13,10)       -167.2056         estimate D2E/DX2                !
 --------------------------------------------------------------------------------
 Trust Radius=3.00D-01 FncErr=1.00D-07 GrdErr=1.00D-06 EigMax=2.50D+02 EigMin=1.00D-04
 Number of steps in this run=    126 maximum allowed number of steps=    126.
 GradGradGradGradGradGradGradGradGradGradGradGradGradGradGradGradGradGrad

                          Input orientation:                          
 ---------------------------------------------------------------------
 Center     Atomic      Atomic             Coordinates (Angstroms)
 Number     Number       Type             X           Y           Z
 ---------------------------------------------------------------------
      1          8           0        1.271500   -0.171740   -0.001450
      2          6           0        2.142310   -0.382210    0.830310
      3          6           0        3.285990   -1.277130    0.533340
      4          7           0        4.477340   -0.939200    0.878000
      5          6           0        4.931000    0.382740    1.544030
      6          6           0        4.007300    1.893580    1.642720
      7          6           0        3.052200    1.809100    0.637500
      8          6           0        2.537830    0.597390    1.853430
      9          6           0        3.006930    0.572940    3.264230
     10          6           0        3.903420    1.829510    4.163870
     11          7           0        4.384810    2.973010    4.571280
     12          6           0        4.271890    3.656430    3.378010
     13          6           0        4.371450    2.477050    2.898670
     14          1           0        2.996800   -2.203760   -0.010280
     15          1           0        5.745860    0.697330    0.896670
     16          1           0        5.387500    0.104550    2.511140
     17          1           0        2.933090    2.326700    2.197640
     18          1           0        3.947650    2.016090   -0.012070
     19          1           0        2.407350    2.697070    0.534480
     20          1           0        3.112870   -0.320000    3.910040
     21          1           0        4.313610    4.604060    2.779710
 ---------------------------------------------------------------------
                    Distance matrix (angstroms):
                    1          2          3          4          5
     1  O    0.000000
     2  C    1.222470   0.000000
     3  C    2.359249   1.482254   0.000000
     4  N    3.411721   2.401016   1.285419   0.000000
     5  C    4.010972   2.978479   2.546119   1.548202   0.000000
     6  C    3.801768   3.052445   3.435755   2.971595   1.773584
     7  C    2.739138   2.380528   3.096825   3.105160   2.527091
     8  C    2.373970   1.470655   2.411681   2.659750   2.422615
     9  C    3.772391   2.753878   3.310346   3.184771   2.587916
    10  C    5.318073   4.371022   4.818006   4.334983   3.164273
    11  N    6.363333   5.502832   5.964567   5.380917   4.021451
    12  C    5.922666   5.228432   5.779633   5.235654   3.809850
    13  C    5.003646   4.174032   4.568028   3.970527   2.556224
    14  H    2.665679   2.180548   1.112563   2.140129   3.584270
    15  H    4.645622   3.762364   3.175132   2.070682   1.087216
    16  H    4.830207   3.686921   3.199543   2.141250   1.105027
    17  H    3.720091   3.135780   3.985226   3.846071   2.863185
    18  H    3.456659   3.117804   3.403023   3.131539   2.460946
    19  H    3.131684   3.104791   4.070169   4.198253   3.569891
    20  H    4.325781   3.229643   3.513996   3.382078   3.065525
    21  H    6.308530   5.777334   6.378917   5.862682   4.441578
                    6          7          8          9         10
     6  C    0.000000
     7  C    1.389180   0.000000
     8  C    1.970748   1.792011   0.000000
     9  C    2.318216   2.903421   1.486946   0.000000
    10  C    2.524102   3.627710   2.953149   1.786621   0.000000
    11  N    3.143906   4.313370   4.054826   3.060599   1.305876
    12  C    2.487746   3.522878   3.832628   3.334813   2.022618
    13  C    1.431940   2.701753   2.826272   2.370904   1.496359
    14  H    4.532297   4.065186   3.395660   4.293318   5.874756
    15  H    2.238347   2.925578   3.349154   3.622506   3.918037
    16  H    2.420689   3.445235   2.965821   2.540403   2.812383
    17  H    1.284312   1.648070   1.806993   2.053957   2.248288
    18  H    1.660391   1.125441   2.735031   3.701591   4.180340
    19  H    2.105619   1.102241   2.483004   3.510407   4.020368
    20  H    3.292519   3.904647   2.324203   1.107084   2.304299
    21  H    2.955211   3.740591   4.479374   4.265220   3.127664
                   11         12         13         14         15
    11  N    0.000000
    12  C    1.379749   0.000000
    13  C    1.744643   1.276956   0.000000
    14  H    7.050972   6.888265   5.679933   0.000000
    15  H    4.531439   4.133510   3.010716   4.098318   0.000000
    16  H    3.671189   3.822552   2.609845   4.171487   1.756793
    17  H    2.856462   2.225723   1.607149   5.040242   3.501292
    18  H    4.702542   3.780012   2.977331   4.325651   2.408007
    19  H    4.503581   3.533064   3.081476   4.966120   3.908426
    20  H    3.591516   4.175928   3.229610   4.350969   4.128922
    21  H    2.423864   1.121475   2.131119   7.474252   4.567244
                   16         17         18         19         20
    16  H    0.000000
    17  H    3.325712   0.000000
    18  H    3.477606   2.451250   0.000000
    19  H    4.416972   1.783165   1.770586   0.000000
    20  H    2.703906   3.157476   4.640810   4.582016   0.000000
    21  H    4.633677   2.725988   3.824337   3.508774   5.192859
                   21
    21  H    0.000000
 Stoichiometry    C10H8N2O
 Framework group  C1[X(C10H8N2O)]
 Deg. of freedom    57
 Full point group                 C1      NOp   1
 Largest Abelian subgroup         C1      NOp   1
 Largest concise Abelian subgroup C1      NOp   1
                         Standard orientation:                         
 ---------------------------------------------------------------------
 Center     Atomic      Atomic             Coordinates (Angstroms)
 Number     Number       Type             X           Y           Z
 ---------------------------------------------------------------------
      1          8           0        2.810007   -1.500741    0.327148
      2          6           0        2.133065   -0.506754    0.546627
      3          6           0        2.576782    0.836259    0.103334
      4          7           0        1.739761    1.646693   -0.439708
      5          6           0        0.252508    1.383857   -0.780186
      6          6           0       -0.554391   -0.193190   -0.866412
      7          6           0        0.465239   -1.121136   -1.036978
      8          6           0        0.665828   -0.532178    0.643556
      9          6           0       -0.389274    0.175308    1.416364
     10          6           0       -2.125560    0.349612    1.033031
     11          7           0       -3.330117    0.152270    0.568909
     12          6           0       -2.983003   -0.611639   -0.526382
     13          6           0       -1.891994    0.042104   -0.412644
     14          1           0        3.660288    1.025071    0.271145
     15          1           0        0.200076    1.684148   -1.823793
     16          1           0       -0.334373    2.126315   -0.209737
     17          1           0       -0.871976   -1.152857   -0.074178
     18          1           0        0.462404   -0.695886   -2.078981
     19          1           0        0.128774   -2.164831   -1.148462
     20          1           0       -0.232463    0.928646    2.212309
     21          1           0       -3.255478   -1.270882   -1.391750
 ---------------------------------------------------------------------
 Rotational constants (GHZ):           1.9704046           0.6266527           0.5919017
 Standard basis: 6-31G(2df,p) (6D, 7F)
 There are   443 symmetry adapted cartesian basis functions of A   symmetry.
 There are   404 symmetry adapted basis functions of A   symmetry.
   404 basis functions,   628 primitive gaussians,   443 cartesian basis functions
    45 alpha electrons       45 beta electrons
       nuclear repulsion energy       750.7898828519 Hartrees.
 NAtoms=   21 NActive=   21 NUniq=   21 SFac= 1.00D+00 NAtFMM=   60 NAOKFM=F Big=F
 Integral buffers will be    131072 words long.
 Raffenetti 2 integral format.
 Two-electron integral symmetry is turned on.
 One-electron integrals computed using PRISM.
 PrsmSu:  requested number of processors reduced to:  13 ShMem   1 Linda.
 NBasis=   404 RedAO= T EigKep=  1.97D-04  NBF=   404
 NBsUse=   404 1.00D-06 EigRej= -1.00D+00 NBFU=   404
 ExpMin= 1.61D-01 ExpMax= 5.48D+03 ExpMxC= 8.25D+02 IAcc=3 IRadAn=         5 AccDes= 0.00D+00
 Harris functional with IExCor=  402 and IRadAn=       5 diagonalized for initial guess.
 HarFok:  IExCor=  402 AccDes= 0.00D+00 IRadAn=         5 IDoV= 1 UseB2=F ITyADJ=14
 ICtDFT=  3500011 ScaDFX=  1.000000  1.000000  1.000000  1.000000
 FoFCou: FMM=F IPFlag=           0 FMFlag=      100000 FMFlg1=           0
         NFxFlg=           0 DoJE=T BraDBF=F KetDBF=T FulRan=T
         wScrn=  0.000000 ICntrl=       500 IOpCl=  0 I1Cent=   200000004 NGrid=           0
         NMat0=    1 NMatS0=      1 NMatT0=    0 NMatD0=    1 NMtDS0=    0 NMtDT0=    0
 Petite list used in FoFCou.
 Requested convergence on RMS density matrix=1.00D-08 within 128 cycles.
 Requested convergence on MAX density matrix=1.00D-06.
 Requested convergence on             energy=1.00D-06.
 No special actions if energy rises.
 Integral accuracy reduced to 1.0D-05 until final iterations.
 EnCoef did     4 forward-backward iterations
 EnCoef did     4 forward-backward iterations
 Initial convergence to 1.0D-05 achieved.  Increase integral accuracy.
 SCF Done:  E(RB3LYP) =  -569.782610587     A.U. after   21 cycles
            NFock= 21  Conv=0.87D-08     -V/T= 2.0063

 **********************************************************************

            Population analysis using the SCF density.

 **********************************************************************

 Orbital symmetries:
       Occupied  (A) (A) (A) (A) (A) (A) (A) (A) (A) (A) (A) (A)
                 (A) (A) (A) (A) (A) (A) (A) (A) (A) (A) (A) (A)
                 (A) (A) (A) (A) (A) (A) (A) (A) (A) (A) (A) (A)
                 (A) (A) (A) (A) (A) (A) (A) (A) (A)
       Virtual   (A) (A) (A) (A) (A) (A) (A) (A) (A) (A) (A) (A)
                 (A) (A) (A) (A) (A) (A) (A) (A) (A) (A) (A) (A)
                 (A) (A) (A) (A) (A) (A) (A) (A) (A) (A) (A) (A)
                 (A) (A) (A) (A) (A) (A) (A) (A) (A) (A) (A) (A)
                 (A) (A) (A) (A) (A) (A) (A) (A) (A) (A) (A) (A)
                 (A) (A) (A) (A) (A) (A) (A) (A) (A) (A) (A) (A)
                 (A) (A) (A) (A) (A) (A) (A) (A) (A) (A) (A) (A)
                 (A) (A) (A) (A) (A) (A) (A) (A) (A) (A) (A) (A)
                 (A) (A) (A) (A) (A) (A) (A) (A) (A) (A) (A) (A)
                 (A) (A) (A) (A) (A) (A) (A) (A) (A) (A) (A) (A)
                 (A) (A) (A) (A) (A) (A) (A) (A) (A) (A) (A) (A)
                 (A) (A) (A) (A) (A) (A) (A) (A) (A) (A) (A) (A)
                 (A) (A) (A) (A) (A) (A) (A) (A) (A) (A) (A) (A)
                 (A) (A) (A) (A) (A) (A) (A) (A) (A) (A) (A) (A)
                 (A) (A) (A) (A) (A) (A) (A) (A) (A) (A) (A) (A)
                 (A) (A) (A) (A) (A) (A) (A) (A) (A) (A) (A) (A)
                 (A) (A) (A) (A) (A) (A) (A) (A) (A) (A) (A) (A)
                 (A) (A) (A) (A) (A) (A) (A) (A) (A) (A) (A) (A)
                 (A) (A) (A) (A) (A) (A) (A) (A) (A) (A) (A) (A)
                 (A) (A) (A) (A) (A) (A) (A) (A) (A) (A) (A) (A)
                 (A) (A) (A) (A) (A) (A) (A) (A) (A) (A) (A) (A)
                 (A) (A) (A) (A) (A) (A) (A) (A) (A) (A) (A) (A)
                 (A) (A) (A) (A) (A) (A) (A) (A) (A) (A) (A) (A)
                 (A) (A) (A) (A) (A) (A) (A) (A) (A) (A) (A) (A)
                 (A) (A) (A) (A) (A) (A) (A) (A) (A) (A) (A) (A)
                 (A) (A) (A) (A) (A) (A) (A) (A) (A) (A) (A) (A)
                 (A) (A) (A) (A) (A) (A) (A) (A) (A) (A) (A) (A)
                 (A) (A) (A) (A) (A) (A) (A) (A) (A) (A) (A) (A)
                 (A) (A) (A) (A) (A) (A) (A) (A) (A) (A) (A) (A)
                 (A) (A) (A) (A) (A) (A) (A) (A) (A) (A) (A)
 The electronic state is 1-A.
 Alpha  occ. eigenvalues --  -19.15436 -14.36571 -14.35373 -10.29484 -10.29006
 Alpha  occ. eigenvalues --  -10.27439 -10.26180 -10.25339 -10.25335 -10.24303
 Alpha  occ. eigenvalues --  -10.23227 -10.22736 -10.19998  -1.06107  -1.03991
 Alpha  occ. eigenvalues --   -0.94172  -0.90849  -0.77663  -0.75916  -0.73472
 Alpha  occ. eigenvalues --   -0.69449  -0.66113  -0.61737  -0.58386  -0.54593
 Alpha  occ. eigenvalues --   -0.52628  -0.51189  -0.50041  -0.48848  -0.47665
 Alpha  occ. eigenvalues --   -0.45976  -0.45133  -0.44812  -0.43038  -0.41409
 Alpha  occ. eigenvalues --   -0.38370  -0.35251  -0.32760  -0.32612  -0.30627
 Alpha  occ. eigenvalues --   -0.28928  -0.25974  -0.23149  -0.19665  -0.16920
 Alpha virt. eigenvalues --   -0.11228  -0.08980  -0.06758  -0.03568  -0.01828
 Alpha virt. eigenvalues --    0.00106   0.03190   0.06231   0.08198   0.09779
 Alpha virt. eigenvalues --    0.10437   0.10747   0.12392   0.14318   0.16706
 Alpha virt. eigenvalues --    0.17342   0.18228   0.19309   0.21630   0.23268
 Alpha virt. eigenvalues --    0.26102   0.27834   0.29506   0.32193   0.34016
 Alpha virt. eigenvalues --    0.34840   0.36753   0.39713   0.41570   0.42365
 Alpha virt. eigenvalues --    0.44343   0.45080   0.46414   0.47197   0.48023
 Alpha virt. eigenvalues --    0.48649   0.49148   0.50959   0.52109   0.52212
 Alpha virt. eigenvalues --    0.54340   0.54891   0.55599   0.56569   0.58106
 Alpha virt. eigenvalues --    0.59497   0.60215   0.60510   0.62120   0.63071
 Alpha virt. eigenvalues --    0.63862   0.64574   0.66601   0.67652   0.67793
 Alpha virt. eigenvalues --    0.68760   0.69553   0.70412   0.70885   0.71832
 Alpha virt. eigenvalues --    0.73340   0.74877   0.75623   0.76768   0.77920
 Alpha virt. eigenvalues --    0.78554   0.80218   0.81309   0.82661   0.83113
 Alpha virt. eigenvalues --    0.83817   0.85397   0.86018   0.87148   0.87592
 Alpha virt. eigenvalues --    0.88632   0.90197   0.91595   0.93317   0.94093
 Alpha virt. eigenvalues --    0.97010   0.98496   0.99744   1.00954   1.02775
 Alpha virt. eigenvalues --    1.03862   1.06600   1.07711   1.09344   1.10446
 Alpha virt. eigenvalues --    1.11223   1.13175   1.14858   1.16183   1.19864
 Alpha virt. eigenvalues --    1.20526   1.22474   1.23530   1.25543   1.26115
 Alpha virt. eigenvalues --    1.30642   1.31860   1.33280   1.33906   1.34333
 Alpha virt. eigenvalues --    1.36284   1.38273   1.39194   1.40397   1.41226
 Alpha virt. eigenvalues --    1.42997   1.44009   1.46649   1.47090   1.48179
 Alpha virt. eigenvalues --    1.49550   1.52472   1.53953   1.54877   1.56856
 Alpha virt. eigenvalues --    1.58323   1.59655   1.60914   1.63253   1.64019
 Alpha virt. eigenvalues --    1.64722   1.65327   1.66239   1.68734   1.72163
 Alpha virt. eigenvalues --    1.72741   1.74796   1.76343   1.77114   1.79771
 Alpha virt. eigenvalues --    1.82223   1.85211   1.86593   1.88605   1.89879
 Alpha virt. eigenvalues --    1.92714   1.93369   1.95831   2.00075   2.01053
 Alpha virt. eigenvalues --    2.01645   2.04048   2.05527   2.09471   2.13520
 Alpha virt. eigenvalues --    2.15312   2.18024   2.20724   2.24554   2.26359
 Alpha virt. eigenvalues --    2.29331   2.33551   2.36773   2.38648   2.41734
 Alpha virt. eigenvalues --    2.43635   2.46187   2.48898   2.54154   2.54515
 Alpha virt. eigenvalues --    2.56371   2.56805   2.57888   2.62205   2.63017
 Alpha virt. eigenvalues --    2.65827   2.67242   2.71267   2.74390   2.75121
 Alpha virt. eigenvalues --    2.76721   2.80600   2.81172   2.81894   2.83296
 Alpha virt. eigenvalues --    2.84423   2.85116   2.86623   2.88449   2.90125
 Alpha virt. eigenvalues --    2.91484   2.93467   2.95691   2.96830   2.98634
 Alpha virt. eigenvalues --    3.01461   3.01908   3.04440   3.05130   3.06805
 Alpha virt. eigenvalues --    3.08407   3.09701   3.11030   3.14522   3.16037
 Alpha virt. eigenvalues --    3.16666   3.17469   3.18225   3.22272   3.23423
 Alpha virt. eigenvalues --    3.23952   3.24700   3.28903   3.31566   3.32981
 Alpha virt. eigenvalues --    3.34369   3.35486   3.36327   3.37703   3.38386
 Alpha virt. eigenvalues --    3.40961   3.42396   3.43915   3.48588   3.49035
 Alpha virt. eigenvalues --    3.51306   3.52654   3.53393   3.57157   3.58991
 Alpha virt. eigenvalues --    3.61770   3.63845   3.64667   3.66525   3.68510
 Alpha virt. eigenvalues --    3.71821   3.73301   3.74787   3.77226   3.79596
 Alpha virt. eigenvalues --    3.80917   3.82060   3.86728   3.87185   3.89826
 Alpha virt. eigenvalues --    3.90533   3.91640   3.93138   3.95663   3.96842
 Alpha virt. eigenvalues --    3.99600   4.00553   4.03812   4.04964   4.08696
 Alpha virt. eigenvalues --    4.11569   4.12904   4.13905   4.15936   4.17720
 Alpha virt. eigenvalues --    4.20245   4.22195   4.22891   4.25881   4.26514
 Alpha virt. eigenvalues --    4.28686   4.30792   4.32634   4.34750   4.35390
 Alpha virt. eigenvalues --    4.37170   4.39961   4.40775   4.42855   4.43944
 Alpha virt. eigenvalues --    4.44913   4.45470   4.47309   4.48453   4.50483
 Alpha virt. eigenvalues --    4.52126   4.53555   4.54907   4.56179   4.58111
 Alpha virt. eigenvalues --    4.59036   4.62636   4.63158   4.65374   4.66459
 Alpha virt. eigenvalues --    4.68200   4.69587   4.71949   4.73039   4.74312
 Alpha virt. eigenvalues --    4.75902   4.77606   4.79285   4.79641   4.82371
 Alpha virt. eigenvalues --    4.82614   4.85350   4.86847   4.88416   4.89642
 Alpha virt. eigenvalues --    4.91786   4.93652   4.96087   4.98292   5.00243
 Alpha virt. eigenvalues --    5.01252   5.04094   5.05095   5.06290   5.07625
 Alpha virt. eigenvalues --    5.08301   5.10293   5.11428   5.13137   5.16264
 Alpha virt. eigenvalues --    5.19090   5.20549   5.23580   5.25173   5.28689
 Alpha virt. eigenvalues --    5.32584   5.35531   5.36275   5.39034   5.42011
 Alpha virt. eigenvalues --    5.44643   5.47893   5.56136   5.56888   5.64112
 Alpha virt. eigenvalues --    5.64409   5.67065   5.70763   5.74886   5.81911
 Alpha virt. eigenvalues --    5.86549   5.88806   6.00830   6.19820   6.29987
 Alpha virt. eigenvalues --    6.35740   6.49828   6.84310   6.96700  10.53158
 Alpha virt. eigenvalues --   10.57846  10.68634  11.10309  11.17767  11.34520
 Alpha virt. eigenvalues --   11.40268  11.48742  11.88755  11.99563  12.31444
 Alpha virt. eigenvalues --   12.56411  13.06250  15.79469  18.08573
          Condensed to atoms (all electrons):
               1          2          3          4          5          6
     1  O    7.715157   0.711257  -0.067214   0.000764   0.000287   0.003557
     2  C    0.711257   4.532630   0.333854  -0.031638  -0.003481   0.014894
     3  C   -0.067214   0.333854   4.967465   0.623709  -0.087426   0.002762
     4  N    0.000764  -0.031638   0.623709   6.369935   0.346541  -0.027094
     5  C    0.000287  -0.003481  -0.087426   0.346541   5.166459   0.339039
     6  C    0.003557   0.014894   0.002762  -0.027094   0.339039   5.266560
     7  C   -0.017941  -0.051656   0.009240   0.004869  -0.086689   0.209100
     8  C   -0.061943   0.302289  -0.105385  -0.021683  -0.054062  -0.124473
     9  C    0.002205  -0.015476   0.005860  -0.001490  -0.049053  -0.012835
    10  C   -0.000004   0.000792  -0.000051   0.000690  -0.012659  -0.076260
    11  N    0.000000   0.000004   0.000001  -0.000006   0.000544   0.025340
    12  C    0.000000  -0.000094   0.000004  -0.000072   0.003291  -0.058370
    13  C    0.000018   0.000392   0.000306   0.000886  -0.067445   0.380407
    14  H    0.004839  -0.052163   0.344941  -0.017346   0.004681  -0.000268
    15  H    0.000008   0.000357   0.001388  -0.021129   0.328964  -0.034621
    16  H   -0.000015  -0.000564   0.001664  -0.014314   0.345699  -0.023770
    17  H   -0.000335   0.003839  -0.000020  -0.000608   0.025044   0.250318
    18  H   -0.000922   0.000659   0.000411  -0.001170  -0.001523  -0.068116
    19  H    0.001177  -0.001903  -0.000167  -0.000039   0.005859  -0.026771
    20  H    0.000002  -0.002704   0.001719   0.000176  -0.000950   0.003683
    21  H    0.000000   0.000004  -0.000000   0.000000  -0.000041  -0.008398
               7          8          9         10         11         12
     1  O   -0.017941  -0.061943   0.002205  -0.000004   0.000000   0.000000
     2  C   -0.051656   0.302289  -0.015476   0.000792   0.000004  -0.000094
     3  C    0.009240  -0.105385   0.005860  -0.000051   0.000001   0.000004
     4  N    0.004869  -0.021683  -0.001490   0.000690  -0.000006  -0.000072
     5  C   -0.086689  -0.054062  -0.049053  -0.012659   0.000544   0.003291
     6  C    0.209100  -0.124473  -0.012835  -0.076260   0.025340  -0.058370
     7  C    5.527614   0.316665  -0.023632   0.011561  -0.002041  -0.004506
     8  C    0.316665   5.390327   0.449652  -0.011716   0.001473   0.002077
     9  C   -0.023632   0.449652   5.220007   0.351317  -0.018198   0.002995
    10  C    0.011561  -0.011716   0.351317   5.226611   0.403892  -0.197799
    11  N   -0.002041   0.001473  -0.018198   0.403892   6.595204   0.405787
    12  C   -0.004506   0.002077   0.002995  -0.197799   0.405787   5.284625
    13  C   -0.025985  -0.027362  -0.032384   0.446133  -0.241625   0.514717
    14  H   -0.000095   0.004599  -0.000069   0.000002  -0.000000  -0.000000
    15  H   -0.000308   0.005965   0.003361   0.000531   0.000007  -0.000695
    16  H    0.003696  -0.001847   0.009777   0.007985  -0.000503  -0.000495
    17  H   -0.157471  -0.035779  -0.016286  -0.058242   0.009533   0.010476
    18  H    0.309497  -0.000951   0.000214  -0.001005   0.000244  -0.000685
    19  H    0.372895  -0.023364   0.000492  -0.000037  -0.000067   0.002476
    20  H    0.000947  -0.040114   0.367815  -0.036325   0.000897  -0.000170
    21  H    0.001006  -0.000296  -0.000384   0.012523  -0.018355   0.336983
              13         14         15         16         17         18
     1  O    0.000018   0.004839   0.000008  -0.000015  -0.000335  -0.000922
     2  C    0.000392  -0.052163   0.000357  -0.000564   0.003839   0.000659
     3  C    0.000306   0.344941   0.001388   0.001664  -0.000020   0.000411
     4  N    0.000886  -0.017346  -0.021129  -0.014314  -0.000608  -0.001170
     5  C   -0.067445   0.004681   0.328964   0.345699   0.025044  -0.001523
     6  C    0.380407  -0.000268  -0.034621  -0.023770   0.250318  -0.068116
     7  C   -0.025985  -0.000095  -0.000308   0.003696  -0.157471   0.309497
     8  C   -0.027362   0.004599   0.005965  -0.001847  -0.035779  -0.000951
     9  C   -0.032384  -0.000069   0.003361   0.009777  -0.016286   0.000214
    10  C    0.446133   0.000002   0.000531   0.007985  -0.058242  -0.001005
    11  N   -0.241625  -0.000000   0.000007  -0.000503   0.009533   0.000244
    12  C    0.514717  -0.000000  -0.000695  -0.000495   0.010476  -0.000685
    13  C    4.796350  -0.000001   0.000679  -0.003453  -0.010673   0.000066
    14  H   -0.000001   0.566428  -0.000056  -0.000150  -0.000008   0.000025
    15  H    0.000679  -0.000056   0.621009  -0.029397  -0.000708   0.003605
    16  H   -0.003453  -0.000150  -0.029397   0.552084  -0.000689   0.000346
    17  H   -0.010673  -0.000008  -0.000708  -0.000689   0.696179   0.019335
    18  H    0.000066   0.000025   0.003605   0.000346   0.019335   0.591520
    19  H   -0.008045  -0.000002  -0.000309  -0.000127   0.002266  -0.040497
    20  H    0.001898  -0.000012  -0.000006  -0.000369   0.001880   0.000014
    21  H   -0.021935   0.000000  -0.000006  -0.000036  -0.000560  -0.000154
              19         20         21
     1  O    0.001177   0.000002   0.000000
     2  C   -0.001903  -0.002704   0.000004
     3  C   -0.000167   0.001719  -0.000000
     4  N   -0.000039   0.000176   0.000000
     5  C    0.005859  -0.000950  -0.000041
     6  C   -0.026771   0.003683  -0.008398
     7  C    0.372895   0.000947   0.001006
     8  C   -0.023364  -0.040114  -0.000296
     9  C    0.000492   0.367815  -0.000384
    10  C   -0.000037  -0.036325   0.012523
    11  N   -0.000067   0.000897  -0.018355
    12  C    0.002476  -0.000170   0.336983
    13  C   -0.008045   0.001898  -0.021935
    14  H   -0.000002  -0.000012   0.000000
    15  H   -0.000309  -0.000006  -0.000006
    16  H   -0.000127  -0.000369  -0.000036
    17  H    0.002266   0.001880  -0.000560
    18  H   -0.040497   0.000014  -0.000154
    19  H    0.560598  -0.000038  -0.000048
    20  H   -0.000038   0.521382   0.000006
    21  H   -0.000048   0.000006   0.555424
 Mulliken charges:
               1
     1  O   -0.290897
     2  C    0.258706
     3  C   -0.033061
     4  N   -0.210980
     5  C   -0.203077
     6  C   -0.034683
     7  C   -0.396766
     8  C    0.035927
     9  C   -0.243887
    10  C   -0.067938
    11  N   -0.162131
    12  C   -0.300548
    13  C    0.297057
    14  H    0.144656
    15  H    0.121360
    16  H    0.154478
    17  H    0.262509
    18  H    0.189085
    19  H    0.155653
    20  H    0.180269
    21  H    0.144267
 Sum of Mulliken charges =  -0.00000
 Mulliken charges with hydrogens summed into heavy atoms:
               1
     1  O   -0.290897
     2  C    0.258706
     3  C    0.111595
     4  N   -0.210980
     5  C    0.072760
     6  C    0.227827
     7  C   -0.052028
     8  C    0.035927
     9  C   -0.063618
    10  C   -0.067938
    11  N   -0.162131
    12  C   -0.156281
    13  C    0.297057
 Electronic spatial extent (au):  <R**2>=           1993.3009
 Charge=             -0.0000 electrons
 Dipole moment (field-independent basis, Debye):
    X=              0.7301    Y=             -0.2334    Z=             -1.7147  Tot=              1.8782
 Quadrupole moment (field-independent basis, Debye-Ang):
   XX=            -91.3545   YY=            -77.9982   ZZ=            -70.3904
   XY=              7.1513   XZ=              7.6678   YZ=              4.9894
 Traceless Quadrupole moment (field-independent basis, Debye-Ang):
   XX=            -11.4401   YY=              1.9162   ZZ=              9.5240
   XY=              7.1513   XZ=              7.6678   YZ=              4.9894
 Octapole moment (field-independent basis, Debye-Ang**2):
  XXX=             61.3683  YYY=             -8.6926  ZZZ=             -4.8105  XYY=            -16.7006
  XXY=              4.4180  XXZ=            -14.6443  XZZ=              5.7305  YZZ=             -0.9449
  YYZ=             -3.2307  XYZ=              2.3027
 Hexadecapole moment (field-independent basis, Debye-Ang**3):
 XXXX=          -2025.6609 YYYY=           -483.1629 ZZZZ=           -350.1206 XXXY=             89.2079
 XXXZ=             91.9768 YYYX=            -12.7914 YYYZ=             15.5633 ZZZX=             14.3300
 ZZZY=             11.7245 XXYY=           -420.2091 XXZZ=           -369.2211 YYZZ=           -134.8994
 XXYZ=             17.3124 YYXZ=             12.2254 ZZXY=              0.3860
 N-N= 7.507898828519D+02 E-N=-2.826620438400D+03  KE= 5.662177836442D+02
 PrsmSu:  requested number of processors reduced to:  13 ShMem   1 Linda.
 Calling FoFJK, ICntrl=      2127 FMM=F ISym2X=0 I1Cent= 0 IOpClX= 0 NMat=1 NMatS=1 NMatT=0.
 ***** Axes restored to original set *****
 -------------------------------------------------------------------
 Center     Atomic                   Forces (Hartrees/Bohr)
 Number     Number              X              Y              Z
 -------------------------------------------------------------------
      1        8          -0.004436311   -0.013103592    0.020782387
      2        6           0.005348729   -0.003971751   -0.028903078
      3        6           0.014757186   -0.008252128    0.015090577
      4        7          -0.003991519    0.012925339   -0.003787383
      5        6          -0.004930934   -0.002188920   -0.027343654
      6        6           0.069829942   -0.051059179    0.061078002
      7        6          -0.002206108    0.049553496   -0.021856662
      8        6          -0.011753500    0.016326773    0.042255898
      9        6          -0.017008029    0.025421237    0.027289000
     10        6           0.012363080   -0.119114264   -0.116340979
     11        7          -0.023703703    0.096833060    0.179429556
     12        6           0.026711454    0.102029766   -0.008737748
     13        6          -0.063387445   -0.071877850   -0.144651878
     14        1           0.017081564    0.007584197    0.005056208
     15        1           0.009498766   -0.001002789   -0.005013230
     16        1          -0.010616358    0.007193228   -0.003488142
     17        1           0.039852693    0.006178357    0.034773542
     18        1          -0.030076979   -0.041975459   -0.052642200
     19        1          -0.009196581   -0.012624281    0.001536450
     20        1          -0.023886961    0.007896809   -0.014397574
     21        1           0.009751015   -0.006772048    0.039870909
 -------------------------------------------------------------------
 Cartesian Forces:  Max     0.179429556 RMS     0.047824049

 GradGradGradGradGradGradGradGradGradGradGradGradGradGradGradGradGradGrad
 Berny optimization.
 FormGI is forming the generalized inverse of G from B-inverse, IUseBI=4.
 Internal  Forces:  Max     0.128645355 RMS     0.025838052
 Search for a local minimum.
 Step number   1 out of a maximum of  126
 All quantities printed in internal units (Hartrees-Bohrs-Radians)
 Mixed Optimization -- RFO/linear search
 Second derivative matrix not updated -- first step.
 ITU=  0
     Eigenvalues ---    0.00398   0.00628   0.00908   0.01321   0.01409
     Eigenvalues ---    0.01629   0.01692   0.02083   0.02229   0.02306
     Eigenvalues ---    0.02602   0.02832   0.02875   0.03453   0.03895
     Eigenvalues ---    0.04618   0.05296   0.05490   0.06007   0.07667
     Eigenvalues ---    0.10146   0.12432   0.13171   0.14281   0.14371
     Eigenvalues ---    0.14642   0.15142   0.15503   0.15579   0.15997
     Eigenvalues ---    0.17589   0.18401   0.19409   0.20186   0.21821
     Eigenvalues ---    0.22628   0.22790   0.23282   0.24141   0.27459
     Eigenvalues ---    0.31018   0.31415   0.32287   0.32330   0.32911
     Eigenvalues ---    0.33132   0.33381   0.33435   0.34870   0.35136
     Eigenvalues ---    0.38728   0.43972   0.44406   0.54133   0.68088
     Eigenvalues ---    0.68559   0.94297
 RFO step:  Lambda=-1.83480770D-01 EMin= 3.97664360D-03
 Linear search not attempted -- first point.
 Maximum step size (   0.300) exceeded in Quadratic search.
    -- Step size scaled by   0.566
 Iteration  1 RMS(Cart)=  0.07273186 RMS(Int)=  0.00263956
 Iteration  2 RMS(Cart)=  0.00338069 RMS(Int)=  0.00056453
 Iteration  3 RMS(Cart)=  0.00000742 RMS(Int)=  0.00056449
 Iteration  4 RMS(Cart)=  0.00000001 RMS(Int)=  0.00056449
 Variable       Old X    -DE/DX   Delta X   Delta X   Delta X     New X
                                 (Linear)    (Quad)   (Total)
    R1        2.31013  -0.01324   0.00000  -0.00665  -0.00665   2.30349
    R2        2.80105   0.02102   0.00000   0.02267   0.02266   2.82372
    R3        2.77914   0.01919   0.00000   0.02150   0.02162   2.80076
    R4        2.42909  -0.02054   0.00000  -0.01388  -0.01404   2.41505
    R5        2.10244  -0.01323   0.00000  -0.01477  -0.01477   2.08767
    R6        2.92568  -0.02980   0.00000  -0.03864  -0.03881   2.88687
    R7        3.35159  -0.02063   0.00000  -0.03650  -0.03658   3.31501
    R8        2.05454   0.00981   0.00000   0.01038   0.01038   2.06492
    R9        2.08820  -0.00925   0.00000  -0.01016  -0.01016   2.07803
   R10        2.62517   0.09854   0.00000   0.08910   0.08916   2.71433
   R11        2.70597  -0.00163   0.00000   0.00325   0.00347   2.70944
   R12        2.42700  -0.01623   0.00000  -0.02431  -0.02431   2.40268
   R13        3.38641   0.00109   0.00000   0.00212   0.00193   3.38834
   R14        2.12677  -0.00127   0.00000  -0.00145  -0.00145   2.12532
   R15        2.08293  -0.00493   0.00000  -0.00539  -0.00539   2.07754
   R16        2.80992  -0.04684   0.00000  -0.05589  -0.05611   2.75381
   R17        3.37622  -0.03448   0.00000  -0.06681  -0.06680   3.30943
   R18        2.09209  -0.01705   0.00000  -0.01882  -0.01882   2.07326
   R19        2.46775   0.10803   0.00000   0.07027   0.06983   2.53757
   R20        2.82771   0.05687   0.00000   0.06313   0.06482   2.89253
   R21        2.60735   0.04791   0.00000   0.04097   0.04022   2.64757
   R22        2.41310   0.12865   0.00000   0.08227   0.08207   2.49516
   R23        2.11928  -0.02663   0.00000  -0.03028  -0.03028   2.08900
    A1        2.11444   0.00415   0.00000   0.00547   0.00531   2.11974
    A2        2.15345   0.00346   0.00000   0.00540   0.00517   2.15862
    A3        1.91137  -0.00578   0.00000  -0.00109  -0.00100   1.91038
    A4        2.09748   0.01160   0.00000   0.01762   0.01736   2.11484
    A5        1.98252   0.00881   0.00000   0.01528   0.01536   1.99789
    A6        2.20295  -0.02049   0.00000  -0.03314  -0.03303   2.16992
    A7        2.22863   0.00476   0.00000   0.00447   0.00390   2.23253
    A8        2.21266   0.01714   0.00000   0.02064   0.02039   2.23305
    A9        1.78292  -0.00179   0.00000   0.00008  -0.00017   1.78275
   A10        1.85730  -0.00456   0.00000  -0.00501  -0.00485   1.85245
   A11        1.74872   0.00331   0.00000   0.01012   0.01012   1.75884
   A12        1.96157  -0.01564   0.00000  -0.02619  -0.02614   1.93543
   A13        1.85911   0.00261   0.00000   0.00366   0.00372   1.86283
   A14        1.84004  -0.01000   0.00000  -0.00755  -0.00797   1.83207
   A15        1.83741   0.01898   0.00000   0.02452   0.02453   1.86194
   A16        2.41423   0.00770   0.00000   0.02013   0.01967   2.43391
   A17        2.55765  -0.00934   0.00000  -0.01673  -0.01623   2.54142
   A18        1.32648   0.02311   0.00000   0.04572   0.04546   1.37194
   A19        1.26224  -0.03310   0.00000  -0.06420  -0.06349   1.19875
   A20        1.31551  -0.01456   0.00000  -0.00964  -0.00964   1.30587
   A21        1.42976   0.03213   0.00000   0.06626   0.06526   1.49502
   A22        2.00520   0.01597   0.00000   0.02573   0.02556   2.03076
   A23        2.41038   0.00994   0.00000   0.02217   0.02021   2.43059
   A24        2.02664  -0.00734   0.00000  -0.02001  -0.01995   2.00669
   A25        1.83731   0.00153   0.00000   0.00938   0.00752   1.84483
   A26        1.62637   0.00163   0.00000   0.01577   0.01526   1.64163
   A27        2.39493  -0.02590   0.00000  -0.04355  -0.04326   2.35167
   A28        2.17044   0.02054   0.00000   0.01851   0.01854   2.18898
   A29        2.24528   0.02829   0.00000   0.03225   0.03288   2.27815
   A30        2.21046  -0.02955   0.00000  -0.04154  -0.04199   2.16847
   A31        1.79828   0.00352   0.00000   0.01359   0.01335   1.81162
   A32        2.85053   0.03646   0.00000   0.05718   0.05690   2.90742
   A33        1.60635  -0.00223   0.00000   0.00533   0.00453   1.61088
   A34        1.33826   0.03193   0.00000   0.04333   0.04227   1.38053
   A35        1.70494  -0.02252   0.00000  -0.02972  -0.02942   1.67553
   A36        1.43113   0.02711   0.00000   0.04859   0.04828   1.47941
   A37        2.64014  -0.04220   0.00000  -0.07198  -0.07256   2.56758
   A38        2.18616   0.01658   0.00000   0.02683   0.02764   2.21380
   A39        2.07800  -0.02640   0.00000  -0.03286  -0.03259   2.04541
   A40        2.32643   0.07214   0.00000   0.10448   0.10457   2.43099
   A41        1.62873  -0.02919   0.00000  -0.03972  -0.03985   1.58888
    D1        2.38376   0.00462   0.00000   0.01174   0.01169   2.39544
    D2       -0.73615   0.00860   0.00000   0.02368   0.02390  -0.71226
    D3       -0.29839   0.00016   0.00000  -0.00964  -0.00955  -0.30793
    D4        2.86489   0.00413   0.00000   0.00229   0.00267   2.86755
    D5       -1.06467  -0.01323   0.00000  -0.04562  -0.04550  -1.11017
    D6        2.54529  -0.01420   0.00000  -0.03663  -0.03669   2.50860
    D7        1.60510  -0.00851   0.00000  -0.02370  -0.02371   1.58139
    D8       -1.06813  -0.00948   0.00000  -0.01471  -0.01489  -1.08302
    D9       -0.05736   0.01305   0.00000   0.02752   0.02797  -0.02938
   D10        3.05960   0.00900   0.00000   0.01472   0.01525   3.07485
   D11       -0.27585   0.00477   0.00000   0.00942   0.00980  -0.26605
   D12       -2.24402  -0.00751   0.00000  -0.01575  -0.01556  -2.25959
   D13        2.09295  -0.00807   0.00000  -0.01806  -0.01790   2.07505
   D14       -0.35517  -0.01701   0.00000  -0.04063  -0.04100  -0.39617
   D15        2.55153  -0.01993   0.00000  -0.04374  -0.04379   2.50774
   D16        1.14817   0.00852   0.00000   0.02442   0.02445   1.17261
   D17        1.62875  -0.00749   0.00000  -0.02065  -0.02077   1.60799
   D18       -1.74773  -0.01041   0.00000  -0.02375  -0.02356  -1.77129
   D19        3.13209   0.01804   0.00000   0.04441   0.04468  -3.10641
   D20       -2.68677  -0.00853   0.00000  -0.02081  -0.02099  -2.70776
   D21        0.21993  -0.01145   0.00000  -0.02392  -0.02378   0.19615
   D22       -1.18343   0.01700   0.00000   0.04424   0.04446  -1.13898
   D23        1.21879   0.01556   0.00000   0.03471   0.03455   1.25335
   D24       -1.30312   0.01557   0.00000   0.04517   0.04501  -1.25811
   D25       -3.10330   0.00024   0.00000   0.00642   0.00591  -3.09739
   D26       -1.50337   0.01238   0.00000   0.02622   0.02593  -1.47744
   D27        2.25790   0.01240   0.00000   0.03668   0.03638   2.29428
   D28        0.45773  -0.00294   0.00000  -0.00207  -0.00272   0.45501
   D29       -1.16999   0.00367   0.00000   0.00696   0.00676  -1.16323
   D30        2.59128   0.00369   0.00000   0.01743   0.01721   2.60849
   D31        0.79110  -0.01165   0.00000  -0.02133  -0.02189   0.76922
   D32       -1.22392  -0.00912   0.00000  -0.02418  -0.02480  -1.24872
   D33        2.82664  -0.01186   0.00000  -0.04199  -0.04218   2.78445
   D34        1.49856  -0.00949   0.00000  -0.01961  -0.02020   1.47836
   D35       -0.73406  -0.01223   0.00000  -0.03742  -0.03759  -0.77165
   D36        1.15880  -0.00636   0.00000  -0.01122  -0.01169   1.14711
   D37       -1.07382  -0.00910   0.00000  -0.02903  -0.02908  -1.10290
   D38       -2.44794   0.01897   0.00000   0.03695   0.03701  -2.41092
   D39        0.31313   0.00292   0.00000   0.00596   0.00568   0.31882
   D40       -1.41055   0.04550   0.00000   0.11957   0.12017  -1.29038
   D41        1.35052   0.02946   0.00000   0.08858   0.08884   1.43936
   D42        1.89996   0.00663   0.00000   0.01045   0.01058   1.91054
   D43       -1.62216  -0.00941   0.00000  -0.02055  -0.02075  -1.64291
   D44        2.77586  -0.00128   0.00000  -0.01021  -0.00982   2.76605
   D45       -0.06391  -0.01306   0.00000  -0.03382  -0.03353  -0.09744
   D46        0.21184   0.00656   0.00000   0.00904   0.00961   0.22145
   D47       -2.62794  -0.00522   0.00000  -0.01457  -0.01410  -2.64203
   D48        0.46514   0.01716   0.00000   0.04010   0.03993   0.50507
   D49       -0.35132  -0.00881   0.00000  -0.00933  -0.00999  -0.36131
   D50       -2.92376   0.02095   0.00000   0.05064   0.05137  -2.87239
   D51        2.54296  -0.00502   0.00000   0.00121   0.00145   2.54441
   D52       -0.44821  -0.02050   0.00000  -0.06289  -0.06359  -0.51180
   D53        0.39745  -0.00141   0.00000  -0.02227  -0.02195   0.37550
   D54       -0.03196  -0.01054   0.00000  -0.01473  -0.01414  -0.04609
   D55        2.49686   0.03993   0.00000   0.06585   0.06623   2.56309
   D56       -2.95695  -0.03361   0.00000  -0.04877  -0.04969  -3.00664
   D57       -0.42813   0.01686   0.00000   0.03181   0.03068  -0.39745
   D58       -0.46197   0.01633   0.00000   0.03056   0.02938  -0.43259
   D59        2.97659  -0.00610   0.00000  -0.01278  -0.01046   2.96613
   D60        2.77554  -0.01362   0.00000  -0.02439  -0.02394   2.75160
   D61        0.39643  -0.00326   0.00000  -0.02240  -0.02191   0.37452
   D62       -0.53917  -0.01631   0.00000  -0.02591  -0.02423  -0.56340
   D63       -2.91829  -0.00596   0.00000  -0.02392  -0.02220  -2.94049
         Item               Value     Threshold  Converged?
 Maximum Force            0.128645     0.000450     NO 
 RMS     Force            0.025838     0.000300     NO 
 Maximum Displacement     0.379249     0.001800     NO 
 RMS     Displacement     0.073534     0.001200     NO 
 Predicted change in Energy=-8.940045D-02
 GradGradGradGradGradGradGradGradGradGradGradGradGradGradGradGradGradGrad

                          Input orientation:                          
 ---------------------------------------------------------------------
 Center     Atomic      Atomic             Coordinates (Angstroms)
 Number     Number       Type             X           Y           Z
 ---------------------------------------------------------------------
      1          8           0        1.240828   -0.276416    0.030508
      2          6           0        2.133136   -0.412281    0.849759
      3          6           0        3.310222   -1.292856    0.581751
      4          7           0        4.495455   -0.923244    0.884837
      5          6           0        4.936438    0.403367    1.500789
      6          6           0        4.020065    1.894394    1.620823
      7          6           0        3.028592    1.804923    0.585392
      8          6           0        2.509598    0.628721    1.835254
      9          6           0        2.961131    0.614242    3.220712
     10          6           0        3.839882    1.815298    4.143870
     11          7           0        4.370738    2.936773    4.657355
     12          6           0        4.338284    3.673062    3.465836
     13          6           0        4.368704    2.491776    2.876726
     14          1           0        3.063832   -2.246409    0.081252
     15          1           0        5.741704    0.711974    0.829729
     16          1           0        5.405147    0.152573    2.463410
     17          1           0        2.993846    2.352492    2.215464
     18          1           0        3.882294    1.969079   -0.128145
     19          1           0        2.368612    2.675903    0.465083
     20          1           0        3.023034   -0.288949    3.840465
     21          1           0        4.457158    4.659088    2.980400
 ---------------------------------------------------------------------
                    Distance matrix (angstroms):
                    1          2          3          4          5
     1  O    0.000000
     2  C    1.218952   0.000000
     3  C    2.370529   1.494246   0.000000
     4  N    3.426494   2.417202   1.277988   0.000000
     5  C    4.035017   2.991258   2.523169   1.527665   0.000000
     6  C    3.868549   3.078277   3.426676   2.950721   1.754226
     7  C    2.799280   2.405770   3.110557   3.111953   2.538146
     8  C    2.384567   1.482097   2.429964   2.693606   2.460122
     9  C    3.732307   2.713070   3.274600   3.189722   2.627630
    10  C    5.296233   4.327385   4.757084   4.307050   3.190902
    11  N    6.444271   5.542636   5.968669   5.398813   4.086816
    12  C    6.082276   5.328843   5.833969   5.273735   3.861360
    13  C    5.054449   4.188068   4.550905   3.955509   2.564561
    14  H    2.684546   2.195637   1.104749   2.108568   3.541617
    15  H    4.676917   3.779698   3.161162   2.056723   1.092709
    16  H    4.841962   3.691746   3.165220   2.115848   1.099648
    17  H    3.841648   3.201553   4.007202   3.841333   2.843151
    18  H    3.470556   3.112351   3.386951   3.125321   2.493211
    19  H    3.190132   3.120947   4.080599   4.201609   3.582016
    20  H    4.206208   3.122731   3.421918   3.362453   3.100725
    21  H    6.588311   5.971558   6.518790   5.962825   4.531017
                    6          7          8          9         10
     6  C    0.000000
     7  C    1.436363   0.000000
     8  C    1.982276   1.793031   0.000000
     9  C    2.306464   2.892609   1.457253   0.000000
    10  C    2.530709   3.649802   2.916732   1.751273   0.000000
    11  N    3.229559   4.434334   4.093311   3.073286   1.342826
    12  C    2.582440   3.674532   3.907800   3.363482   2.039466
    13  C    1.433774   2.741875   2.830532   2.371650   1.530663
    14  H    4.520056   4.082731   3.413220   4.248539   5.796945
    15  H    2.233380   2.935168   3.385929   3.668506   3.977157
    16  H    2.379569   3.450395   3.000916   2.599972   2.835252
    17  H    1.271446   1.719933   1.830421   2.008260   2.173270
    18  H    1.755974   1.124673   2.745139   3.728132   4.274991
    19  H    2.161894   1.099388   2.467428   3.492137   4.054472
    20  H    3.269231   3.870378   2.264200   1.097123   2.277532
    21  H    3.111757   3.990378   4.620412   4.319332   3.133981
                   11         12         13         14         15
    11  N    0.000000
    12  C    1.401032   0.000000
    13  C    1.835392   1.320383   0.000000
    14  H    7.036625   6.936841   5.654004   0.000000
    15  H    4.634652   4.205554   3.040234   4.059956   0.000000
    16  H    3.692582   3.812728   2.591701   4.112365   1.759294
    17  H    2.863573   2.261603   1.531960   5.070468   3.487446
    18  H    4.906731   4.003521   3.088536   4.299310   2.440336
    19  H    4.653139   3.725379   3.138518   4.985961   3.920170
    20  H    3.590112   4.191391   3.236055   4.238513   4.178222
    21  H    2.405413   1.105453   2.171592   7.617894   4.674949
                   16         17         18         19         20
    16  H    0.000000
    17  H    3.273452   0.000000
    18  H    3.512112   2.535516   0.000000
    19  H    4.425048   1.886622   1.772781   0.000000
    20  H    2.786697   3.101402   4.646168   4.540024   0.000000
    21  H    4.634074   2.836687   4.150863   3.823855   5.222978
                   21
    21  H    0.000000
 Stoichiometry    C10H8N2O
 Framework group  C1[X(C10H8N2O)]
 Deg. of freedom    57
 Full point group                 C1      NOp   1
 Largest Abelian subgroup         C1      NOp   1
 Largest concise Abelian subgroup C1      NOp   1
                         Standard orientation:                         
 ---------------------------------------------------------------------
 Center     Atomic      Atomic             Coordinates (Angstroms)
 Number     Number       Type             X           Y           Z
 ---------------------------------------------------------------------
      1          8           0        2.870458   -1.486553    0.244632
      2          6           0        2.142870   -0.545650    0.511394
      3          6           0        2.544749    0.861209    0.208060
      4          7           0        1.713116    1.693920   -0.290168
      5          6           0        0.259055    1.444990   -0.687030
      6          6           0       -0.548896   -0.095675   -0.912583
      7          6           0        0.506263   -1.031807   -1.183569
      8          6           0        0.664370   -0.637508    0.558410
      9          6           0       -0.374721   -0.039199    1.386602
     10          6           0       -2.083488    0.190282    1.079337
     11          7           0       -3.358684    0.109884    0.666307
     12          6           0       -3.076044   -0.497213   -0.564319
     13          6           0       -1.890439    0.069213   -0.434269
     14          1           0        3.604972    1.089710    0.418260
     15          1           0        0.226934    1.843309   -1.704047
     16          1           0       -0.347363    2.118298   -0.064023
     17          1           0       -0.922334   -1.100075   -0.228257
     18          1           0        0.585487   -0.522512   -2.183184
     19          1           0        0.198568   -2.064918   -1.399582
     20          1           0       -0.179073    0.592684    2.261888
     21          1           0       -3.474191   -1.002541   -1.463290
 ---------------------------------------------------------------------
 Rotational constants (GHZ):           1.9502466           0.6151635           0.5845287
 Standard basis: 6-31G(2df,p) (6D, 7F)
 There are   443 symmetry adapted cartesian basis functions of A   symmetry.
 There are   404 symmetry adapted basis functions of A   symmetry.
   404 basis functions,   628 primitive gaussians,   443 cartesian basis functions
    45 alpha electrons       45 beta electrons
       nuclear repulsion energy       745.9525182794 Hartrees.
 NAtoms=   21 NActive=   21 NUniq=   21 SFac= 1.00D+00 NAtFMM=   60 NAOKFM=F Big=F
 Integral buffers will be    131072 words long.
 Raffenetti 2 integral format.
 Two-electron integral symmetry is turned on.
 One-electron integrals computed using PRISM.
 PrsmSu:  requested number of processors reduced to:  13 ShMem   1 Linda.
 NBasis=   404 RedAO= T EigKep=  2.17D-04  NBF=   404
 NBsUse=   404 1.00D-06 EigRej= -1.00D+00 NBFU=   404
 Initial guess from the checkpoint file:  "OdC1CdNCC2CC1dCC1dNCdC12.chk"
 B after Tr=     0.000000   -0.000000    0.000000
         Rot=    0.998736   -0.050204   -0.001082   -0.002213 Ang=  -5.76 deg.
 ExpMin= 1.61D-01 ExpMax= 5.48D+03 ExpMxC= 8.25D+02 IAcc=2 IRadAn=         4 AccDes= 0.00D+00
 Harris functional with IExCor=  402 and IRadAn=       4 diagonalized for initial guess.
 HarFok:  IExCor=  402 AccDes= 0.00D+00 IRadAn=         4 IDoV= 1 UseB2=F ITyADJ=14
 ICtDFT=  3500011 ScaDFX=  1.000000  1.000000  1.000000  1.000000
 FoFCou: FMM=F IPFlag=           0 FMFlag=      100000 FMFlg1=           0
         NFxFlg=           0 DoJE=T BraDBF=F KetDBF=T FulRan=T
         wScrn=  0.000000 ICntrl=       500 IOpCl=  0 I1Cent=   200000004 NGrid=           0
         NMat0=    1 NMatS0=      1 NMatT0=    0 NMatD0=    1 NMtDS0=    0 NMtDT0=    0
 Petite list used in FoFCou.
 Requested convergence on RMS density matrix=1.00D-08 within 128 cycles.
 Requested convergence on MAX density matrix=1.00D-06.
 Requested convergence on             energy=1.00D-06.
 No special actions if energy rises.
 Integral accuracy reduced to 1.0D-05 until final iterations.
 Initial convergence to 1.0D-05 achieved.  Increase integral accuracy.
 SCF Done:  E(RB3LYP) =  -569.873009738     A.U. after   18 cycles
            NFock= 18  Conv=0.73D-08     -V/T= 2.0071
 PrsmSu:  requested number of processors reduced to:  13 ShMem   1 Linda.
 Calling FoFJK, ICntrl=      2127 FMM=F ISym2X=0 I1Cent= 0 IOpClX= 0 NMat=1 NMatS=1 NMatT=0.
 ***** Axes restored to original set *****
 -------------------------------------------------------------------
 Center     Atomic                   Forces (Hartrees/Bohr)
 Number     Number              X              Y              Z
 -------------------------------------------------------------------
      1        8          -0.003507439   -0.010824308    0.019594572
      2        6           0.009571448   -0.003939966   -0.023130458
      3        6           0.007808540   -0.004464384    0.012383482
      4        7          -0.000984498    0.013335443   -0.000514333
      5        6          -0.004965084    0.001920944   -0.024308099
      6        6           0.056492905   -0.034929080    0.024939208
      7        6           0.013556008    0.048978771    0.008265760
      8        6          -0.008922311    0.009926176    0.024049401
      9        6          -0.012151553    0.019242000    0.040501195
     10        6           0.023554801   -0.070409636   -0.114132455
     11        7          -0.043318050    0.051767697    0.128826147
     12        6           0.033310572    0.033803881   -0.009152262
     13        6          -0.060636482   -0.018167314   -0.105997948
     14        1           0.012212138    0.005258090    0.002707054
     15        1           0.006498402   -0.000168896   -0.001758035
     16        1          -0.007729052    0.005990654   -0.000576927
     17        1           0.035490434    0.009171303    0.029884862
     18        1          -0.032922430   -0.044535533   -0.037802020
     19        1          -0.006374207   -0.009443547    0.004773676
     20        1          -0.024394544    0.002834311   -0.010304999
     21        1           0.007410402   -0.005346607    0.031752177
 -------------------------------------------------------------------
 Cartesian Forces:  Max     0.128826147 RMS     0.035426879

 GradGradGradGradGradGradGradGradGradGradGradGradGradGradGradGradGradGrad
 Berny optimization.
 Using GEDIIS/GDIIS optimizer.
 FormGI is forming the generalized inverse of G from B-inverse, IUseBI=4.
 Internal  Forces:  Max     0.062860728 RMS     0.018003947
 Search for a local minimum.
 Step number   2 out of a maximum of  126
 All quantities printed in internal units (Hartrees-Bohrs-Radians)
 Mixed Optimization -- RFO/linear search
 Update second derivatives using D2CorX and points    1    2
 DE= -9.04D-02 DEPred=-8.94D-02 R= 1.01D+00
 TightC=F SS=  1.41D+00  RLast= 4.03D-01 DXNew= 5.0454D-01 1.2105D+00
 Trust test= 1.01D+00 RLast= 4.03D-01 DXMaxT set to 5.05D-01
 ITU=  1  0
 Use linear search instead of GDIIS.
 Linear search step of   0.599 exceeds DXMaxT=   0.505 but not scaled.
 Quartic linear search produced a step of  2.00000.
 Iteration  1 RMS(Cart)=  0.14039826 RMS(Int)=  0.01092002
 Iteration  2 RMS(Cart)=  0.01448619 RMS(Int)=  0.00325210
 Iteration  3 RMS(Cart)=  0.00017711 RMS(Int)=  0.00324744
 Iteration  4 RMS(Cart)=  0.00000238 RMS(Int)=  0.00324744
 Iteration  5 RMS(Cart)=  0.00000001 RMS(Int)=  0.00324744
 Variable       Old X    -DE/DX   Delta X   Delta X   Delta X     New X
                                 (Linear)    (Quad)   (Total)
    R1        2.30349  -0.01181  -0.01330   0.00000  -0.01330   2.29019
    R2        2.82372   0.01264   0.04532   0.00000   0.04502   2.86873
    R3        2.80076   0.01193   0.04324   0.00000   0.04411   2.84486
    R4        2.41505  -0.01313  -0.02809   0.00000  -0.02934   2.38570
    R5        2.08767  -0.00849  -0.02953   0.00000  -0.02953   2.05814
    R6        2.88687  -0.02526  -0.07762   0.00000  -0.07874   2.80813
    R7        3.31501  -0.02232  -0.07316   0.00000  -0.07347   3.24153
    R8        2.06492   0.00582   0.02076   0.00000   0.02076   2.08568
    R9        2.07803  -0.00517  -0.02033   0.00000  -0.02033   2.05770
   R10        2.71433   0.05576   0.17833   0.00000   0.17841   2.89274
   R11        2.70944  -0.01392   0.00693   0.00000   0.00818   2.71762
   R12        2.40268  -0.01136  -0.04863   0.00000  -0.04863   2.35406
   R13        3.38834  -0.00068   0.00386   0.00000   0.00219   3.39053
   R14        2.12532  -0.00751  -0.00290   0.00000  -0.00290   2.12242
   R15        2.07754  -0.00418  -0.01078   0.00000  -0.01078   2.06676
   R16        2.75381  -0.03946  -0.11222   0.00000  -0.11354   2.64027
   R17        3.30943  -0.03836  -0.13360   0.00000  -0.13324   3.17619
   R18        2.07326  -0.00953  -0.03765   0.00000  -0.03765   2.03561
   R19        2.53757   0.05647   0.13965   0.00000   0.13777   2.67534
   R20        2.89253   0.04652   0.12965   0.00000   0.14066   3.03320
   R21        2.64757   0.02484   0.08044   0.00000   0.07505   2.72262
   R22        2.49516   0.06286   0.16413   0.00000   0.16271   2.65787
   R23        2.08900  -0.01792  -0.06055   0.00000  -0.06055   2.02845
    A1        2.11974   0.00352   0.01061   0.00000   0.00956   2.12930
    A2        2.15862   0.00319   0.01034   0.00000   0.00892   2.16754
    A3        1.91038  -0.00468  -0.00199   0.00000  -0.00122   1.90915
    A4        2.11484   0.00765   0.03471   0.00000   0.03286   2.14770
    A5        1.99789   0.00695   0.03073   0.00000   0.03135   2.02923
    A6        2.16992  -0.01472  -0.06606   0.00000  -0.06523   2.10469
    A7        2.23253   0.00378   0.00781   0.00000   0.00419   2.23672
    A8        2.23305   0.01303   0.04078   0.00000   0.03959   2.27264
    A9        1.78275  -0.00083  -0.00034   0.00000  -0.00191   1.78084
   A10        1.85245  -0.00211  -0.00970   0.00000  -0.00881   1.84364
   A11        1.75884   0.00200   0.02024   0.00000   0.02009   1.77893
   A12        1.93543  -0.01337  -0.05229   0.00000  -0.05211   1.88332
   A13        1.86283   0.00196   0.00744   0.00000   0.00783   1.87066
   A14        1.83207  -0.00492  -0.01594   0.00000  -0.01854   1.81353
   A15        1.86194   0.01563   0.04907   0.00000   0.04862   1.91056
   A16        2.43391   0.00718   0.03935   0.00000   0.03635   2.47025
   A17        2.54142  -0.01197  -0.03245   0.00000  -0.02886   2.51256
   A18        1.37194   0.01608   0.09092   0.00000   0.08949   1.46143
   A19        1.19875  -0.02909  -0.12698   0.00000  -0.12221   1.07654
   A20        1.30587  -0.00504  -0.01927   0.00000  -0.01949   1.28638
   A21        1.49502   0.01924   0.13052   0.00000   0.12507   1.62009
   A22        2.03076   0.01013   0.05112   0.00000   0.04963   2.08039
   A23        2.43059   0.00300   0.04041   0.00000   0.02877   2.45935
   A24        2.00669  -0.00622  -0.03991   0.00000  -0.03925   1.96743
   A25        1.84483   0.00446   0.01504   0.00000   0.00376   1.84859
   A26        1.64163   0.00453   0.03051   0.00000   0.02762   1.66924
   A27        2.35167  -0.02212  -0.08651   0.00000  -0.08466   2.26701
   A28        2.18898   0.01504   0.03708   0.00000   0.03730   2.22628
   A29        2.27815   0.01196   0.06575   0.00000   0.07026   2.34842
   A30        2.16847  -0.02180  -0.08397   0.00000  -0.08693   2.08154
   A31        1.81162   0.01210   0.02670   0.00000   0.02459   1.83621
   A32        2.90742   0.03199   0.11379   0.00000   0.11136   3.01878
   A33        1.61088   0.00643   0.00905   0.00000   0.00356   1.61444
   A34        1.38053   0.01710   0.08454   0.00000   0.07735   1.45788
   A35        1.67553  -0.01224  -0.05884   0.00000  -0.05698   1.61855
   A36        1.47941   0.02222   0.09656   0.00000   0.09499   1.57440
   A37        2.56758  -0.03538  -0.14513   0.00000  -0.14746   2.42012
   A38        2.21380   0.01460   0.05527   0.00000   0.05792   2.27171
   A39        2.04541  -0.02307  -0.06518   0.00000  -0.06359   1.98181
   A40        2.43099   0.05775   0.20913   0.00000   0.20829   2.63929
   A41        1.58888  -0.02042  -0.07971   0.00000  -0.08008   1.50880
    D1        2.39544   0.00285   0.02337   0.00000   0.02308   2.41852
    D2       -0.71226   0.00685   0.04779   0.00000   0.04900  -0.66326
    D3       -0.30793  -0.00218  -0.01909   0.00000  -0.01847  -0.32640
    D4        2.86755   0.00182   0.00533   0.00000   0.00745   2.87500
    D5       -1.11017  -0.01241  -0.09099   0.00000  -0.08996  -1.20013
    D6        2.50860  -0.01466  -0.07337   0.00000  -0.07399   2.43461
    D7        1.58139  -0.00720  -0.04741   0.00000  -0.04719   1.53420
    D8       -1.08302  -0.00946  -0.02979   0.00000  -0.03123  -1.11425
    D9       -0.02938   0.00981   0.05595   0.00000   0.05860   0.02922
   D10        3.07485   0.00590   0.03050   0.00000   0.03365   3.10851
   D11       -0.26605   0.00473   0.01959   0.00000   0.02182  -0.24423
   D12       -2.25959  -0.00493  -0.03113   0.00000  -0.02996  -2.28955
   D13        2.07505  -0.00602  -0.03580   0.00000  -0.03475   2.04030
   D14       -0.39617  -0.01229  -0.08201   0.00000  -0.08423  -0.48039
   D15        2.50774  -0.01791  -0.08758   0.00000  -0.08772   2.42002
   D16        1.17261   0.00897   0.04889   0.00000   0.04909   1.22171
   D17        1.60799  -0.00411  -0.04153   0.00000  -0.04228   1.56571
   D18       -1.77129  -0.00973  -0.04711   0.00000  -0.04578  -1.81706
   D19       -3.10641   0.01715   0.08937   0.00000   0.09104  -3.01538
   D20       -2.70776  -0.00579  -0.04199   0.00000  -0.04316  -2.75092
   D21        0.19615  -0.01141  -0.04756   0.00000  -0.04665   0.14950
   D22       -1.13898   0.01547   0.08891   0.00000   0.09016  -1.04882
   D23        1.25335   0.00976   0.06911   0.00000   0.06808   1.32143
   D24       -1.25811   0.01465   0.09001   0.00000   0.08939  -1.16872
   D25       -3.09739  -0.00040   0.01182   0.00000   0.00871  -3.08867
   D26       -1.47744   0.01021   0.05186   0.00000   0.05004  -1.42739
   D27        2.29428   0.01510   0.07276   0.00000   0.07136   2.36564
   D28        0.45501   0.00004  -0.00543   0.00000  -0.00932   0.44569
   D29       -1.16323  -0.00051   0.01352   0.00000   0.01230  -1.15093
   D30        2.60849   0.00438   0.03442   0.00000   0.03362   2.64211
   D31        0.76922  -0.01067  -0.04378   0.00000  -0.04706   0.72215
   D32       -1.24872  -0.00730  -0.04959   0.00000  -0.05323  -1.30195
   D33        2.78445  -0.01037  -0.08437   0.00000  -0.08564   2.69882
   D34        1.47836  -0.01040  -0.04040   0.00000  -0.04375   1.43461
   D35       -0.77165  -0.01346  -0.07517   0.00000  -0.07616  -0.84781
   D36        1.14711  -0.00407  -0.02338   0.00000  -0.02582   1.12129
   D37       -1.10290  -0.00714  -0.05815   0.00000  -0.05823  -1.16113
   D38       -2.41092   0.01671   0.07402   0.00000   0.07436  -2.33656
   D39        0.31882   0.00436   0.01137   0.00000   0.01026   0.32907
   D40       -1.29038   0.04080   0.24034   0.00000   0.24244  -1.04793
   D41        1.43936   0.02845   0.17768   0.00000   0.17834   1.61770
   D42        1.91054   0.00683   0.02116   0.00000   0.02237   1.93290
   D43       -1.64291  -0.00552  -0.04150   0.00000  -0.04174  -1.68464
   D44        2.76605   0.00197  -0.01963   0.00000  -0.01717   2.74888
   D45       -0.09744  -0.01176  -0.06705   0.00000  -0.06521  -0.16264
   D46        0.22145   0.00606   0.01922   0.00000   0.02219   0.24365
   D47       -2.64203  -0.00766  -0.02820   0.00000  -0.02585  -2.66788
   D48        0.50507   0.00952   0.07986   0.00000   0.07801   0.58308
   D49       -0.36131  -0.00842  -0.01997   0.00000  -0.02376  -0.38507
   D50       -2.87239   0.01679   0.10273   0.00000   0.10623  -2.76616
   D51        2.54441  -0.00115   0.00290   0.00000   0.00446   2.54887
   D52       -0.51180  -0.01998  -0.12717   0.00000  -0.12983  -0.64163
   D53        0.37550  -0.00562  -0.04390   0.00000  -0.04101   0.33450
   D54       -0.04609  -0.00661  -0.02827   0.00000  -0.02495  -0.07104
   D55        2.56309   0.03460   0.13246   0.00000   0.13350   2.69659
   D56       -3.00664  -0.02897  -0.09938   0.00000  -0.10425  -3.11089
   D57       -0.39745   0.01224   0.06135   0.00000   0.05420  -0.34326
   D58       -0.43259   0.01021   0.05875   0.00000   0.05114  -0.38145
   D59        2.96613  -0.00674  -0.02091   0.00000  -0.00833   2.95780
   D60        2.75160  -0.01454  -0.04787   0.00000  -0.04439   2.70721
   D61        0.37452  -0.00591  -0.04382   0.00000  -0.03969   0.33483
   D62       -0.56340  -0.01475  -0.04846   0.00000  -0.04152  -0.60492
   D63       -2.94049  -0.00612  -0.04441   0.00000  -0.03682  -2.97731
         Item               Value     Threshold  Converged?
 Maximum Force            0.062861     0.000450     NO 
 RMS     Force            0.018004     0.000300     NO 
 Maximum Displacement     0.769750     0.001800     NO 
 RMS     Displacement     0.146748     0.001200     NO 
[...]
    20  H    3.709695   3.552500   2.061012   1.098649   2.093594
    21  H    3.663529   4.587166   4.874896   4.269008   3.092320
                   11         12         13         14         15
    11  N    0.000000
    12  C    1.336537   0.000000
    13  C    2.275561   1.460089   0.000000
    14  H    6.453044   6.527481   5.336105   0.000000
    15  H    5.364964   4.619946   3.285314   3.944575   0.000000
    16  H    4.230565   3.692132   2.640386   3.931623   1.726590
    17  H    2.496602   1.833214   1.097565   5.722843   3.884476
    18  H    5.245688   4.807517   3.429631   3.881010   2.926511
    19  H    4.257121   3.815224   2.759462   5.248138   3.936452
    20  H    3.361731   4.112501   3.639765   4.011644   5.158718
    21  H    2.109522   1.084511   2.309621   7.538957   5.257342
                   16         17         18         19         20
    16  H    0.000000
    17  H    3.581026   0.000000
    18  H    3.760095   3.185732   0.000000
    19  H    4.333909   1.988578   1.797311   0.000000
    20  H    4.304013   3.713410   4.201627   4.036456   0.000000
    21  H    4.424871   2.535422   5.593691   4.483710   5.173775
                   21
    21  H    0.000000
 Stoichiometry    C10H8N2O
 Framework group  C1[X(C10H8N2O)]
 Deg. of freedom    57
 Full point group                 C1      NOp   1
 Largest Abelian subgroup         C1      NOp   1
 Largest concise Abelian subgroup C1      NOp   1
                         Standard orientation:                         
 ---------------------------------------------------------------------
 Center     Atomic      Atomic             Coordinates (Angstroms)
 Number     Number       Type             X           Y           Z
 ---------------------------------------------------------------------
      1          8           0        2.869154   -1.522463   -0.364147
      2          6           0        1.977708   -0.787925   -0.007441
      3          6           0        2.295088    0.426191    0.847325
      4          7           0        1.674407    1.527970    0.877333
      5          6           0        0.419934    1.910819    0.248019
      6          6           0       -0.485177    1.095070   -0.720589
      7          6           0        0.282411    0.161301   -1.610303
      8          6           0        0.542241   -0.843694   -0.437226
      9          6           0       -0.383128   -1.271121    0.524052
     10          6           0       -1.723386   -1.067467    0.654375
     11          7           0       -3.062379   -0.881927    0.684018
     12          6           0       -3.141300    0.250991   -0.020680
     13          6           0       -1.791691    0.679876   -0.376313
     14          1           0        3.224636    0.374082    1.417278
     15          1           0        0.664203    2.859177   -0.264435
     16          1           0       -0.224159    2.230705    1.076069
     17          1           0       -1.816699    0.044771   -1.271111
     18          1           0        1.263027    0.527135   -1.928002
     19          1           0       -0.254030   -0.277919   -2.457864
     20          1           0        0.050134   -2.063937    1.149157
     21          1           0       -4.100737    0.639143   -0.344690
 ---------------------------------------------------------------------
 Rotational constants (GHZ):           1.6317284           0.6794606           0.5847825
 Standard basis: 6-31G(2df,p) (6D, 7F)
 There are   443 symmetry adapted cartesian basis functions of A   symmetry.
 There are   404 symmetry adapted basis functions of A   symmetry.
   404 basis functions,   628 primitive gaussians,   443 cartesian basis functions
    45 alpha electrons       45 beta electrons
       nuclear repulsion energy       741.1356455157 Hartrees.
 NAtoms=   21 NActive=   21 NUniq=   21 SFac= 1.00D+00 NAtFMM=   60 NAOKFM=F Big=F
 Integral buffers will be    131072 words long.
 Raffenetti 2 integral format.
 Two-electron integral symmetry is turned on.
 One-electron integrals computed using PRISM.
 PrsmSu:  requested number of processors reduced to:  13 ShMem   1 Linda.
 NBasis=   404 RedAO= T EigKep=  1.51D-04  NBF=   404
 NBsUse=   404 1.00D-06 EigRej= -1.00D+00 NBFU=   404
 Initial guess from the checkpoint file:  "OdC1CdNCC2CC1dCC1dNCdC12.chk"
 B after Tr=     0.000000    0.000000   -0.000000
         Rot=    0.999864   -0.015875   -0.004331    0.001058 Ang=  -1.89 deg.
 ExpMin= 1.61D-01 ExpMax= 5.48D+03 ExpMxC= 8.25D+02 IAcc=2 IRadAn=         4 AccDes= 0.00D+00
 Harris functional with IExCor=  402 and IRadAn=       4 diagonalized for initial guess.
 HarFok:  IExCor=  402 AccDes= 0.00D+00 IRadAn=         4 IDoV= 1 UseB2=F ITyADJ=14
 ICtDFT=  3500011 ScaDFX=  1.000000  1.000000  1.000000  1.000000
 FoFCou: FMM=F IPFlag=           0 FMFlag=      100000 FMFlg1=           0
         NFxFlg=           0 DoJE=T BraDBF=F KetDBF=T FulRan=T
         wScrn=  0.000000 ICntrl=       500 IOpCl=  0 I1Cent=   200000004 NGrid=           0
         NMat0=    1 NMatS0=      1 NMatT0=    0 NMatD0=    1 NMtDS0=    0 NMtDT0=    0
 Petite list used in FoFCou.
 Requested convergence on RMS density matrix=1.00D-08 within 128 cycles.
 Requested convergence on MAX density matrix=1.00D-06.
 Requested convergence on             energy=1.00D-06.
 No special actions if energy rises.
 Integral accuracy reduced to 1.0D-05 until final iterations.
 Initial convergence to 1.0D-05 achieved.  Increase integral accuracy.
 SCF Done:  E(RB3LYP) =  -570.280410147     A.U. after   16 cycles
            NFock= 16  Conv=0.85D-08     -V/T= 2.0078
 PrsmSu:  requested number of processors reduced to:  13 ShMem   1 Linda.
 Calling FoFJK, ICntrl=      2127 FMM=F ISym2X=0 I1Cent= 0 IOpClX= 0 NMat=1 NMatS=1 NMatT=0.
 ***** Axes restored to original set *****
 -------------------------------------------------------------------
 Center     Atomic                   Forces (Hartrees/Bohr)
 Number     Number              X              Y              Z
 -------------------------------------------------------------------
      1        8          -0.001478321   -0.003544514    0.003044776
      2        6           0.001534430    0.004241700    0.001273661
      3        6          -0.001156186    0.004133220   -0.005282557
      4        7           0.003603682   -0.001302315    0.003902272
      5        6           0.013750363    0.014587386    0.000482199
      6        6           0.012926703   -0.039556967    0.007256620
      7        6           0.002551797   -0.009712147    0.022487849
      8        6           0.006171508   -0.006009483   -0.010891379
      9        6          -0.028960796    0.004573719    0.020724193
     10        6           0.033504725    0.015066885   -0.039380639
     11        7          -0.002053248   -0.006933288   -0.008157855
     12        6           0.015646712   -0.033278082    0.038705609
     13        6          -0.049267198    0.027710817   -0.036656553
     14        1          -0.002806836   -0.001087144   -0.000783847
     15        1          -0.001825005    0.000385927    0.000986518
     16        1           0.000519209   -0.001847994    0.000175216
     17        1          -0.006975479    0.021917919    0.000307406
     18        1           0.003296563    0.004611386   -0.000011615
     19        1           0.002445851    0.001236393    0.001654915
     20        1           0.000598234    0.001817384    0.004106662
     21        1          -0.002026708    0.002989200   -0.003943451
 -------------------------------------------------------------------
 Cartesian Forces:  Max     0.049267198 RMS     0.015657191

 GradGradGradGradGradGradGradGradGradGradGradGradGradGradGradGradGradGrad
 Berny optimization.
 Using GEDIIS/GDIIS optimizer.
 FormGI is forming the generalized inverse of G from B-inverse, IUseBI=4.
 Internal  Forces:  Max     0.021216370 RMS     0.005078991
 Search for a local minimum.
 Step number  13 out of a maximum of  126
 All quantities printed in internal units (Hartrees-Bohrs-Radians)
 Mixed Optimization -- RFO/linear search
 Update second derivatives using D2CorX and points   12   13
 DE= -2.07D-02 DEPred=-1.96D-02 R= 1.06D+00
 TightC=F SS=  1.41D+00  RLast= 1.68D+00 DXNew= 2.0182D+00 5.0333D+00
 Trust test= 1.06D+00 RLast= 1.68D+00 DXMaxT set to 2.02D+00
 ITU=  1 -1  1  1  1  0  0  0  0  1  0  1  0
 Use linear search instead of GDIIS.
     Eigenvalues ---    0.00001   0.00336   0.00361   0.00710   0.00882
     Eigenvalues ---    0.01018   0.01121   0.01641   0.01825   0.02054
     Eigenvalues ---    0.02479   0.02725   0.02964   0.03377   0.03898
     Eigenvalues ---    0.05678   0.05838   0.06349   0.06980   0.07897
     Eigenvalues ---    0.08313   0.10574   0.11224   0.13307   0.13799
     Eigenvalues ---    0.14727   0.15670   0.15834   0.15942   0.16201
     Eigenvalues ---    0.16841   0.18017   0.20108   0.21348   0.22862
     Eigenvalues ---    0.24769   0.25797   0.27317   0.30877   0.30994
     Eigenvalues ---    0.31537   0.32239   0.32450   0.33067   0.33172
     Eigenvalues ---    0.33321   0.33528   0.35137   0.36054   0.39773
     Eigenvalues ---    0.46749   0.48471   0.54298   0.61696   0.68803
     Eigenvalues ---    0.94197   1.03533
 RFO step:  Lambda=-2.39440576D-02 EMin= 7.27981736D-06
 Quartic linear search produced a step of  0.80391.
 Iteration  1 RMS(Cart)=  0.00864846 RMS(Int)=  0.13235187
 Iteration  2 RMS(Cart)=  0.00206835 RMS(Int)=  0.13054638
 Iteration  3 RMS(Cart)=  0.00164959 RMS(Int)=  0.12907609
 Iteration  4 RMS(Cart)=  0.00158735 RMS(Int)=  0.12764742
 Iteration  5 RMS(Cart)=  0.00149965 RMS(Int)=  0.12628745
 Iteration  6 RMS(Cart)=  0.00144991 RMS(Int)=  0.12496336
 Iteration  7 RMS(Cart)=  0.00137642 RMS(Int)=  0.12369719
 Iteration  8 RMS(Cart)=  0.00134016 RMS(Int)=  0.12245599
 Iteration  9 RMS(Cart)=  0.00125775 RMS(Int)=  0.12128243
 Iteration 10 RMS(Cart)=  0.00124681 RMS(Int)=  0.12011133
 Iteration 11 RMS(Cart)=  0.00111742 RMS(Int)=  0.11905324
 Iteration 12 RMS(Cart)=  0.00124028 RMS(Int)=  0.11787296
 Iteration 13 RMS(Cart)=  0.00119198 RMS(Int)=  0.11679057
 Iteration 14 RMS(Cart)=  0.00123545 RMS(Int)=  0.11566318
 Iteration 15 RMS(Cart)=  0.00115665 RMS(Int)=  0.11459659
 Iteration 16 RMS(Cart)=  0.00113156 RMS(Int)=  0.11354695
 Iteration 17 RMS(Cart)=  0.00106559 RMS(Int)=  0.11254967
 Iteration 18 RMS(Cart)=  0.00104158 RMS(Int)=  0.11156864
 Iteration 19 RMS(Cart)=  0.00099078 RMS(Int)=  0.11062785
 Iteration 20 RMS(Cart)=  0.00096950 RMS(Int)=  0.10970127
 Iteration 21 RMS(Cart)=  0.00092671 RMS(Int)=  0.10880865
 Iteration 22 RMS(Cart)=  0.00091106 RMS(Int)=  0.10792539
 Iteration 23 RMS(Cart)=  0.00086765 RMS(Int)=  0.10707754
 Iteration 24 RMS(Cart)=  0.00086859 RMS(Int)=  0.10622378
 Iteration 25 RMS(Cart)=  0.00079998 RMS(Int)=  0.10543034
 Iteration 26 RMS(Cart)=  0.00087489 RMS(Int)=  0.10455977
 Iteration 27 RMS(Cart)=  0.00082123 RMS(Int)=  0.10376330
 Iteration 28 RMS(Cart)=  0.00084760 RMS(Int)=  0.10292953
 Iteration 29 RMS(Cart)=  0.00078256 RMS(Int)=  0.10215954
 Iteration 30 RMS(Cart)=  0.00076562 RMS(Int)=  0.10140095
 Iteration 31 RMS(Cart)=  0.00074951 RMS(Int)=  0.10065311
 Iteration 32 RMS(Cart)=  0.00073418 RMS(Int)=  0.09991538
 Iteration 33 RMS(Cart)=  0.00071940 RMS(Int)=  0.09918747
 Iteration 34 RMS(Cart)=  0.00070511 RMS(Int)=  0.09846895
 Iteration 35 RMS(Cart)=  0.00069230 RMS(Int)=  0.09775845
 Iteration 36 RMS(Cart)=  0.00069898 RMS(Int)=  0.09703368
 Iteration 37 RMS(Cart)=  0.00066558 RMS(Int)=  0.09634070
 Iteration 38 RMS(Cart)=  0.00065358 RMS(Int)=  0.09565536
 Iteration 39 RMS(Cart)=  0.00064210 RMS(Int)=  0.09497722
 Iteration 40 RMS(Cart)=  0.00063108 RMS(Int)=  0.09430590
 Iteration 41 RMS(Cart)=  0.00062042 RMS(Int)=  0.09364114
 Iteration 42 RMS(Cart)=  0.00061009 RMS(Int)=  0.09298271
 Iteration 43 RMS(Cart)=  0.00060016 RMS(Int)=  0.09233024
 Iteration 44 RMS(Cart)=  0.00059053 RMS(Int)=  0.09168353
 Iteration 45 RMS(Cart)=  0.00058105 RMS(Int)=  0.09104255
 Iteration 46 RMS(Cart)=  0.00057181 RMS(Int)=  0.09040717
 Iteration 47 RMS(Cart)=  0.00056268 RMS(Int)=  0.08977736
 Iteration 48 RMS(Cart)=  0.00055356 RMS(Int)=  0.08915328
 Iteration 49 RMS(Cart)=  0.00054425 RMS(Int)=  0.08853540
 Iteration 50 RMS(Cart)=  0.00053448 RMS(Int)=  0.08792521
 Iteration 51 RMS(Cart)=  0.00052041 RMS(Int)=  0.48816463
 Iteration 52 RMS(Cart)=  0.02659401 RMS(Int)=  0.48187553
 Iteration 53 RMS(Cart)=  0.00899297 RMS(Int)=  0.47707490
 Iteration 54 RMS(Cart)=  0.00692865 RMS(Int)=  0.47093737
 Iteration 55 RMS(Cart)=  0.01301999 RMS(Int)=  0.45904666
 New curvilinear step failed, DQL= 7.03D+00 SP=-1.67D-01.
 ITry= 1 IFail=1 DXMaxC= 4.03D-01 DCOld= 1.00D+10 DXMaxT= 2.02D+00 DXLimC= 3.00D+00 Rises=F
 Iteration  1 RMS(Cart)=  0.00824725 RMS(Int)=  0.13002698
 Iteration  2 RMS(Cart)=  0.00175178 RMS(Int)=  0.12847913
 Iteration  3 RMS(Cart)=  0.00143673 RMS(Int)=  0.12718395
 Iteration  4 RMS(Cart)=  0.00137511 RMS(Int)=  0.12593293
 Iteration  5 RMS(Cart)=  0.00131407 RMS(Int)=  0.12472933
 Iteration  6 RMS(Cart)=  0.00126344 RMS(Int)=  0.12356396
 Iteration  7 RMS(Cart)=  0.00120727 RMS(Int)=  0.12244264
 Iteration  8 RMS(Cart)=  0.00116119 RMS(Int)=  0.12135660
 Iteration  9 RMS(Cart)=  0.00111246 RMS(Int)=  0.12030904
 Iteration 10 RMS(Cart)=  0.00107771 RMS(Int)=  0.11928744
 Iteration 11 RMS(Cart)=  0.00102938 RMS(Int)=  0.11830488
 Iteration 12 RMS(Cart)=  0.00101198 RMS(Int)=  0.11733267
 Iteration 13 RMS(Cart)=  0.00094389 RMS(Int)=  0.11641929
 Iteration 14 RMS(Cart)=  0.00098857 RMS(Int)=  0.11545726
 Iteration 15 RMS(Cart)=  0.00078845 RMS(Int)=  0.11468297
 Iteration 16 RMS(Cart)=  0.00103616 RMS(Int)=  0.11374204
 Iteration 17 RMS(Cart)=  0.00105554 RMS(Int)=  0.11277230
 Iteration 18 RMS(Cart)=  0.00101856 RMS(Int)=  0.11182873
 Iteration 19 RMS(Cart)=  0.00097965 RMS(Int)=  0.11091408
 Iteration 20 RMS(Cart)=  0.00094298 RMS(Int)=  0.11002671
 Iteration 21 RMS(Cart)=  0.00091056 RMS(Int)=  0.10916340
 Iteration 22 RMS(Cart)=  0.00088075 RMS(Int)=  0.10832201
 Iteration 23 RMS(Cart)=  0.00085281 RMS(Int)=  0.10750120
 Iteration 24 RMS(Cart)=  0.00082805 RMS(Int)=  0.10669845
 Iteration 25 RMS(Cart)=  0.00080486 RMS(Int)=  0.10591234
 Iteration 26 RMS(Cart)=  0.00078214 RMS(Int)=  0.10514288
 Iteration 27 RMS(Cart)=  0.00076417 RMS(Int)=  0.10438562
 Iteration 28 RMS(Cart)=  0.00074027 RMS(Int)=  0.10364659
 Iteration 29 RMS(Cart)=  0.00073296 RMS(Int)=  0.10290996
 Iteration 30 RMS(Cart)=  0.00069218 RMS(Int)=  0.10220840
 Iteration 31 RMS(Cart)=  0.00074025 RMS(Int)=  0.10145509
 Iteration 32 RMS(Cart)=  0.00068410 RMS(Int)=  0.10076098
 Iteration 33 RMS(Cart)=  0.00071097 RMS(Int)=  0.10002841
 Iteration 34 RMS(Cart)=  0.00069176 RMS(Int)=  0.09930697
 Iteration 35 RMS(Cart)=  0.00066669 RMS(Int)=  0.09861683
 Iteration 36 RMS(Cart)=  0.00063687 RMS(Int)=  0.09795202
 Iteration 37 RMS(Cart)=  0.00062628 RMS(Int)=  0.09729370
 Iteration 38 RMS(Cart)=  0.00061746 RMS(Int)=  0.09664009
 Iteration 39 RMS(Cart)=  0.00060921 RMS(Int)=  0.09599055
 Iteration 40 RMS(Cart)=  0.00060079 RMS(Int)=  0.09534543
 Iteration 41 RMS(Cart)=  0.00059452 RMS(Int)=  0.09470226
 Iteration 42 RMS(Cart)=  0.00058533 RMS(Int)=  0.09406339
 Iteration 43 RMS(Cart)=  0.00193941 RMS(Int)=  0.53820355
 New curvilinear step failed, DQL= 8.76D+00 SP=-5.73D-01.
 ITry= 2 IFail=1 DXMaxC= 2.06D-01 DCOld= 1.00D+10 DXMaxT= 2.02D+00 DXLimC= 3.00D+00 Rises=F
 Iteration  1 RMS(Cart)=  0.00785260 RMS(Int)=  0.12781156
 Iteration  2 RMS(Cart)=  0.00145862 RMS(Int)=  0.12650716
 Iteration  3 RMS(Cart)=  0.00123942 RMS(Int)=  0.12537739
 Iteration  4 RMS(Cart)=  0.00117464 RMS(Int)=  0.12429643
 Iteration  5 RMS(Cart)=  0.00112506 RMS(Int)=  0.12325400
 Iteration  6 RMS(Cart)=  0.00108019 RMS(Int)=  0.12224630
 Iteration  7 RMS(Cart)=  0.00104340 RMS(Int)=  0.12126676
 Iteration  8 RMS(Cart)=  0.00100461 RMS(Int)=  0.12031731
 Iteration  9 RMS(Cart)=  0.00097210 RMS(Int)=  0.11939252
 Iteration 10 RMS(Cart)=  0.00093812 RMS(Int)=  0.11849427
 Iteration 11 RMS(Cart)=  0.00091192 RMS(Int)=  0.11761549
 Iteration 12 RMS(Cart)=  0.00087952 RMS(Int)=  0.11676237
 Iteration 13 RMS(Cart)=  0.00086165 RMS(Int)=  0.11592134
 Iteration 14 RMS(Cart)=  0.00082430 RMS(Int)=  0.11511137
 Iteration 15 RMS(Cart)=  0.00082617 RMS(Int)=  0.11429460
 Iteration 16 RMS(Cart)=  0.00075440 RMS(Int)=  0.11354342
 Iteration 17 RMS(Cart)=  0.00084433 RMS(Int)=  0.11269867
 Iteration 18 RMS(Cart)=  0.00085203 RMS(Int)=  0.11189249
 Iteration 19 RMS(Cart)=  0.00084463 RMS(Int)=  0.11108435
 Iteration 20 RMS(Cart)=  0.00081234 RMS(Int)=  0.11030150
 Iteration 21 RMS(Cart)=  0.00077359 RMS(Int)=  0.10955144
 Iteration 22 RMS(Cart)=  0.00071997 RMS(Int)=  0.10885432
 Iteration 23 RMS(Cart)=  0.00078881 RMS(Int)=  0.10809899
 Iteration 24 RMS(Cart)=  0.00080061 RMS(Int)=  0.10732246
 Iteration 25 RMS(Cart)=  0.00077955 RMS(Int)=  0.10656033
 Iteration 26 RMS(Cart)=  0.00075732 RMS(Int)=  0.10581437
 Iteration 27 RMS(Cart)=  0.00073698 RMS(Int)=  0.10508309
 Iteration 28 RMS(Cart)=  0.00071852 RMS(Int)=  0.10436492
 Iteration 29 RMS(Cart)=  0.00070076 RMS(Int)=  0.10365928
 Iteration 30 RMS(Cart)=  0.00068441 RMS(Int)=  0.10296513
 Iteration 31 RMS(Cart)=  0.00066925 RMS(Int)=  0.10228141
 Iteration 32 RMS(Cart)=  0.00065495 RMS(Int)=  0.10160749
 Iteration 33 RMS(Cart)=  0.00064182 RMS(Int)=  0.10094225
 Iteration 34 RMS(Cart)=  0.00062839 RMS(Int)=  0.10028622
 Iteration 35 RMS(Cart)=  0.00061759 RMS(Int)=  0.09963679
 Iteration 36 RMS(Cart)=  0.00060386 RMS(Int)=  0.09899724
 Iteration 37 RMS(Cart)=  0.00059904 RMS(Int)=  0.09835830
 Iteration 38 RMS(Cart)=  0.00057531 RMS(Int)=  0.09773969
 Iteration 39 RMS(Cart)=  0.00059770 RMS(Int)=  0.09709364
 Iteration 40 RMS(Cart)=  0.00050181 RMS(Int)=  0.09654445
 Iteration 41 RMS(Cart)=  0.00056700 RMS(Int)=  0.09592893
 Iteration 42 RMS(Cart)=  0.00058340 RMS(Int)=  0.09528447
 Iteration 43 RMS(Cart)=  0.00057309 RMS(Int)=  0.09464572
 Iteration 44 RMS(Cart)=  0.00056035 RMS(Int)=  0.09401603
 Iteration 45 RMS(Cart)=  0.00054841 RMS(Int)=  0.09339470
 Iteration 46 RMS(Cart)=  0.00053759 RMS(Int)=  0.09278082
 Iteration 47 RMS(Cart)=  0.00052769 RMS(Int)=  0.09217341
 Iteration 48 RMS(Cart)=  0.00051810 RMS(Int)=  0.09157226
 Iteration 49 RMS(Cart)=  0.00050934 RMS(Int)=  0.09097653
 Iteration 50 RMS(Cart)=  0.00050049 RMS(Int)=  0.09038650
 Iteration 51 RMS(Cart)=  0.00049333 RMS(Int)=  0.08980032
 Iteration 52 RMS(Cart)=  0.00048391 RMS(Int)=  0.08922068
 Iteration 53 RMS(Cart)=  0.00048195 RMS(Int)=  0.08863903
 Iteration 54 RMS(Cart)=  0.00045742 RMS(Int)=  0.08808181
 Iteration 55 RMS(Cart)=  0.00047830 RMS(Int)=  0.08750563
 Iteration 56 RMS(Cart)=  0.00047312 RMS(Int)=  0.08693127
 Iteration 57 RMS(Cart)=  0.00047559 RMS(Int)=  0.08634761
 Iteration 58 RMS(Cart)=  0.00046330 RMS(Int)=  0.08577629
 Iteration 59 RMS(Cart)=  0.00045888 RMS(Int)=  0.08520582
 Iteration 60 RMS(Cart)=  0.00045427 RMS(Int)=  0.08463662
 Iteration 61 RMS(Cart)=  0.00044977 RMS(Int)=  0.08406857
 Iteration 62 RMS(Cart)=  0.00044547 RMS(Int)=  0.08350137
 Iteration 63 RMS(Cart)=  0.00044110 RMS(Int)=  0.08293519
 Iteration 64 RMS(Cart)=  0.00043678 RMS(Int)=  0.08236998
 Iteration 65 RMS(Cart)=  0.00043252 RMS(Int)=  0.08180566
 Iteration 66 RMS(Cart)=  0.00042812 RMS(Int)=  0.08124254
 Iteration 67 RMS(Cart)=  0.00042377 RMS(Int)=  0.08068050
 Iteration 68 RMS(Cart)=  0.00041898 RMS(Int)=  0.08012045
 Iteration 69 RMS(Cart)=  0.00041338 RMS(Int)=  0.07956526
 Iteration 70 RMS(Cart)=  0.00040086 RMS(Int)=  0.48717686
 Iteration 71 RMS(Cart)=  0.01830703 RMS(Int)=  0.48154603
 Iteration 72 RMS(Cart)=  0.00863379 RMS(Int)=  0.47666017
 Iteration 73 RMS(Cart)=  0.00698566 RMS(Int)=  0.46923706
 Iteration 74 RMS(Cart)=  0.00003947 RMS(Int)=  0.77704965
 Iteration 75 RMS(Cart)=  0.01919494 RMS(Int)=  0.74739788
slurmstepd: error: *** JOB 27448526 ON lewis4-r630-hpc4-node225 CANCELLED AT 2023-05-20T20:21:24 ***
