### Starting Gaussian ###
 Entering Gaussian System, Link 0=g16
 Initial command:
 /cluster/software/gaussian/gaussian-16-A.03/avx2/g16/l1.exe "/local/scratch/linjian/Gau-671.inp" -scrdir="/local/scratch/linjian/"
 Entering Link 1 = /cluster/software/gaussian/gaussian-16-A.03/avx2/g16/l1.exe PID=       672.
  
 Copyright (c) 1988,1990,1992,1993,1995,1998,2003,2009,2016,
            Gaussian, Inc.  All Rights Reserved.
  
 This is part of the Gaussian(R) 16 program.  It is based on
 the Gaussian(R) 09 system (copyright 2009, Gaussian, Inc.),
 the Gaussian(R) 03 system (copyright 2003, Gaussian, Inc.),
 the Gaussian(R) 98 system (copyright 1998, Gaussian, Inc.),
 the Gaussian(R) 94 system (copyright 1995, Gaussian, Inc.),
 the Gaussian 92(TM) system (copyright 1992, Gaussian, Inc.),
 the Gaussian 90(TM) system (copyright 1990, Gaussian, Inc.),
 the Gaussian 88(TM) system (copyright 1988, Gaussian, Inc.),
 the Gaussian 86(TM) system (copyright 1986, Carnegie Mellon
 University), and the Gaussian 82(TM) system (copyright 1983,
 Carnegie Mellon University). Gaussian is a federally registered
 trademark of Gaussian, Inc.
  
 This software contains proprietary and confidential information,
 including trade secrets, belonging to Gaussian, Inc.
  
 This software is provided under written license and may be
 used, copied, transmitted, or stored only in accord with that
 written license.
  
 The following legend is applicable only to US Government
 contracts under FAR:
  
                    RESTRICTED RIGHTS LEGEND
  
 Use, reproduction and disclosure by the US Government is
 subject to restrictions as set forth in subparagraphs (a)
 and (c) of the Commercial Computer Software - Restricted
 Rights clause in FAR 52.227-19.
  
 Gaussian, Inc.
 340 Quinnipiac St., Bldg. 40, Wallingford CT 06492
  
  
 ---------------------------------------------------------------
 Warning -- This program may not be used in any manner that
 competes with the business of Gaussian, Inc. or will provide
 assistance to any competitor of Gaussian, Inc.  The licensee
 of this program is prohibited from giving any competitor of
 Gaussian, Inc. access to this program.  By using this program,
 the user acknowledges that Gaussian, Inc. is engaged in the
 business of creating and licensing software in the field of
 computational chemistry and represents and warrants to the
 licensee that it is not a competitor of Gaussian, Inc. and that
 it will not use this program in any manner prohibited above.
 ---------------------------------------------------------------
  

 Cite this work as:
 Gaussian 16, Revision A.03,
 M. J. Frisch, G. W. Trucks, H. B. Schlegel, G. E. Scuseria, 
 M. A. Robb, J. R. Cheeseman, G. Scalmani, V. Barone, 
 G. A. Petersson, H. Nakatsuji, X. Li, M. Caricato, A. V. Marenich, 
 J. Bloino, B. G. Janesko, R. Gomperts, B. Mennucci, H. P. Hratchian, 
 J. V. Ortiz, A. F. Izmaylov, J. L. Sonnenberg, D. Williams-Young, 
 F. Ding, F. Lipparini, F. Egidi, J. Goings, B. Peng, A. Petrone, 
 T. Henderson, D. Ranasinghe, V. G. Zakrzewski, J. Gao, N. Rega, 
 G. Zheng, W. Liang, M. Hada, M. Ehara, K. Toyota, R. Fukuda, 
 J. Hasegawa, M. Ishida, T. Nakajima, Y. Honda, O. Kitao, H. Nakai, 
 T. Vreven, K. Throssell, J. A. Montgomery, Jr., J. E. Peralta, 
 F. Ogliaro, M. J. Bearpark, J. J. Heyd, E. N. Brothers, K. N. Kudin, 
 V. N. Staroverov, T. A. Keith, R. Kobayashi, J. Normand, 
 K. Raghavachari, A. P. Rendell, J. C. Burant, S. S. Iyengar, 
 J. Tomasi, M. Cossi, J. M. Millam, M. Klene, C. Adamo, R. Cammi, 
 J. W. Ochterski, R. L. Martin, K. Morokuma, O. Farkas, 
 J. B. Foresman, and D. J. Fox, Gaussian, Inc., Wallingford CT, 2016.
 
 ******************************************
 Gaussian 16:  ES64L-G16RevA.03 25-Dec-2016
                18-May-2023 
 ******************************************
 %chk=OdC1CdC2NdCCCdNNN2C1.chk
 %NProcShared=20
 Will use up to   20 processors via shared memory.
 -----------------------------
 # opt freq b3lyp/6-31g(2df,p)
 -----------------------------
 1/18=20,19=15,26=3,38=1/1,3;
 2/9=110,12=2,17=6,18=5,40=1/2;
 3/5=1,6=6,7=104,11=2,25=1,30=1,71=1,74=-5/1,2,3;
 4//1;
 5/5=2,38=5/2;
 6/7=2,8=2,9=2,10=2,28=1/1;
 7//1,2,3,16;
 1/18=20,19=15,26=3/3(2);
 2/9=110/2;
 99//99;
 2/9=110/2;
 3/5=1,6=6,7=104,11=2,25=1,30=1,71=1,74=-5/1,2,3;
 4/5=5,16=3,69=1/1;
 5/5=2,38=5/2;
 7//1,2,3,16;
 1/18=20,19=15,26=3/3(-5);
 2/9=110/2;
 6/7=2,8=2,9=2,10=2,19=2,28=1/1;
 99/9=1/99;
 -------------------
 Title Card Required
 -------------------
 Symbolic Z-matrix:
 Charge =  0 Multiplicity = 1
 O                     1.38642   0.27382  -0.09479 
 C                     2.57978   0.12695   0.03509 
 C                     3.19955  -1.19752   0.091 
 C                     4.46773  -0.97674   0.4596 
 N                     5.25503  -2.04178   0.75855 
 C                     6.4161   -1.72285   0.31506 
 C                     7.64927  -2.08845   0.98223 
 C                     8.13244  -0.70513   1.38451 
 N                     7.46536   0.43622   1.49446 
 N                     6.03997   0.76835   1.55132 
 N                     4.90725   0.38271   0.49322 
 C                     3.66993   1.21388   0.14296 
 H                     2.69927  -2.13386  -0.05618 
 H                     6.58089  -0.89571  -0.41445 
 H                     8.27968  -2.52541   0.19607 
 H                     7.57849  -2.80626   1.80346 
 H                     9.24136  -0.67262   1.53334 
 H                     6.04936   1.79905   1.60371 
 H                     3.73497   1.61044  -0.88205 
 H                     3.32666   1.98566   0.84124 
 

 GradGradGradGradGradGradGradGradGradGradGradGradGradGradGradGradGradGrad
 Berny optimization.
 Initialization pass.
                           ----------------------------
                           !    Initial Parameters    !
                           ! (Angstroms and Degrees)  !
 --------------------------                            --------------------------
 ! Name  Definition              Value          Derivative Info.                !
 --------------------------------------------------------------------------------
 ! R1    R(1,2)                  1.2094         estimate D2E/DX2                !
 ! R2    R(2,3)                  1.4634         estimate D2E/DX2                !
 ! R3    R(2,12)                 1.5432         estimate D2E/DX2                !
 ! R4    R(3,4)                  1.339          estimate D2E/DX2                !
 ! R5    R(3,13)                 1.0718         estimate D2E/DX2                !
 ! R6    R(4,5)                  1.3578         estimate D2E/DX2                !
 ! R7    R(4,11)                 1.4291         estimate D2E/DX2                !
 ! R8    R(5,6)                  1.2832         estimate D2E/DX2                !
 ! R9    R(6,7)                  1.449          estimate D2E/DX2                !
 ! R10   R(6,14)                 1.1151         estimate D2E/DX2                !
 ! R11   R(7,8)                  1.5195         estimate D2E/DX2                !
 ! R12   R(7,15)                 1.0984         estimate D2E/DX2                !
 ! R13   R(7,16)                 1.093          estimate D2E/DX2                !
 ! R14   R(8,9)                  1.3266         estimate D2E/DX2                !
 ! R15   R(8,17)                 1.1193         estimate D2E/DX2                !
 ! R16   R(9,10)                 1.4647         estimate D2E/DX2                !
 ! R17   R(10,11)                1.5973         estimate D2E/DX2                !
 ! R18   R(10,18)                1.0321         estimate D2E/DX2                !
 ! R19   R(11,12)                1.5312         estimate D2E/DX2                !
 ! R20   R(12,19)                1.101          estimate D2E/DX2                !
 ! R21   R(12,20)                1.0959         estimate D2E/DX2                !
 ! A1    A(1,2,3)              122.1366         estimate D2E/DX2                !
 ! A2    A(1,2,12)             128.2464         estimate D2E/DX2                !
 ! A3    A(3,2,12)             109.6104         estimate D2E/DX2                !
 ! A4    A(2,3,4)              105.213          estimate D2E/DX2                !
 ! A5    A(2,3,13)             125.9996         estimate D2E/DX2                !
 ! A6    A(4,3,13)             128.6054         estimate D2E/DX2                !
 ! A7    A(3,4,5)              118.7155         estimate D2E/DX2                !
 ! A8    A(3,4,11)             117.0394         estimate D2E/DX2                !
 ! A9    A(5,4,11)             124.2395         estimate D2E/DX2                !
 ! A10   A(4,5,6)              104.6916         estimate D2E/DX2                !
 ! A11   A(5,6,7)              123.2465         estimate D2E/DX2                !
 ! A12   A(5,6,14)             122.9691         estimate D2E/DX2                !
 ! A13   A(7,6,14)             111.2606         estimate D2E/DX2                !
 ! A14   A(6,7,8)               99.3706         estimate D2E/DX2                !
 ! A15   A(6,7,15)             105.0278         estimate D2E/DX2                !
 ! A16   A(6,7,16)             117.1644         estimate D2E/DX2                !
 ! A17   A(8,7,15)             111.6641         estimate D2E/DX2                !
 ! A18   A(8,7,16)             114.806          estimate D2E/DX2                !
 ! A19   A(15,7,16)            108.2813         estimate D2E/DX2                !
 ! A20   A(7,8,9)              130.1896         estimate D2E/DX2                !
 ! A21   A(7,8,17)             112.1273         estimate D2E/DX2                !
 ! A22   A(9,8,17)             117.5276         estimate D2E/DX2                !
 ! A23   A(8,9,10)             133.4478         estimate D2E/DX2                !
 ! A24   A(9,10,11)            127.5652         estimate D2E/DX2                !
 ! A25   A(9,10,18)            102.684          estimate D2E/DX2                !
 ! A26   A(11,10,18)           106.3313         estimate D2E/DX2                !
 ! A27   A(4,11,10)            117.6028         estimate D2E/DX2                !
 ! A28   A(4,11,12)            105.2162         estimate D2E/DX2                !
 ! A29   A(10,11,12)           126.4079         estimate D2E/DX2                !
 ! A30   A(2,12,11)            101.8004         estimate D2E/DX2                !
 ! A31   A(2,12,19)            103.3176         estimate D2E/DX2                !
 ! A32   A(2,12,20)            108.6192         estimate D2E/DX2                !
 ! A33   A(11,12,19)           111.1466         estimate D2E/DX2                !
 ! A34   A(11,12,20)           119.3165         estimate D2E/DX2                !
 ! A35   A(19,12,20)           110.9801         estimate D2E/DX2                !
 ! D1    D(1,2,3,4)           -169.9389         estimate D2E/DX2                !
 ! D2    D(1,2,3,13)             5.4929         estimate D2E/DX2                !
 ! D3    D(12,2,3,4)            10.9257         estimate D2E/DX2                !
 ! D4    D(12,2,3,13)         -173.6424         estimate D2E/DX2                !
 ! D5    D(1,2,12,11)          172.0079         estimate D2E/DX2                !
 ! D6    D(1,2,12,19)          -72.6397         estimate D2E/DX2                !
 ! D7    D(1,2,12,20)           45.2656         estimate D2E/DX2                !
 ! D8    D(3,2,12,11)           -8.9244         estimate D2E/DX2                !
 ! D9    D(3,2,12,19)          106.428          estimate D2E/DX2                !
 ! D10   D(3,2,12,20)         -135.6667         estimate D2E/DX2                !
 ! D11   D(2,3,4,5)            171.9125         estimate D2E/DX2                !
 ! D12   D(2,3,4,11)            -8.9179         estimate D2E/DX2                !
 ! D13   D(13,3,4,5)            -3.3579         estimate D2E/DX2                !
 ! D14   D(13,3,4,11)          175.8117         estimate D2E/DX2                !
 ! D15   D(3,4,5,6)            143.3918         estimate D2E/DX2                !
 ! D16   D(11,4,5,6)           -35.7136         estimate D2E/DX2                !
 ! D17   D(3,4,11,10)          149.9434         estimate D2E/DX2                !
 ! D18   D(3,4,11,12)            3.1909         estimate D2E/DX2                !
 ! D19   D(5,4,11,10)          -30.9375         estimate D2E/DX2                !
 ! D20   D(5,4,11,12)         -177.69           estimate D2E/DX2                !
 ! D21   D(4,5,6,7)            143.913          estimate D2E/DX2                !
 ! D22   D(4,5,6,14)           -16.4794         estimate D2E/DX2                !
 ! D23   D(5,6,7,8)           -113.8188         estimate D2E/DX2                !
 ! D24   D(5,6,7,15)           130.6051         estimate D2E/DX2                !
 ! D25   D(5,6,7,16)            10.4183         estimate D2E/DX2                !
 ! D26   D(14,6,7,8)            48.5976         estimate D2E/DX2                !
 ! D27   D(14,6,7,15)          -66.9785         estimate D2E/DX2                !
 ! D28   D(14,6,7,16)          172.8347         estimate D2E/DX2                !
 ! D29   D(6,7,8,9)             19.159          estimate D2E/DX2                !
 ! D30   D(6,7,8,17)          -156.1157         estimate D2E/DX2                !
 ! D31   D(15,7,8,9)           129.5435         estimate D2E/DX2                !
 ! D32   D(15,7,8,17)          -45.7312         estimate D2E/DX2                !
 ! D33   D(16,7,8,9)          -106.7165         estimate D2E/DX2                !
 ! D34   D(16,7,8,17)           78.0088         estimate D2E/DX2                !
 ! D35   D(7,8,9,10)            14.6717         estimate D2E/DX2                !
 ! D36   D(17,8,9,10)         -170.265          estimate D2E/DX2                !
 ! D37   D(8,9,10,11)          -55.5803         estimate D2E/DX2                !
 ! D38   D(8,9,10,18)         -178.0412         estimate D2E/DX2                !
 ! D39   D(9,10,11,4)           73.4744         estimate D2E/DX2                !
 ! D40   D(9,10,11,12)        -147.6231         estimate D2E/DX2                !
 ! D41   D(18,10,11,4)        -165.5934         estimate D2E/DX2                !
 ! D42   D(18,10,11,12)        -26.6909         estimate D2E/DX2                !
 ! D43   D(4,11,12,2)            3.7135         estimate D2E/DX2                !
 ! D44   D(4,11,12,19)        -105.745          estimate D2E/DX2                !
 ! D45   D(4,11,12,20)         123.146          estimate D2E/DX2                !
 ! D46   D(10,11,12,2)        -139.152          estimate D2E/DX2                !
 ! D47   D(10,11,12,19)        111.3895         estimate D2E/DX2                !
 ! D48   D(10,11,12,20)        -19.7195         estimate D2E/DX2                !
 --------------------------------------------------------------------------------
 Trust Radius=3.00D-01 FncErr=1.00D-07 GrdErr=1.00D-06 EigMax=2.50D+02 EigMin=1.00D-04
 Number of steps in this run=    114 maximum allowed number of steps=    120.
 GradGradGradGradGradGradGradGradGradGradGradGradGradGradGradGradGradGrad

                          Input orientation:                          
 ---------------------------------------------------------------------
 Center     Atomic      Atomic             Coordinates (Angstroms)
 Number     Number       Type             X           Y           Z
 ---------------------------------------------------------------------
      1          8           0        1.386420    0.273820   -0.094790
      2          6           0        2.579780    0.126950    0.035090
      3          6           0        3.199550   -1.197520    0.091000
      4          6           0        4.467730   -0.976740    0.459600
      5          7           0        5.255030   -2.041780    0.758550
      6          6           0        6.416100   -1.722850    0.315060
      7          6           0        7.649270   -2.088450    0.982230
      8          6           0        8.132440   -0.705130    1.384510
      9          7           0        7.465360    0.436220    1.494460
     10          7           0        6.039970    0.768350    1.551320
     11          7           0        4.907250    0.382710    0.493220
     12          6           0        3.669930    1.213880    0.142960
     13          1           0        2.699270   -2.133860   -0.056180
     14          1           0        6.580890   -0.895710   -0.414450
     15          1           0        8.279680   -2.525410    0.196070
     16          1           0        7.578490   -2.806260    1.803460
     17          1           0        9.241360   -0.672620    1.533340
     18          1           0        6.049360    1.799050    1.603710
     19          1           0        3.734970    1.610440   -0.882050
     20          1           0        3.326660    1.985660    0.841240
 ---------------------------------------------------------------------
                    Distance matrix (angstroms):
                    1          2          3          4          5
     1  O    0.000000
     2  C    1.209358   0.000000
     3  C    2.342392   1.463373   0.000000
     4  C    3.371308   2.227711   1.338989   0.000000
     5  N    4.588718   3.519055   2.320215   1.357764   0.000000
     6  C    5.427002   4.268196   3.266859   2.091343   1.283154
     7  C    6.779645   5.612914   4.624722   3.410460   2.405119
     8  C    6.975346   5.774541   5.123380   3.789371   3.233875
     9  N    6.285348   5.108258   4.778697   3.471769   3.401118
    10  N    4.960823   3.831875   3.750355   2.590199   3.023482
    11  N    3.571254   2.385878   2.361175   1.429130   2.463636
    12  C    2.480858   1.543204   2.457398   2.352777   3.672984
    13  H    2.742624   2.265804   1.071762   2.175409   2.684059
    14  H    5.334089   4.154131   3.432205   2.288225   2.108865
    15  H    7.445624   6.288862   5.251862   4.122959   3.114288
    16  H    7.171609   6.059534   4.969475   3.850965   2.659837
    17  H    8.077539   6.874643   6.233725   4.902341   4.285525
    18  H    5.191747   4.158662   4.403310   3.393457   4.012135
    19  H    2.814608   2.091973   3.019626   3.005073   4.282623
    20  H    2.751559   2.159285   3.272866   3.197421   4.466063
                    6          7          8          9         10
     6  C    0.000000
     7  C    1.448961   0.000000
     8  C    2.263913   1.519492   0.000000
     9  N    2.674605   2.582665   1.326561   0.000000
    10  N    2.806402   3.327915   2.564644   1.464677   0.000000
    11  N    2.596488   3.723498   3.518472   2.747594   1.597294
    12  C    4.024357   5.238788   5.013785   4.103242   2.792681
    13  H    3.757868   5.057950   5.799672   5.632531   4.708201
    14  H    1.115124   2.124801   2.383251   2.490033   2.631718
    15  H    2.032533   1.098362   2.178873   3.334694   4.207358
    16  H    2.177214   1.093014   2.212945   3.259134   3.899802
    17  H    3.251043   2.200692   1.119335   2.094090   3.510786
    18  H    3.768142   4.249542   3.264688   1.968323   1.032073
    19  H    4.442111   5.699041   5.462316   4.576287   3.455927
    20  H    4.855363   5.941650   5.534529   4.467247   3.057468
                   11         12         13         14         15
    11  N    0.000000
    12  C    1.531172   0.000000
    13  H    3.392660   3.491304   0.000000
    14  H    2.293315   3.637962   4.090030   0.000000
    15  H    4.463042   5.935900   5.599814   2.431984   0.000000
    16  H    4.361397   5.847703   5.264710   3.092658   1.776020
    17  H    4.580402   6.044243   6.889175   3.304808   2.479103
    18  H    2.131577   2.852701   5.426428   3.408405   5.065247
    19  H    2.184703   1.100970   3.971715   3.820824   6.238749
    20  H    2.277901   1.095935   4.262561   4.524275   6.730409
                   16         17         18         19         20
    16  H    0.000000
    17  H    2.718551   0.000000
    18  H    4.856647   4.037693   0.000000
    19  H    6.441417   6.431703   3.401614   0.000000
    20  H    6.478150   6.521436   2.833598   1.810314   0.000000
 Stoichiometry    C7H8N4O
 Framework group  C1[X(C7H8N4O)]
 Deg. of freedom    54
 Full point group                 C1      NOp   1
 Largest Abelian subgroup         C1      NOp   1
 Largest concise Abelian subgroup C1      NOp   1
                         Standard orientation:                         
 ---------------------------------------------------------------------
 Center     Atomic      Atomic             Coordinates (Angstroms)
 Number     Number       Type             X           Y           Z
 ---------------------------------------------------------------------
      1          8           0        3.869961   -0.137295   -0.137542
      2          6           0        2.674294   -0.040359    0.015856
      3          6           0        1.780226   -1.194289   -0.086850
      4          6           0        0.543284   -0.681587   -0.085724
      5          7           0       -0.505083   -1.506614   -0.338273
      6          6           0       -1.444065   -1.083249    0.426945
      7          6           0       -2.841275   -1.080816    0.043167
      8          6           0       -3.081931    0.418716   -0.005252
      9          7           0       -2.218899    1.421572   -0.101276
     10          7           0       -0.801679    1.499710   -0.462748
     11          7           0        0.418051    0.712382    0.203376
     12          6           0        1.853947    1.221846    0.355487
     13          1           0        2.081066   -2.214673   -0.217188
     14          1           0       -1.261574   -0.405551    1.293503
     15          1           0       -3.368696   -1.549146    0.885125
     16          1           0       -3.108765   -1.617919   -0.870424
     17          1           0       -4.161729    0.677229    0.136592
     18          1           0       -0.594303    2.504510   -0.350734
     19          1           0        2.099730    1.407227    1.412539
     20          1           0        2.200978    2.045762   -0.278395
 ---------------------------------------------------------------------
 Rotational constants (GHZ):           2.4313630           0.6338934           0.5183018
 Standard basis: 6-31G(2df,p) (6D, 7F)
 There are   412 symmetry adapted cartesian basis functions of A   symmetry.
 There are   376 symmetry adapted basis functions of A   symmetry.
   376 basis functions,   584 primitive gaussians,   412 cartesian basis functions
    43 alpha electrons       43 beta electrons
       nuclear repulsion energy       676.2893315252 Hartrees.
 NAtoms=   20 NActive=   20 NUniq=   20 SFac= 1.00D+00 NAtFMM=   60 NAOKFM=F Big=F
 Integral buffers will be    131072 words long.
 Raffenetti 2 integral format.
 Two-electron integral symmetry is turned on.
 One-electron integrals computed using PRISM.
 PrsmSu:  requested number of processors reduced to:  13 ShMem   1 Linda.
 NBasis=   376 RedAO= T EigKep=  2.18D-04  NBF=   376
 NBsUse=   376 1.00D-06 EigRej= -1.00D+00 NBFU=   376
 ExpMin= 1.61D-01 ExpMax= 5.48D+03 ExpMxC= 8.25D+02 IAcc=3 IRadAn=         5 AccDes= 0.00D+00
 Harris functional with IExCor=  402 and IRadAn=       5 diagonalized for initial guess.
 HarFok:  IExCor=  402 AccDes= 0.00D+00 IRadAn=         5 IDoV= 1 UseB2=F ITyADJ=14
 ICtDFT=  3500011 ScaDFX=  1.000000  1.000000  1.000000  1.000000
 FoFCou: FMM=F IPFlag=           0 FMFlag=      100000 FMFlg1=           0
         NFxFlg=           0 DoJE=T BraDBF=F KetDBF=T FulRan=T
         wScrn=  0.000000 ICntrl=       500 IOpCl=  0 I1Cent=   200000004 NGrid=           0
         NMat0=    1 NMatS0=      1 NMatT0=    0 NMatD0=    1 NMtDS0=    0 NMtDT0=    0
 Petite list used in FoFCou.
 Requested convergence on RMS density matrix=1.00D-08 within 128 cycles.
 Requested convergence on MAX density matrix=1.00D-06.
 Requested convergence on             energy=1.00D-06.
 No special actions if energy rises.
 Integral accuracy reduced to 1.0D-05 until final iterations.
 Initial convergence to 1.0D-05 achieved.  Increase integral accuracy.
 SCF Done:  E(RB3LYP) =  -565.606682552     A.U. after   18 cycles
            NFock= 18  Conv=0.65D-08     -V/T= 2.0078

 **********************************************************************

            Population analysis using the SCF density.

 **********************************************************************

 Orbital symmetries:
       Occupied  (A) (A) (A) (A) (A) (A) (A) (A) (A) (A) (A) (A)
                 (A) (A) (A) (A) (A) (A) (A) (A) (A) (A) (A) (A)
                 (A) (A) (A) (A) (A) (A) (A) (A) (A) (A) (A) (A)
                 (A) (A) (A) (A) (A) (A) (A)
       Virtual   (A) (A) (A) (A) (A) (A) (A) (A) (A) (A) (A) (A)
                 (A) (A) (A) (A) (A) (A) (A) (A) (A) (A) (A) (A)
                 (A) (A) (A) (A) (A) (A) (A) (A) (A) (A) (A) (A)
                 (A) (A) (A) (A) (A) (A) (A) (A) (A) (A) (A) (A)
                 (A) (A) (A) (A) (A) (A) (A) (A) (A) (A) (A) (A)
                 (A) (A) (A) (A) (A) (A) (A) (A) (A) (A) (A) (A)
                 (A) (A) (A) (A) (A) (A) (A) (A) (A) (A) (A) (A)
                 (A) (A) (A) (A) (A) (A) (A) (A) (A) (A) (A) (A)
                 (A) (A) (A) (A) (A) (A) (A) (A) (A) (A) (A) (A)
                 (A) (A) (A) (A) (A) (A) (A) (A) (A) (A) (A) (A)
                 (A) (A) (A) (A) (A) (A) (A) (A) (A) (A) (A) (A)
                 (A) (A) (A) (A) (A) (A) (A) (A) (A) (A) (A) (A)
                 (A) (A) (A) (A) (A) (A) (A) (A) (A) (A) (A) (A)
                 (A) (A) (A) (A) (A) (A) (A) (A) (A) (A) (A) (A)
                 (A) (A) (A) (A) (A) (A) (A) (A) (A) (A) (A) (A)
                 (A) (A) (A) (A) (A) (A) (A) (A) (A) (A) (A) (A)
                 (A) (A) (A) (A) (A) (A) (A) (A) (A) (A) (A) (A)
                 (A) (A) (A) (A) (A) (A) (A) (A) (A) (A) (A) (A)
                 (A) (A) (A) (A) (A) (A) (A) (A) (A) (A) (A) (A)
                 (A) (A) (A) (A) (A) (A) (A) (A) (A) (A) (A) (A)
                 (A) (A) (A) (A) (A) (A) (A) (A) (A) (A) (A) (A)
                 (A) (A) (A) (A) (A) (A) (A) (A) (A) (A) (A) (A)
                 (A) (A) (A) (A) (A) (A) (A) (A) (A) (A) (A) (A)
                 (A) (A) (A) (A) (A) (A) (A) (A) (A) (A) (A) (A)
                 (A) (A) (A) (A) (A) (A) (A) (A) (A) (A) (A) (A)
                 (A) (A) (A) (A) (A) (A) (A) (A) (A) (A) (A) (A)
                 (A) (A) (A) (A) (A) (A) (A) (A) (A) (A) (A) (A)
                 (A) (A) (A) (A) (A) (A) (A) (A) (A)
 The electronic state is 1-A.
 Alpha  occ. eigenvalues --  -19.10005 -14.42842 -14.39967 -14.39759 -14.34487
 Alpha  occ. eigenvalues --  -10.26534 -10.25641 -10.25404 -10.24967 -10.24395
 Alpha  occ. eigenvalues --  -10.22083 -10.15810  -1.01878  -1.00556  -0.96459
 Alpha  occ. eigenvalues --   -0.92248  -0.83647  -0.79669  -0.73381  -0.71931
 Alpha  occ. eigenvalues --   -0.63656  -0.59192  -0.56659  -0.54711  -0.52579
 Alpha  occ. eigenvalues --   -0.50077  -0.48977  -0.46968  -0.46625  -0.45044
 Alpha  occ. eigenvalues --   -0.43674  -0.41316  -0.40420  -0.40183  -0.39319
 Alpha  occ. eigenvalues --   -0.35708  -0.33888  -0.32866  -0.29873  -0.29357
 Alpha  occ. eigenvalues --   -0.25710  -0.22550  -0.19996
 Alpha virt. eigenvalues --   -0.06030  -0.04868  -0.00066   0.01818   0.07218
 Alpha virt. eigenvalues --    0.08432   0.09783   0.10341   0.10473   0.12367
 Alpha virt. eigenvalues --    0.14359   0.15424   0.15588   0.17074   0.18715
 Alpha virt. eigenvalues --    0.19677   0.21612   0.24421   0.25466   0.26844
 Alpha virt. eigenvalues --    0.29978   0.32678   0.35572   0.37778   0.39968
 Alpha virt. eigenvalues --    0.43578   0.44637   0.46027   0.46612   0.47693
 Alpha virt. eigenvalues --    0.48817   0.49268   0.50873   0.51935   0.52301
 Alpha virt. eigenvalues --    0.53823   0.54848   0.55583   0.56396   0.57808
 Alpha virt. eigenvalues --    0.58167   0.60635   0.61247   0.62994   0.63748
 Alpha virt. eigenvalues --    0.64708   0.65990   0.66707   0.67696   0.68246
 Alpha virt. eigenvalues --    0.69704   0.70895   0.71555   0.72994   0.73551
 Alpha virt. eigenvalues --    0.74779   0.76132   0.77465   0.77981   0.78459
 Alpha virt. eigenvalues --    0.79397   0.79661   0.81510   0.81724   0.83118
 Alpha virt. eigenvalues --    0.84832   0.86510   0.86762   0.90559   0.91056
 Alpha virt. eigenvalues --    0.92207   0.95368   0.96954   0.97811   0.99392
 Alpha virt. eigenvalues --    1.01939   1.02742   1.03490   1.05055   1.06662
 Alpha virt. eigenvalues --    1.08799   1.09300   1.13867   1.15932   1.16173
 Alpha virt. eigenvalues --    1.17652   1.21003   1.23789   1.25211   1.25314
 Alpha virt. eigenvalues --    1.29344   1.30087   1.31500   1.31908   1.33171
 Alpha virt. eigenvalues --    1.34088   1.36479   1.37626   1.38871   1.39986
 Alpha virt. eigenvalues --    1.40783   1.41723   1.43507   1.44891   1.45868
 Alpha virt. eigenvalues --    1.50373   1.51460   1.52479   1.53502   1.54494
 Alpha virt. eigenvalues --    1.57697   1.59255   1.60246   1.61956   1.63513
 Alpha virt. eigenvalues --    1.65117   1.67810   1.68669   1.70102   1.72848
 Alpha virt. eigenvalues --    1.74432   1.78164   1.80120   1.82800   1.84312
 Alpha virt. eigenvalues --    1.85374   1.87386   1.89873   1.90576   1.93611
 Alpha virt. eigenvalues --    1.97280   1.97546   2.00233   2.05137   2.06495
 Alpha virt. eigenvalues --    2.12130   2.14074   2.15681   2.18507   2.23480
 Alpha virt. eigenvalues --    2.24047   2.26383   2.30516   2.32618   2.32759
 Alpha virt. eigenvalues --    2.34536   2.39037   2.40668   2.42687   2.48315
 Alpha virt. eigenvalues --    2.50936   2.52082   2.56694   2.62762   2.66314
 Alpha virt. eigenvalues --    2.68347   2.69413   2.71342   2.75118   2.78034
 Alpha virt. eigenvalues --    2.80575   2.82363   2.83391   2.84914   2.85970
 Alpha virt. eigenvalues --    2.91275   2.92026   2.93100   2.93656   2.96543
 Alpha virt. eigenvalues --    2.98779   3.00316   3.03717   3.05249   3.09683
 Alpha virt. eigenvalues --    3.10629   3.11377   3.12163   3.13652   3.17707
 Alpha virt. eigenvalues --    3.18416   3.20439   3.21363   3.23939   3.24168
 Alpha virt. eigenvalues --    3.25397   3.26691   3.29044   3.30749   3.33212
 Alpha virt. eigenvalues --    3.34072   3.35762   3.37941   3.40736   3.42168
 Alpha virt. eigenvalues --    3.45458   3.49137   3.49707   3.50128   3.53497
 Alpha virt. eigenvalues --    3.54820   3.55106   3.58980   3.60932   3.61121
 Alpha virt. eigenvalues --    3.63116   3.68317   3.70683   3.72501   3.74298
 Alpha virt. eigenvalues --    3.77759   3.79308   3.81265   3.82934   3.83950
 Alpha virt. eigenvalues --    3.86271   3.89975   3.92255   3.93544   3.96034
 Alpha virt. eigenvalues --    3.97375   4.00576   4.02050   4.05211   4.05875
 Alpha virt. eigenvalues --    4.07929   4.08829   4.11999   4.13220   4.15216
 Alpha virt. eigenvalues --    4.17095   4.20399   4.21040   4.22639   4.23356
 Alpha virt. eigenvalues --    4.25340   4.25861   4.27101   4.29568   4.30499
 Alpha virt. eigenvalues --    4.32982   4.33689   4.37452   4.38292   4.38938
 Alpha virt. eigenvalues --    4.42493   4.43542   4.43977   4.44200   4.46778
 Alpha virt. eigenvalues --    4.47497   4.49264   4.50598   4.52331   4.53833
 Alpha virt. eigenvalues --    4.55606   4.56786   4.58039   4.58421   4.59337
 Alpha virt. eigenvalues --    4.62162   4.64038   4.64866   4.66259   4.66894
 Alpha virt. eigenvalues --    4.70726   4.72013   4.72496   4.73911   4.74694
 Alpha virt. eigenvalues --    4.75907   4.78234   4.79242   4.82091   4.84053
 Alpha virt. eigenvalues --    4.84571   4.87140   4.88879   4.92176   4.92651
 Alpha virt. eigenvalues --    4.96982   4.98596   4.99890   5.05171   5.06841
 Alpha virt. eigenvalues --    5.07990   5.12383   5.13140   5.13797   5.17066
 Alpha virt. eigenvalues --    5.19622   5.23577   5.24904   5.27421   5.28839
 Alpha virt. eigenvalues --    5.30314   5.34135   5.38761   5.43125   5.45314
 Alpha virt. eigenvalues --    5.48642   5.56418   5.59656   5.60146   5.62575
 Alpha virt. eigenvalues --    5.67938   5.71838   5.80020   5.83776   5.95182
 Alpha virt. eigenvalues --    5.97679   6.03220   6.05483   6.11596   6.54906
 Alpha virt. eigenvalues --    6.60304   6.87844   7.93566  10.28316  10.68487
 Alpha virt. eigenvalues --   11.01385  11.14067  11.27846  11.32569  11.38383
 Alpha virt. eigenvalues --   11.47068  11.60100  12.02701  12.17067  13.17598
 Alpha virt. eigenvalues --   13.70916  17.52327  20.10108
          Condensed to atoms (all electrons):
               1          2          3          4          5          6
     1  O    7.688920   0.799361  -0.082828   0.000946  -0.000102  -0.000003
     2  C    0.799361   4.256077   0.397415   0.016547  -0.002069  -0.000496
     3  C   -0.082828   0.397415   5.477913   0.392589  -0.029341   0.000601
     4  C    0.000946   0.016547   0.392589   4.494621   0.429533  -0.115698
     5  N   -0.000102  -0.002069  -0.029341   0.429533   6.325606   0.658273
     6  C   -0.000003  -0.000496   0.000601  -0.115698   0.658273   4.799687
     7  C   -0.000000   0.000001  -0.000278   0.004027  -0.030354   0.353613
     8  C   -0.000000  -0.000001  -0.000031   0.000768  -0.003793  -0.037163
     9  N    0.000000  -0.000001  -0.000023   0.000561   0.000659  -0.014412
    10  N    0.000004   0.000766   0.001313  -0.039815  -0.001461   0.000322
    11  N    0.002148  -0.021969  -0.025523   0.382150  -0.032890  -0.030379
    12  C   -0.061028   0.235798  -0.139437  -0.069045   0.000900   0.001082
    13  H   -0.001777  -0.024251   0.374123  -0.028197  -0.004479   0.000046
    14  H    0.000000   0.000073   0.003208   0.003090  -0.063197   0.369999
    15  H    0.000000  -0.000000   0.000017  -0.000192   0.002162  -0.020240
    16  H   -0.000000  -0.000000   0.000007   0.000707  -0.001252  -0.010008
    17  H    0.000000  -0.000000   0.000000   0.000022   0.000131   0.003087
    18  H    0.000000   0.000227  -0.000140   0.002111   0.000133   0.000244
    19  H    0.000310  -0.009382   0.000553   0.001892   0.000018  -0.000007
    20  H    0.000908  -0.007934   0.002954   0.002850  -0.000055   0.000012
               7          8          9         10         11         12
     1  O   -0.000000  -0.000000   0.000000   0.000004   0.002148  -0.061028
     2  C    0.000001  -0.000001  -0.000001   0.000766  -0.021969   0.235798
     3  C   -0.000278  -0.000031  -0.000023   0.001313  -0.025523  -0.139437
     4  C    0.004027   0.000768   0.000561  -0.039815   0.382150  -0.069045
     5  N   -0.030354  -0.003793   0.000659  -0.001461  -0.032890   0.000900
     6  C    0.353613  -0.037163  -0.014412   0.000322  -0.030379   0.001082
     7  C    5.145863   0.344487  -0.036723  -0.004539   0.002779  -0.000034
     8  C    0.344487   4.729280   0.661991  -0.060921   0.002582   0.000012
     9  N   -0.036723   0.661991   6.352128   0.297625  -0.029951   0.000765
    10  N   -0.004539  -0.060921   0.297625   6.536436   0.185605  -0.013252
    11  N    0.002779   0.002582  -0.029951   0.185605   6.558552   0.289168
    12  C   -0.000034   0.000012   0.000765  -0.013252   0.289168   5.371935
    13  H   -0.000002   0.000001   0.000001  -0.000030   0.002618   0.006288
    14  H   -0.078569   0.002078  -0.004320  -0.004439   0.012763   0.000274
    15  H    0.329680  -0.021205   0.002073   0.000070  -0.000073   0.000000
    16  H    0.355065  -0.021225  -0.001495   0.000303  -0.000075   0.000002
    17  H   -0.069055   0.371487  -0.027006   0.003316  -0.000094   0.000002
    18  H   -0.000095   0.001381  -0.040432   0.341833  -0.030733  -0.000964
    19  H   -0.000001  -0.000002   0.000003   0.001089  -0.017681   0.342767
    20  H    0.000001   0.000002  -0.000004  -0.001053  -0.015938   0.345581
              13         14         15         16         17         18
     1  O   -0.001777   0.000000   0.000000  -0.000000   0.000000   0.000000
     2  C   -0.024251   0.000073  -0.000000  -0.000000  -0.000000   0.000227
     3  C    0.374123   0.003208   0.000017   0.000007   0.000000  -0.000140
     4  C   -0.028197   0.003090  -0.000192   0.000707   0.000022   0.002111
     5  N   -0.004479  -0.063197   0.002162  -0.001252   0.000131   0.000133
     6  C    0.000046   0.369999  -0.020240  -0.010008   0.003087   0.000244
     7  C   -0.000002  -0.078569   0.329680   0.355065  -0.069055  -0.000095
     8  C    0.000001   0.002078  -0.021205  -0.021225   0.371487   0.001381
     9  N    0.000001  -0.004320   0.002073  -0.001495  -0.027006  -0.040432
    10  N   -0.000030  -0.004439   0.000070   0.000303   0.003316   0.341833
    11  N    0.002618   0.012763  -0.000073  -0.000075  -0.000094  -0.030733
    12  C    0.006288   0.000274   0.000000   0.000002   0.000002  -0.000964
    13  H    0.554009   0.000015   0.000000   0.000001   0.000000   0.000001
    14  H    0.000015   0.614181   0.001755   0.005549   0.000070   0.000232
    15  H    0.000000   0.001755   0.609756  -0.032899  -0.002484   0.000006
    16  H    0.000001   0.005549  -0.032899   0.549954   0.002330  -0.000003
    17  H    0.000000   0.000070  -0.002484   0.002330   0.580109  -0.000143
    18  H    0.000001   0.000232   0.000006  -0.000003  -0.000143   0.441000
    19  H   -0.000138  -0.000173  -0.000000  -0.000000  -0.000000   0.000039
    20  H   -0.000114   0.000058   0.000000   0.000000  -0.000000   0.001323
              19         20
     1  O    0.000310   0.000908
     2  C   -0.009382  -0.007934
     3  C    0.000553   0.002954
     4  C    0.001892   0.002850
     5  N    0.000018  -0.000055
     6  C   -0.000007   0.000012
     7  C   -0.000001   0.000001
     8  C   -0.000002   0.000002
     9  N    0.000003  -0.000004
    10  N    0.001089  -0.001053
    11  N   -0.017681  -0.015938
    12  C    0.342767   0.345581
    13  H   -0.000138  -0.000114
    14  H   -0.000173   0.000058
    15  H   -0.000000   0.000000
    16  H   -0.000000   0.000000
    17  H   -0.000000  -0.000000
    18  H    0.000039   0.001323
    19  H    0.556670  -0.034106
    20  H   -0.034106   0.549078
 Mulliken charges:
               1
     1  O   -0.346860
     2  C    0.359839
     3  C   -0.373092
     4  C    0.520532
     5  N   -0.248421
     6  C    0.041438
     7  C   -0.315865
     8  C    0.030270
     9  N   -0.161438
    10  N   -0.243170
    11  N   -0.233059
    12  C   -0.310813
    13  H    0.121884
    14  H    0.137352
    15  H    0.131574
    16  H    0.153037
    17  H    0.138228
    18  H    0.283978
    19  H    0.158150
    20  H    0.156437
 Sum of Mulliken charges =  -0.00000
 Mulliken charges with hydrogens summed into heavy atoms:
               1
     1  O   -0.346860
     2  C    0.359839
     3  C   -0.251208
     4  C    0.520532
     5  N   -0.248421
     6  C    0.178790
     7  C   -0.031253
     8  C    0.168498
     9  N   -0.161438
    10  N    0.040808
    11  N   -0.233059
    12  C    0.003774
 Electronic spatial extent (au):  <R**2>=           2070.3587
 Charge=             -0.0000 electrons
 Dipole moment (field-independent basis, Debye):
    X=             -5.1255    Y=              1.0906    Z=              1.7981  Tot=              5.5401
 Quadrupole moment (field-independent basis, Debye-Ang):
   XX=            -77.1379   YY=            -64.2296   ZZ=            -68.6846
   XY=              7.7435   XZ=             -0.0704   YZ=             -1.0868
 Traceless Quadrupole moment (field-independent basis, Debye-Ang):
   XX=             -7.1205   YY=              5.7877   ZZ=              1.3328
   XY=              7.7435   XZ=             -0.0704   YZ=             -1.0868
 Octapole moment (field-independent basis, Debye-Ang**2):
  XXX=           -117.8181  YYY=             16.4778  ZZZ=              2.7386  XYY=             14.2283
  XXY=             -7.6325  XXZ=              8.2367  XZZ=              4.3926  YZZ=              0.9651
  YYZ=              0.0483  XYZ=              1.1746
 Hexadecapole moment (field-independent basis, Debye-Ang**3):
 XXXX=          -2234.0097 YYYY=           -523.9028 ZZZZ=           -109.4636 XXXY=             52.4623
 XXXZ=             12.1385 YYYX=              7.9630 YYYZ=            -10.3119 ZZZX=              0.5096
 ZZZY=              1.6460 XXYY=           -415.2950 XXZZ=           -342.4856 YYZZ=           -115.1369
 XXYZ=              4.1243 YYXZ=             -4.0672 ZZXY=              9.6872
 N-N= 6.762893315252D+02 E-N=-2.670371514719D+03  KE= 5.612206909862D+02
 PrsmSu:  requested number of processors reduced to:  13 ShMem   1 Linda.
 Calling FoFJK, ICntrl=      2127 FMM=F ISym2X=0 I1Cent= 0 IOpClX= 0 NMat=1 NMatS=1 NMatT=0.
 ***** Axes restored to original set *****
 -------------------------------------------------------------------
 Center     Atomic                   Forces (Hartrees/Bohr)
 Number     Number              X              Y              Z
 -------------------------------------------------------------------
      1        8          -0.008776613    0.026687002   -0.003337371
      2        6          -0.018362278   -0.044059448   -0.003134535
      3        6          -0.013423979    0.050460291   -0.001405980
      4        6          -0.026297533   -0.003490921    0.002093216
      5        7           0.042872104    0.026628362    0.002677803
      6        6          -0.003783081   -0.012758441    0.002766522
      7        6           0.011611269   -0.005994355   -0.019488684
      8        6          -0.013212241    0.031810967    0.005482582
      9        7           0.000748467   -0.018697241    0.000948288
     10        7           0.006949704   -0.014062192   -0.006893065
     11        7           0.011313148   -0.009631182   -0.000101119
     12        6           0.009586173   -0.015712311    0.007788268
     13        1          -0.000094992   -0.002806756    0.000923489
     14        1          -0.007100535   -0.013612057    0.003241519
     15        1           0.014815266    0.002472855    0.006514092
     16        1          -0.004280529    0.003224636    0.001296204
     17        1          -0.019773217    0.012490191    0.003389925
     18        1          -0.002790960   -0.016184162   -0.010948826
     19        1           0.008589759    0.004721119    0.006410263
     20        1           0.011410067   -0.001486357    0.001777408
 -------------------------------------------------------------------
 Cartesian Forces:  Max     0.050460291 RMS     0.015313527

 GradGradGradGradGradGradGradGradGradGradGradGradGradGradGradGradGradGrad
 Berny optimization.
 FormGI is forming the generalized inverse of G from B-inverse, IUseBI=4.
 Internal  Forces:  Max     0.055201891 RMS     0.014875830
 Search for a local minimum.
 Step number   1 out of a maximum of  114
 All quantities printed in internal units (Hartrees-Bohrs-Radians)
 Mixed Optimization -- RFO/linear search
 Second derivative matrix not updated -- first step.
 ITU=  0
     Eigenvalues ---    0.00470   0.00613   0.00832   0.01074   0.01170
     Eigenvalues ---    0.01429   0.01700   0.01786   0.01890   0.02181
     Eigenvalues ---    0.02495   0.02937   0.04331   0.04902   0.05888
     Eigenvalues ---    0.06643   0.07371   0.08356   0.08466   0.09158
     Eigenvalues ---    0.10912   0.12947   0.14610   0.15717   0.15908
     Eigenvalues ---    0.15984   0.18767   0.21765   0.22695   0.23114
     Eigenvalues ---    0.23486   0.23810   0.23991   0.24995   0.27684
     Eigenvalues ---    0.28541   0.30090   0.31631   0.32063   0.33575
     Eigenvalues ---    0.33864   0.34136   0.34467   0.34908   0.35572
     Eigenvalues ---    0.37008   0.37809   0.38688   0.42466   0.52365
     Eigenvalues ---    0.54604   0.59337   0.69564   1.00258
 RFO step:  Lambda=-7.37455875D-02 EMin= 4.70388551D-03
 Linear search not attempted -- first point.
 Maximum step size (   0.300) exceeded in Quadratic search.
    -- Step size scaled by   0.686
 Iteration  1 RMS(Cart)=  0.09342874 RMS(Int)=  0.00325904
 Iteration  2 RMS(Cart)=  0.00459884 RMS(Int)=  0.00051186
 Iteration  3 RMS(Cart)=  0.00000523 RMS(Int)=  0.00051183
 Iteration  4 RMS(Cart)=  0.00000000 RMS(Int)=  0.00051183
 Variable       Old X    -DE/DX   Delta X   Delta X   Delta X     New X
                                 (Linear)    (Quad)   (Total)
    R1        2.28536   0.01226   0.00000   0.00781   0.00781   2.29317
    R2        2.76537  -0.00640   0.00000  -0.00740  -0.00752   2.75786
    R3        2.91623   0.00359   0.00000   0.00723   0.00708   2.92332
    R4        2.53032   0.02939   0.00000   0.03300   0.03298   2.56331
    R5        2.02534   0.00237   0.00000   0.00366   0.00366   2.02900
    R6        2.56580   0.03094   0.00000   0.03739   0.03722   2.60302
    R7        2.70066  -0.02259   0.00000  -0.03737  -0.03688   2.66378
    R8        2.42481  -0.00109   0.00000   0.00447   0.00404   2.42885
    R9        2.73814   0.01592   0.00000   0.02984   0.02945   2.76759
   R10        2.10728  -0.01327   0.00000  -0.02307  -0.02307   2.08421
   R11        2.87142   0.00256   0.00000   0.00911   0.00881   2.88024
   R12        2.07560   0.00286   0.00000   0.00475   0.00475   2.08035
   R13        2.06550  -0.00087   0.00000  -0.00142  -0.00142   2.06408
   R14        2.50684  -0.05238   0.00000  -0.05527  -0.05517   2.45167
   R15        2.11524  -0.01878   0.00000  -0.03301  -0.03301   2.08222
   R16        2.76784  -0.03391   0.00000  -0.06194  -0.06152   2.70631
   R17        3.01845  -0.03176   0.00000  -0.07676  -0.07636   2.94209
   R18        1.95034  -0.01674   0.00000  -0.02304  -0.02304   1.92730
   R19        2.89349  -0.02908   0.00000  -0.05886  -0.05874   2.83475
   R20        2.08053  -0.00376   0.00000  -0.00630  -0.00630   2.07423
   R21        2.07102  -0.00349   0.00000  -0.00576  -0.00576   2.06525
    A1        2.13169   0.03913   0.00000   0.08335   0.08340   2.21509
    A2        2.23832  -0.01889   0.00000  -0.03961  -0.03956   2.19876
    A3        1.91306  -0.02023   0.00000  -0.04358  -0.04374   1.86932
    A4        1.83631   0.01080   0.00000   0.03026   0.03017   1.86648
    A5        2.19911  -0.00434   0.00000  -0.01102  -0.01099   2.18812
    A6        2.24459  -0.00666   0.00000  -0.01911  -0.01909   2.22550
    A7        2.07198   0.05520   0.00000   0.12116   0.12067   2.19264
    A8        2.04272  -0.01538   0.00000  -0.03284  -0.03276   2.00996
    A9        2.16839  -0.03978   0.00000  -0.08820  -0.08782   2.08057
   A10        1.82721   0.02379   0.00000   0.06144   0.06228   1.88949
   A11        2.15106   0.00580   0.00000   0.02648   0.02512   2.17618
   A12        2.14622  -0.01042   0.00000  -0.03568  -0.03501   2.11120
   A13        1.94186   0.00280   0.00000   0.00329   0.00372   1.94558
   A14        1.73434  -0.00773   0.00000   0.00217   0.00054   1.73488
   A15        1.83308   0.01589   0.00000   0.06295   0.06355   1.89663
   A16        2.04491  -0.00267   0.00000  -0.02524  -0.02566   2.01924
   A17        1.94891   0.00196   0.00000  -0.00478  -0.00513   1.94378
   A18        2.00374  -0.00533   0.00000  -0.03137  -0.03159   1.97215
   A19        1.88987  -0.00050   0.00000   0.00346   0.00328   1.89315
   A20        2.27224   0.00254   0.00000   0.00968   0.00928   2.28152
   A21        1.95699   0.01353   0.00000   0.03918   0.03927   1.99626
   A22        2.05124  -0.01585   0.00000  -0.04721  -0.04718   2.00407
   A23        2.32910   0.00561   0.00000  -0.01306  -0.01190   2.31720
   A24        2.22643   0.02176   0.00000   0.03304   0.03283   2.25926
   A25        1.79217  -0.00902   0.00000  -0.02564  -0.02577   1.76641
   A26        1.85583  -0.01548   0.00000  -0.05562  -0.05529   1.80055
   A27        2.05256   0.01428   0.00000   0.02659   0.02614   2.07869
   A28        1.83637   0.00892   0.00000   0.01999   0.01946   1.85583
   A29        2.20623  -0.02675   0.00000  -0.07143  -0.07094   2.13529
   A30        1.77675   0.01577   0.00000   0.02891   0.02944   1.80619
   A31        1.80323   0.00077   0.00000   0.03023   0.02989   1.83312
   A32        1.89576   0.00298   0.00000   0.02004   0.02073   1.91650
   A33        1.93987  -0.00717   0.00000  -0.02520  -0.02634   1.91354
   A34        2.08247  -0.01108   0.00000  -0.03608  -0.03693   2.04554
   A35        1.93697   0.00216   0.00000  -0.00207  -0.00356   1.93341
    D1       -2.96599   0.00021   0.00000  -0.00538  -0.00479  -2.97078
    D2        0.09587  -0.00256   0.00000  -0.00441  -0.00424   0.09163
    D3        0.19069  -0.00053   0.00000  -0.01495  -0.01470   0.17599
    D4       -3.03063  -0.00330   0.00000  -0.01398  -0.01414  -3.04478
    D5        3.00210   0.00055   0.00000   0.00685   0.00721   3.00932
    D6       -1.26780  -0.00126   0.00000   0.00036   0.00065  -1.26716
    D7        0.79003   0.00293   0.00000   0.02224   0.02236   0.81239
    D8       -0.15576   0.00198   0.00000   0.01853   0.01836  -0.13740
    D9        1.85752   0.00017   0.00000   0.01204   0.01180   1.86931
   D10       -2.36783   0.00436   0.00000   0.03392   0.03351  -2.33432
   D11        3.00044  -0.00619   0.00000  -0.00586  -0.00686   2.99358
   D12       -0.15565  -0.00370   0.00000   0.00203   0.00212  -0.15353
   D13       -0.05861  -0.00350   0.00000  -0.00747  -0.00801  -0.06662
   D14        3.06849  -0.00101   0.00000   0.00042   0.00096   3.06946
   D15        2.50266   0.01096   0.00000   0.01055   0.01130   2.51396
   D16       -0.62332   0.00798   0.00000   0.00138   0.00141  -0.62191
   D17        2.61701  -0.01177   0.00000  -0.05478  -0.05512   2.56188
   D18        0.05569   0.00346   0.00000   0.00610   0.00624   0.06194
   D19       -0.53996  -0.00825   0.00000  -0.04446  -0.04489  -0.58485
   D20       -3.10127   0.00699   0.00000   0.01641   0.01648  -3.08480
   D21        2.51176  -0.00826   0.00000  -0.03411  -0.03493   2.47683
   D22       -0.28762  -0.00186   0.00000  -0.01237  -0.01291  -0.30053
   D23       -1.98651   0.01805   0.00000   0.08071   0.08117  -1.90535
   D24        2.27949   0.01390   0.00000   0.06545   0.06547   2.34496
   D25        0.18183   0.00425   0.00000   0.02920   0.02942   0.21125
   D26        0.84819   0.00988   0.00000   0.05363   0.05361   0.90180
   D27       -1.16900   0.00572   0.00000   0.03838   0.03792  -1.13108
   D28        3.01653  -0.00393   0.00000   0.00213   0.00186   3.01839
   D29        0.33439  -0.00611   0.00000  -0.01910  -0.01944   0.31495
   D30       -2.72473  -0.00880   0.00000  -0.04219  -0.04255  -2.76728
   D31        2.26096   0.00862   0.00000   0.05114   0.05075   2.31171
   D32       -0.79816   0.00593   0.00000   0.02805   0.02764  -0.77052
   D33       -1.86255   0.00536   0.00000   0.02723   0.02712  -1.83543
   D34        1.36151   0.00267   0.00000   0.00414   0.00401   1.36552
   D35        0.25607   0.00192   0.00000   0.00672   0.00686   0.26293
   D36       -2.97168   0.00592   0.00000   0.03434   0.03344  -2.93824
   D37       -0.97006  -0.00446   0.00000  -0.02926  -0.02921  -0.99927
   D38       -3.10741   0.01137   0.00000   0.05462   0.05521  -3.05219
   D39        1.28237   0.01483   0.00000   0.08499   0.08583   1.36820
   D40       -2.57651   0.01388   0.00000   0.05468   0.05558  -2.52093
   D41       -2.89015   0.00221   0.00000   0.01352   0.01375  -2.87640
   D42       -0.46584   0.00125   0.00000  -0.01678  -0.01650  -0.48235
   D43        0.06481  -0.00280   0.00000  -0.01318  -0.01363   0.05118
   D44       -1.84560  -0.00874   0.00000  -0.05232  -0.05166  -1.89725
   D45        2.14930   0.00685   0.00000   0.01434   0.01375   2.16305
   D46       -2.42866  -0.00578   0.00000   0.00672   0.00571  -2.42295
   D47        1.94411  -0.01172   0.00000  -0.03242  -0.03231   1.91180
   D48       -0.34417   0.00387   0.00000   0.03423   0.03309  -0.31108
         Item               Value     Threshold  Converged?
 Maximum Force            0.055202     0.000450     NO 
 RMS     Force            0.014876     0.000300     NO 
 Maximum Displacement     0.345754     0.001800     NO 
 RMS     Displacement     0.093584     0.001200     NO 
 Predicted change in Energy=-3.852620D-02
 GradGradGradGradGradGradGradGradGradGradGradGradGradGradGradGradGradGrad

                          Input orientation:                          
 ---------------------------------------------------------------------
 Center     Atomic      Atomic             Coordinates (Angstroms)
 Number     Number       Type             X           Y           Z
 ---------------------------------------------------------------------
      1          8           0        1.371374    0.456785   -0.053164
      2          6           0        2.545159    0.167599    0.052499
      3          6           0        3.117673   -1.174375    0.086683
      4          6           0        4.422330   -1.038828    0.432278
      5          7           0        5.282952   -2.070176    0.737310
      6          6           0        6.448990   -1.767541    0.289271
      7          6           0        7.708370   -2.064711    0.975237
      8          6           0        8.105037   -0.652793    1.390197
      9          7           0        7.399714    0.432291    1.481157
     10          7           0        5.988640    0.675648    1.505964
     11          7           0        4.899403    0.287231    0.463570
     12          6           0        3.720386    1.166740    0.169216
     13          1           0        2.571110   -2.087135   -0.058128
     14          1           0        6.578266   -0.974951   -0.466712
     15          1           0        8.417799   -2.482228    0.244267
     16          1           0        7.636470   -2.753408    1.819964
     17          1           0        9.179293   -0.525163    1.599461
     18          1           0        5.963173    1.695191    1.499570
     19          1           0        3.825364    1.601091   -0.833344
     20          1           0        3.478009    1.939483    0.903055
 ---------------------------------------------------------------------
                    Distance matrix (angstroms):
                    1          2          3          4          5
     1  O    0.000000
     2  C    1.213492   0.000000
     3  C    2.393700   1.459395   0.000000
     4  C    3.432323   2.263508   1.356443   0.000000
     5  N    4.723433   3.601682   2.431914   1.377459   0.000000
     6  C    5.554014   4.363568   3.389773   2.158431   1.285291
     7  C    6.897323   5.700298   4.759908   3.485010   2.437066
     8  C    6.975433   5.777086   5.181216   3.824783   3.224811
     9  N    6.220580   5.067330   4.781402   3.482694   3.361002
    10  N    4.878312   3.772034   3.698567   2.558429   2.937410
    11  N    3.569699   2.392856   2.335144   1.409614   2.404040
    12  C    2.464010   1.546953   2.418862   2.329476   3.638951
    13  H    2.812635   2.257595   1.073700   2.183222   2.826145
    14  H    5.415959   4.223855   3.510231   2.336734   2.080150
    15  H    7.640574   6.445639   5.461378   4.252356   3.200023
    16  H    7.284598   6.130062   5.090887   3.898224   2.679178
    17  H    8.041081   6.847243   6.281179   4.924923   4.279234
    18  H    5.002924   4.013773   4.281066   3.314841   3.901503
    19  H    2.817833   2.116257   3.008403   2.987866   4.250849
    20  H    2.747846   2.175598   3.239200   3.159701   4.400302
                    6          7          8          9         10
     6  C    0.000000
     7  C    1.464547   0.000000
     8  C    2.279736   1.524155   0.000000
     9  N    2.676515   2.566367   1.297367   0.000000
    10  N    2.767930   3.278522   2.501458   1.432120   0.000000
    11  N    2.579474   3.699152   3.466752   2.703346   1.556885
    12  C    4.008702   5.195763   4.901699   3.974677   2.678253
    13  H    3.906505   5.240208   5.897400   5.659710   4.664640
    14  H    1.102915   2.131649   2.425474   2.539547   2.638861
    15  H    2.094997   1.100876   2.181241   3.325781   4.179100
    16  H    2.173721   1.092262   2.194729   3.212401   3.817376
    17  H    3.273325   2.218891   1.101865   2.024257   3.410419
    18  H    3.700183   4.178217   3.180027   1.912826   1.019881
    19  H    4.414902   5.637979   5.323508   4.415766   3.317917
    20  H    4.790145   5.825352   5.326030   4.240944   2.874726
                   11         12         13         14         15
    11  N    0.000000
    12  C    1.500087   0.000000
    13  H    3.366115   3.458355   0.000000
    14  H    2.297195   3.627495   4.178660   0.000000
    15  H    4.482980   5.948638   5.867821   2.482188   0.000000
    16  H    4.310084   5.781716   5.443255   3.084086   1.779560
    17  H    4.501965   5.891332   6.989666   3.352121   2.499305
    18  H    2.046278   2.660675   5.313991   3.372574   5.005178
    19  H    2.135831   1.097638   3.972043   3.787992   6.239007
    20  H    2.223386   1.092885   4.237922   4.470099   6.662362
                   16         17         18         19         20
    16  H    0.000000
    17  H    2.719190   0.000000
    18  H    4.763675   3.909396   0.000000
    19  H    6.366022   6.253324   3.165687   0.000000
    20  H    6.336935   6.250128   2.567402   1.802844   0.000000
 Stoichiometry    C7H8N4O
 Framework group  C1[X(C7H8N4O)]
 Deg. of freedom    54
 Full point group                 C1      NOp   1
 Largest Abelian subgroup         C1      NOp   1
 Largest concise Abelian subgroup C1      NOp   1
                         Standard orientation:                         
 ---------------------------------------------------------------------
 Center     Atomic      Atomic             Coordinates (Angstroms)
 Number     Number       Type             X           Y           Z
 ---------------------------------------------------------------------
      1          8           0        3.905881   -0.012668   -0.131123
      2          6           0        2.701111   -0.042731    0.010973
      3          6           0        1.834654   -1.212107   -0.096945
      4          6           0        0.556092   -0.759306   -0.083262
      5          7           0       -0.566715   -1.518541   -0.328739
      6          6           0       -1.511074   -1.099869    0.436030
      7          6           0       -2.918387   -0.998547    0.043472
      8          6           0       -3.048532    0.518393   -0.027265
      9          7           0       -2.142061    1.442565   -0.113164
     10          7           0       -0.749491    1.410835   -0.445894
     11          7           0        0.408286    0.609652    0.218597
     12          6           0        1.795651    1.164639    0.350775
     13          1           0        2.169008   -2.222230   -0.240788
     14          1           0       -1.292013   -0.475216    1.318211
     15          1           0       -3.540144   -1.417356    0.849663
     16          1           0       -3.185775   -1.493878   -0.892577
     17          1           0       -4.082047    0.890671    0.058537
     18          1           0       -0.484236    2.381805   -0.281535
     19          1           0        2.004270    1.389165    1.404756
     20          1           0        2.056675    2.013967   -0.285546
 ---------------------------------------------------------------------
 Rotational constants (GHZ):           2.5034985           0.6287398           0.5178522
 Standard basis: 6-31G(2df,p) (6D, 7F)
 There are   412 symmetry adapted cartesian basis functions of A   symmetry.
 There are   376 symmetry adapted basis functions of A   symmetry.
   376 basis functions,   584 primitive gaussians,   412 cartesian basis functions
    43 alpha electrons       43 beta electrons
       nuclear repulsion energy       678.3005131030 Hartrees.
 NAtoms=   20 NActive=   20 NUniq=   20 SFac= 1.00D+00 NAtFMM=   60 NAOKFM=F Big=F
 Integral buffers will be    131072 words long.
 Raffenetti 2 integral format.
 Two-electron integral symmetry is turned on.
 One-electron integrals computed using PRISM.
 PrsmSu:  requested number of processors reduced to:  13 ShMem   1 Linda.
 NBasis=   376 RedAO= T EigKep=  2.20D-04  NBF=   376
 NBsUse=   376 1.00D-06 EigRej= -1.00D+00 NBFU=   376
 Initial guess from the checkpoint file:  "OdC1CdC2NdCCCdNNN2C1.chk"
 B after Tr=    -0.000000   -0.000000   -0.000000
         Rot=    0.999990   -0.001168    0.001743    0.004048 Ang=  -0.52 deg.
 ExpMin= 1.61D-01 ExpMax= 5.48D+03 ExpMxC= 8.25D+02 IAcc=2 IRadAn=         4 AccDes= 0.00D+00
 Harris functional with IExCor=  402 and IRadAn=       4 diagonalized for initial guess.
 HarFok:  IExCor=  402 AccDes= 0.00D+00 IRadAn=         4 IDoV= 1 UseB2=F ITyADJ=14
 ICtDFT=  3500011 ScaDFX=  1.000000  1.000000  1.000000  1.000000
 FoFCou: FMM=F IPFlag=           0 FMFlag=      100000 FMFlg1=           0
         NFxFlg=           0 DoJE=T BraDBF=F KetDBF=T FulRan=T
         wScrn=  0.000000 ICntrl=       500 IOpCl=  0 I1Cent=   200000004 NGrid=           0
         NMat0=    1 NMatS0=      1 NMatT0=    0 NMatD0=    1 NMtDS0=    0 NMtDT0=    0
 Petite list used in FoFCou.
 Requested convergence on RMS density matrix=1.00D-08 within 128 cycles.
 Requested convergence on MAX density matrix=1.00D-06.
 Requested convergence on             energy=1.00D-06.
 No special actions if energy rises.
 Integral accuracy reduced to 1.0D-05 until final iterations.
 Initial convergence to 1.0D-05 achieved.  Increase integral accuracy.
 SCF Done:  E(RB3LYP) =  -565.644546510     A.U. after   13 cycles
            NFock= 13  Conv=0.82D-08     -V/T= 2.0077
 PrsmSu:  requested number of processors reduced to:  13 ShMem   1 Linda.
 Calling FoFJK, ICntrl=      2127 FMM=F ISym2X=0 I1Cent= 0 IOpClX= 0 NMat=1 NMatS=1 NMatT=0.
 ***** Axes restored to original set *****
 -------------------------------------------------------------------
 Center     Atomic                   Forces (Hartrees/Bohr)
 Number     Number              X              Y              Z
 -------------------------------------------------------------------
      1        8           0.002313022    0.011787360   -0.003406822
      2        6          -0.011593609   -0.025250012    0.001524762
      3        6          -0.004203318    0.026892823    0.003076544
      4        6          -0.011053576   -0.009633855   -0.000530018
      5        7           0.021133259    0.023385959    0.000693083
      6        6          -0.009488993   -0.009359242    0.001321603
      7        6           0.003998270   -0.004638829   -0.013777812
      8        6          -0.006188827    0.013272543    0.001726122
      9        7          -0.007304833   -0.007140474    0.002032870
     10        7           0.001511881   -0.001730622   -0.005402801
     11        7           0.013531545   -0.006512519   -0.000299041
     12        6           0.008456087   -0.007627809    0.004162607
     13        1           0.000320790   -0.002800726    0.000336198
     14        1          -0.003102198   -0.007971441   -0.001442477
     15        1           0.006971778    0.004307403    0.005902321
     16        1          -0.003339077    0.001049777    0.001105552
     17        1          -0.009016902    0.004704381    0.000993589
     18        1          -0.004525451   -0.006544309   -0.003870671
     19        1           0.004221374    0.004639065    0.003913772
     20        1           0.007358778   -0.000829475    0.001940619
 -------------------------------------------------------------------
 Cartesian Forces:  Max     0.026892823 RMS     0.008683617

 GradGradGradGradGradGradGradGradGradGradGradGradGradGradGradGradGradGrad
 Berny optimization.
 Using GEDIIS/GDIIS optimizer.
 FormGI is forming the generalized inverse of G from B-inverse, IUseBI=4.
 Internal  Forces:  Max     0.024223995 RMS     0.007397728
 Search for a local minimum.
 Step number   2 out of a maximum of  114
 All quantities printed in internal units (Hartrees-Bohrs-Radians)
 Mixed Optimization -- RFO/linear search
 Update second derivatives using D2CorX and points    1    2
 DE= -3.79D-02 DEPred=-3.85D-02 R= 9.83D-01
 TightC=F SS=  1.41D+00  RLast= 3.77D-01 DXNew= 5.0454D-01 1.1316D+00
 Trust test= 9.83D-01 RLast= 3.77D-01 DXMaxT set to 5.05D-01
 ITU=  1  0
 Use linear search instead of GDIIS.
     Eigenvalues ---    0.00463   0.00656   0.00825   0.01040   0.01179
     Eigenvalues ---    0.01570   0.01745   0.01780   0.01945   0.02201
     Eigenvalues ---    0.02506   0.03246   0.04416   0.04799   0.06023
     Eigenvalues ---    0.06888   0.07401   0.08195   0.08434   0.09327
     Eigenvalues ---    0.10741   0.12575   0.14556   0.15551   0.15828
     Eigenvalues ---    0.16073   0.16935   0.21510   0.22388   0.22802
     Eigenvalues ---    0.23158   0.23590   0.24819   0.26978   0.27800
     Eigenvalues ---    0.28255   0.30103   0.31668   0.32125   0.33578
     Eigenvalues ---    0.33924   0.34149   0.34472   0.34807   0.35128
     Eigenvalues ---    0.37007   0.38133   0.38756   0.42516   0.53717
     Eigenvalues ---    0.55867   0.59150   0.70019   1.00568
 RFO step:  Lambda=-1.76610430D-02 EMin= 4.62712933D-03
 Quartic linear search produced a step of  1.00420.
 Iteration  1 RMS(Cart)=  0.14324955 RMS(Int)=  0.00871945
 Iteration  2 RMS(Cart)=  0.00953299 RMS(Int)=  0.00244456
 Iteration  3 RMS(Cart)=  0.00008095 RMS(Int)=  0.00244393
 Iteration  4 RMS(Cart)=  0.00000013 RMS(Int)=  0.00244393
 Variable       Old X    -DE/DX   Delta X   Delta X   Delta X     New X
                                 (Linear)    (Quad)   (Total)
    R1        2.29317   0.00087   0.00785  -0.00858  -0.00074   2.29243
    R2        2.75786  -0.00632  -0.00755  -0.01966  -0.02813   2.72973
    R3        2.92332   0.00386   0.00711   0.01607   0.02225   2.94556
    R4        2.56331   0.00846   0.03312  -0.01580   0.01730   2.58061
    R5        2.02900   0.00217   0.00368   0.00564   0.00931   2.03831
    R6        2.60302   0.00340   0.03737  -0.03756  -0.00037   2.60265
    R7        2.66378  -0.00887  -0.03703  -0.00043  -0.03608   2.62770
    R8        2.42885  -0.01018   0.00406  -0.02347  -0.01938   2.40946
    R9        2.76759   0.00494   0.02958  -0.00840   0.02085   2.78844
   R10        2.08421  -0.00510  -0.02317   0.00446  -0.01871   2.06549
   R11        2.88024   0.00248   0.00885   0.01560   0.02429   2.90452
   R12        2.08035  -0.00106   0.00477  -0.01269  -0.00792   2.07244
   R13        2.06408   0.00041  -0.00143   0.00428   0.00285   2.06693
   R14        2.45167  -0.02108  -0.05540   0.00805  -0.04732   2.40435
   R15        2.08222  -0.00806  -0.03315   0.00154  -0.03161   2.05061
   R16        2.70631  -0.02190  -0.06178  -0.03725  -0.09888   2.60743
   R17        2.94209  -0.02422  -0.07668  -0.08211  -0.15840   2.78368
   R18        1.92730  -0.00640  -0.02314   0.00434  -0.01879   1.90850
   R19        2.83475  -0.02004  -0.05899  -0.04199  -0.10029   2.73446
   R20        2.07423  -0.00133  -0.00632   0.00182  -0.00451   2.06973
   R21        2.06525  -0.00092  -0.00579   0.00340  -0.00238   2.06287
    A1        2.21509   0.01724   0.08375  -0.00176   0.08251   2.29760
    A2        2.19876  -0.01002  -0.03973  -0.01222  -0.05140   2.14735
    A3        1.86932  -0.00722  -0.04392   0.01384  -0.03138   1.83795
    A4        1.86648   0.00347   0.03030  -0.01220   0.01746   1.88394
    A5        2.18812  -0.00017  -0.01104   0.01930   0.00828   2.19640
    A6        2.22550  -0.00342  -0.01917  -0.00488  -0.02395   2.20155
    A7        2.19264   0.02371   0.12117   0.00204   0.12029   2.31293
    A8        2.00996  -0.00669  -0.03290   0.00871  -0.02334   1.98662
    A9        2.08057  -0.01701  -0.08819  -0.01061  -0.09746   1.98311
   A10        1.88949   0.00706   0.06254  -0.02572   0.04502   1.93451
   A11        2.17618  -0.00188   0.02523  -0.05059  -0.03120   2.14498
   A12        2.11120  -0.00330  -0.03516   0.01298  -0.01927   2.09194
   A13        1.94558   0.00404   0.00373   0.03073   0.03613   1.98171
   A14        1.73488  -0.00235   0.00054   0.03667   0.03448   1.76936
   A15        1.89663   0.00825   0.06382   0.03239   0.09771   1.99434
   A16        2.01924  -0.00222  -0.02577  -0.02906  -0.05688   1.96237
   A17        1.94378   0.00020  -0.00515  -0.00547  -0.01573   1.92804
   A18        1.97215  -0.00403  -0.03172  -0.03864  -0.07086   1.90129
   A19        1.89315   0.00043   0.00330   0.00722   0.01025   1.90340
   A20        2.28152   0.00199   0.00932   0.02572   0.03493   2.31646
   A21        1.99626   0.00534   0.03943  -0.01419   0.02371   2.01996
   A22        2.00407  -0.00724  -0.04737  -0.00871  -0.05753   1.94654
   A23        2.31720   0.00144  -0.01195  -0.00492  -0.01319   2.30402
   A24        2.25926   0.00405   0.03297  -0.06505  -0.03595   2.22331
   A25        1.76641  -0.00007  -0.02588   0.06512   0.03804   1.80445
   A26        1.80055  -0.00656  -0.05552   0.00575  -0.04862   1.75193
   A27        2.07869   0.01071   0.02625   0.01464   0.03176   2.11046
   A28        1.85583   0.00574   0.01954   0.00769   0.02435   1.88018
   A29        2.13529  -0.01987  -0.07124  -0.08691  -0.15549   1.97980
   A30        1.80619   0.00466   0.02956  -0.00989   0.02099   1.82718
   A31        1.83312   0.00199   0.03001   0.03573   0.06281   1.89593
   A32        1.91650   0.00407   0.02082   0.02105   0.04428   1.96077
   A33        1.91354  -0.00279  -0.02645   0.01078  -0.01868   1.89486
   A34        2.04554  -0.00628  -0.03708  -0.03410  -0.07347   1.97207
   A35        1.93341  -0.00033  -0.00357  -0.01468  -0.02372   1.90969
    D1       -2.97078  -0.00026  -0.00481  -0.07289  -0.07740  -3.04818
    D2        0.09163  -0.00178  -0.00425  -0.04489  -0.05029   0.04135
    D3        0.17599  -0.00033  -0.01476  -0.04365  -0.05677   0.11922
    D4       -3.04478  -0.00185  -0.01420  -0.01566  -0.02966  -3.07444
    D5        3.00932   0.00097   0.00724   0.07584   0.08285   3.09217
    D6       -1.26716   0.00056   0.00065   0.09766   0.09781  -1.16935
    D7        0.81239   0.00336   0.02245   0.11115   0.13341   0.94580
    D8       -0.13740   0.00114   0.01844   0.04700   0.06497  -0.07242
    D9        1.86931   0.00073   0.01185   0.06881   0.07993   1.94924
   D10       -2.33432   0.00354   0.03365   0.08231   0.11553  -2.21880
   D11        2.99358  -0.00429  -0.00689  -0.00699  -0.01913   2.97445
   D12       -0.15353  -0.00156   0.00212   0.02211   0.02411  -0.12942
   D13       -0.06662  -0.00293  -0.00804  -0.03719  -0.04827  -0.11488
   D14        3.06946  -0.00020   0.00097  -0.00810  -0.00503   3.06443
   D15        2.51396   0.00225   0.01135  -0.06231  -0.04938   2.46458
   D16       -0.62191  -0.00062   0.00142  -0.09254  -0.09277  -0.71468
   D17        2.56188  -0.01084  -0.05535  -0.10783  -0.16602   2.39587
   D18        0.06194   0.00181   0.00627   0.01024   0.01790   0.07984
   D19       -0.58485  -0.00816  -0.04508  -0.08069  -0.13054  -0.71538
   D20       -3.08480   0.00449   0.01655   0.03737   0.05338  -3.03141
   D21        2.47683  -0.00561  -0.03507  -0.05537  -0.09198   2.38485
   D22       -0.30053  -0.00240  -0.01297  -0.03781  -0.05330  -0.35384
   D23       -1.90535   0.01065   0.08151   0.13796   0.21975  -1.68559
   D24        2.34496   0.00859   0.06575   0.11574   0.17890   2.52387
   D25        0.21125   0.00313   0.02954   0.10136   0.13089   0.34214
   D26        0.90180   0.00648   0.05383   0.12046   0.17420   1.07600
   D27       -1.13108   0.00442   0.03808   0.09824   0.13335  -0.99773
   D28        3.01839  -0.00104   0.00187   0.08386   0.08534   3.10373
   D29        0.31495  -0.00235  -0.01952   0.03992   0.01812   0.33307
   D30       -2.76728  -0.00416  -0.04273  -0.02188  -0.06653  -2.83381
   D31        2.31171   0.00588   0.05096   0.09315   0.14204   2.45376
   D32       -0.77052   0.00407   0.02776   0.03135   0.05739  -0.71313
   D33       -1.83543   0.00365   0.02723   0.07019   0.09638  -1.73906
   D34        1.36552   0.00183   0.00403   0.00839   0.01172   1.37724
   D35        0.26293   0.00229   0.00689  -0.05768  -0.05078   0.21215
   D36       -2.93824   0.00446   0.03358   0.00420   0.03329  -2.90495
   D37       -0.99927   0.00035  -0.02933   0.05665   0.02742  -0.97185
   D38       -3.05219   0.00730   0.05545   0.02364   0.08168  -2.97051
   D39        1.36820   0.00840   0.08619   0.07739   0.16432   1.53252
   D40       -2.52093   0.00593   0.05581  -0.01600   0.04397  -2.47696
   D41       -2.87640   0.00421   0.01381   0.13447   0.14790  -2.72851
   D42       -0.48235   0.00174  -0.01657   0.04108   0.02754  -0.45480
   D43        0.05118  -0.00180  -0.01369  -0.03532  -0.05065   0.00053
   D44       -1.89725  -0.00518  -0.05187  -0.07542  -0.12463  -2.02188
   D45        2.16305   0.00313   0.01381  -0.03603  -0.02348   2.13958
   D46       -2.42295  -0.00308   0.00574   0.03943   0.03946  -2.38348
   D47        1.91180  -0.00646  -0.03245  -0.00067  -0.03451   1.87729
   D48       -0.31108   0.00186   0.03323   0.03872   0.06664  -0.24444
         Item               Value     Threshold  Converged?
 Maximum Force            0.024224     0.000450     NO 
 RMS     Force            0.007398     0.000300     NO 
 Maximum Displacement     0.525685     0.001800     NO 
 RMS     Displacement     0.144153     0.001200     NO 
 Predicted change in Energy=-2.354196D-02
 GradGradGradGradGradGradGradGradGradGradGradGradGradGradGradGradGradGrad

                          Input orientation:                          
 ---------------------------------------------------------------------
 Center     Atomic      Atomic             Coordinates (Angstroms)
 Number     Number       Type             X           Y           Z
 ---------------------------------------------------------------------
      1          8           0        1.466781    0.651977   -0.062629
      2          6           0        2.584704    0.202283    0.077509
      3          6           0        3.073431   -1.156068    0.128844
      4          6           0        4.406256   -1.112768    0.423065
      5          7           0        5.318227   -2.089661    0.755996
      6          6           0        6.447108   -1.861776    0.208815
      7          6           0        7.729068   -2.010052    0.924307
      8          6           0        7.999852   -0.562509    1.364404
      9          7           0        7.249114    0.457485    1.486139
     10          7           0        5.876768    0.600371    1.477216
     11          7           0        4.939672    0.171369    0.424734
     12          6           0        3.851648    1.100683    0.209251
     13          1           0        2.477276   -2.046819    0.008007
     14          1           0        6.506783   -1.204254   -0.662265
     15          1           0        8.552057   -2.382076    0.302206
     16          1           0        7.640291   -2.640684    1.813552
     17          1           0        9.022025   -0.341436    1.653909
     18          1           0        5.746105    1.601137    1.440266
     19          1           0        4.016153    1.615413   -0.743414
     20          1           0        3.756189    1.838134    1.008437
 ---------------------------------------------------------------------
                    Distance matrix (angstroms):
                    1          2          3          4          5
     1  O    0.000000
     2  C    1.213102   0.000000
     3  C    2.426316   1.444508   0.000000
     4  C    3.462764   2.273063   1.365600   0.000000
     5  N    4.797954   3.631184   2.510782   1.377263   0.000000
     6  C    5.585364   4.381294   3.447625   2.184489   1.275034
     7  C    6.875804   5.663565   4.799689   3.478138   2.418020
     8  C    6.796501   5.618259   5.113565   3.755375   3.145389
     9  N    5.989314   4.879148   4.677834   3.417260   3.278626
    10  N    4.671378   3.599352   3.572378   2.491684   2.840493
    11  N    3.539700   2.380629   2.309220   1.390520   2.316311
    12  C    2.441895   1.558726   2.388517   2.291871   3.553601
    13  H    2.882635   2.252738   1.078628   2.183045   2.938082
    14  H    5.404329   4.231821   3.523646   2.366120   2.051360
    15  H    7.716199   6.506820   5.616805   4.337444   3.278580
    16  H    7.243886   6.054358   5.089060   3.837572   2.610370
    17  H    7.811216   6.649795   6.194774   4.838932   4.192930
    18  H    4.633812   3.715959   4.057733   3.192989   3.778002
    19  H    2.809088   2.172532   3.054614   2.992629   4.203713
    20  H    2.792050   2.216982   3.194540   3.077835   4.234532
                    6          7          8          9         10
     6  C    0.000000
     7  C    1.475580   0.000000
     8  C    2.331201   1.537007   0.000000
     9  N    2.766539   2.575801   1.272326   0.000000
    10  N    2.827772   3.248236   2.423325   1.379793   0.000000
    11  N    2.540209   3.576158   3.284244   2.557726   1.473061
    12  C    3.938600   5.022187   4.616079   3.686044   2.441139
    13  H    3.979212   5.331255   5.877230   5.588099   4.552223
    14  H    1.093013   2.158820   2.597784   2.815683   2.868966
    15  H    2.170310   1.096687   2.178077   3.341027   4.175262
    16  H    2.146057   1.093771   2.156346   3.139883   3.705074
    17  H    3.321134   2.233459   1.085138   1.951829   3.287988
    18  H    3.741610   4.151993   3.125139   1.889201   1.009936
    19  H    4.348233   5.450783   5.005607   4.094355   3.069755
    20  H    4.644327   5.531671   4.888607   3.786148   2.499733
                   11         12         13         14         15
    11  N    0.000000
    12  C    1.447015   0.000000
    13  H    3.340272   3.440373   0.000000
    14  H    2.351540   3.622432   4.170864   0.000000
    15  H    4.425429   5.850820   6.091134   2.549631   0.000000
    16  H    4.138816   5.561063   5.501762   3.078610   1.783917
    17  H    4.294118   5.558736   6.960680   3.526409   2.492425
    18  H    1.930253   2.314048   5.103351   3.587407   5.003452
    19  H    2.074300   1.095253   4.042860   3.763023   6.135770
    20  H    2.125898   1.091624   4.210622   4.428671   6.427230
                   16         17         18         19         20
    16  H    0.000000
    17  H    2.687232   0.000000
    18  H    4.660507   3.814563   0.000000
    19  H    6.147098   5.885166   2.785929   0.000000
    20  H    5.982831   5.735520   2.049978   1.784984   0.000000
 Stoichiometry    C7H8N4O
 Framework group  C1[X(C7H8N4O)]
 Deg. of freedom    54
 Full point group                 C1      NOp   1
 Largest Abelian subgroup         C1      NOp   1
 Largest concise Abelian subgroup C1      NOp   1
                         Standard orientation:                         
 ---------------------------------------------------------------------
 Center     Atomic      Atomic             Coordinates (Angstroms)
 Number     Number       Type             X           Y           Z
 ---------------------------------------------------------------------
      1          8           0        3.861231    0.109059   -0.057445
      2          6           0        2.660655   -0.053139    0.005206
      3          6           0        1.841091   -1.230669   -0.163149
      4          6           0        0.532574   -0.843988   -0.107259
      5          7           0       -0.645788   -1.505889   -0.372218
      6          6           0       -1.547933   -1.179890    0.467765
      7          6           0       -2.940450   -0.888969    0.075847
      8          6           0       -2.914028    0.644752   -0.021072
      9          7           0       -1.967075    1.485865   -0.141999
     10          7           0       -0.629968    1.333586   -0.446606
     11          7           0        0.355309    0.488249    0.249487
     12          6           0        1.664946    1.095255    0.350720
     13          1           0        2.201731   -2.229465   -0.352322
     14          1           0       -1.264431   -0.742893    1.428670
     15          1           0       -3.691475   -1.214229    0.805839
     16          1           0       -3.193129   -1.302289   -0.904792
[...]
 .00384003,-0.00594099,-0.00268531,-0.00168783,-0.01645691,-0.03084937,
 -0.01345107,-0.08649536,-0.02597229,-0.01025166,0.70726122,-0.00000872
 ,-0.00100242,0.00027062,-0.00040878,0.00295457,-0.00074245,0.00129171,
 -0.00279354,0.00038569,-0.00795919,0.00653581,-0.00625348,0.01570788,-
 0.00222599,-0.00022343,-0.03344392,-0.00201838,-0.01317456,-0.00040495
 ,-0.12228840,-0.00634548,-0.15596658,0.59514360,0.00014977,-0.00020024
 ,0.00010672,-0.00030233,0.00053496,-0.00025342,0.00060942,-0.00038080,
 -0.00001045,-0.00073693,0.00205042,-0.00023097,0.00369237,-0.00092394,
 -0.00097860,-0.01640115,-0.01576392,-0.01082139,-0.00102188,-0.0206201
 2,-0.06753817,0.04468544,0.11496692,0.17938542,0.00099715,-0.00049224,
 0.00026608,-0.00177358,0.00169575,-0.00106313,0.00191707,-0.00031661,0
 .00026674,-0.00478353,-0.00566505,-0.00344643,-0.00276479,0.00110643,-
 0.00015422,0.00882662,0.00085625,-0.00157630,0.01057200,0.00498420,0.0
 0240181,-0.26122807,0.24156803,0.03096705,0.54094331,-0.00047769,0.000
 54308,-0.00042201,-0.00023368,-0.00160405,0.00094245,-0.00104839,0.000
 50632,-0.00034368,0.00050449,0.00131487,0.00202361,-0.00298369,0.00268
 285,0.00148497,0.01136821,-0.00764870,0.00081440,0.01158910,-0.0311227
 4,-0.02041998,0.20131673,-0.37007525,-0.06453707,-0.33385018,0.5120306
 4,-0.00140727,-0.00078671,-0.00013131,0.00051276,0.00342117,-0.0003483
 4,0.00107208,-0.00142235,0.00018573,-0.00381141,0.00182552,0.00055738,
 0.00302523,-0.00016828,-0.00125175,-0.00025363,-0.00287010,0.00436119,
 0.00141181,-0.01429809,0.01248623,0.01998854,-0.05116926,-0.05967632,0
 .00357986,0.07834840,0.11616919,-0.00203860,-0.00259315,0.00023470,0.0
 0084516,0.01053597,-0.00249665,0.00739600,-0.00327977,0.00049618,-0.01
 983231,-0.01876011,-0.00460052,-0.00017639,0.00372874,0.00031145,-0.00
 108657,0.00057955,0.00006133,0.00253528,-0.00555090,-0.00036983,-0.064
 27020,0.00656052,0.00299880,-0.18606393,0.06086711,-0.00047953,0.36816
 149,0.00173910,0.00226943,0.00023080,0.00163344,-0.00795755,-0.0009544
 9,-0.00071650,-0.00303555,0.00059309,-0.01849519,-0.00784310,-0.032998
 50,-0.00376922,-0.00021744,-0.00275612,-0.00125828,-0.00108973,0.00076
 623,0.00154421,0.00385814,0.00062252,0.04406516,-0.00989278,-0.0019640
 6,0.07642813,-0.09986327,-0.03044858,-0.13926789,0.66226232,-0.0005226
 9,0.00305440,0.00030208,0.00379405,-0.00838340,0.00027006,-0.00322066,
 0.00564012,-0.00007243,0.00403309,-0.01607056,0.00051175,-0.01033794,0
 .00418706,0.00183929,0.01081754,-0.00074603,-0.00370717,0.00012228,0.0
 0188459,-0.00158798,0.01524919,-0.01743202,-0.00436908,-0.03514248,-0.
 00144935,-0.05547746,0.07453779,0.08951055,0.15899220,-0.00649880,-0.0
 0338523,-0.00380484,-0.04071211,0.00477532,-0.00220447,-0.03631032,-0.
 03502997,-0.00226771,-0.10492559,-0.01429115,-0.01616472,0.01564967,0.
 02384161,0.00259977,-0.00702220,0.00908271,0.00293839,0.00214801,-0.00
 127517,-0.00363002,0.00874640,-0.00375158,-0.00054721,-0.03367340,-0.0
 0940588,-0.02419549,-0.05160639,-0.00540180,-0.04244990,0.39883436,-0.
 01142727,0.00272378,-0.00300592,0.00517065,-0.00432155,0.00396926,-0.0
 4021071,-0.00826336,-0.00271386,-0.04803944,-0.17654233,0.02626499,0.0
 2311420,-0.05978130,0.01364757,-0.01524225,-0.00320333,0.00731946,0.00
 307572,0.00289547,0.00335822,0.00477270,-0.00143426,0.00093622,-0.0174
 8548,0.00311203,0.01361492,0.04125311,-0.10937584,-0.02551671,-0.02071
 238,0.53608461,0.00138857,-0.00698021,0.00354323,-0.01193209,0.0193422
 6,-0.00947056,0.00810319,-0.01175935,0.01611280,-0.02384445,-0.0037321
 8,-0.06433943,-0.00346927,0.01902364,-0.00270877,0.00118140,-0.0017502
 5,0.00035630,0.00055347,0.00067924,-0.00506041,-0.00044742,0.00734412,
 0.00309987,-0.00863713,0.00106874,0.00410608,-0.02665160,-0.05037143,-
 0.08042845,0.09773965,0.02327092,0.20476879,-0.05349225,-0.00604847,-0
 .01828120,-0.07492433,-0.04530970,0.00387606,-0.00527247,-0.00650266,-
 0.00268911,0.01033412,0.01263750,0.00245813,0.00210136,-0.00313177,0.0
 0024268,-0.00075355,-0.00070096,-0.00044000,0.00020752,0.00098043,0.00
 085937,0.00038413,-0.00337648,-0.00093410,-0.00256460,0.00356676,-0.00
 326812,-0.02661582,0.01141701,-0.00230960,-0.12525459,0.04884210,-0.02
 472612,0.37227980,-0.00084030,0.02130271,0.00023849,-0.00970108,-0.111
 40848,0.00034252,-0.01785643,-0.03507518,-0.00192509,0.01856846,-0.042
 19008,0.00035023,0.00520656,-0.00603624,-0.00083262,-0.00425538,-0.002
 80100,0.00119108,0.00077589,0.00205811,-0.00030646,0.00072312,-0.00291
 975,-0.00025745,-0.00219330,0.00024106,-0.00445590,-0.00701536,0.00847
 357,0.00539590,0.04024980,-0.13603332,0.00541503,-0.01092099,0.5584068
 7,-0.01870526,-0.00165479,0.00837867,0.00057577,-0.00875927,-0.0767328
 4,-0.00186465,0.00253556,0.01339250,0.00127207,0.01715922,-0.00325684,
 0.00074161,-0.00270125,0.00642030,-0.00199627,0.00175353,0.00114228,-0
 .00017211,-0.00067111,-0.00147124,-0.00111809,0.00063695,-0.00014264,0
 .00327662,-0.00084098,-0.00235351,-0.02506250,0.01454666,-0.01162913,0
 .00274337,-0.01843453,-0.07381231,-0.01618320,-0.02506235,0.57084975,-
 0.00055909,-0.00225251,0.00043487,0.01059632,0.00940360,0.00239801,-0.
 14354464,-0.13586301,-0.02044058,-0.00896703,-0.02490282,-0.00080598,0
 .00207022,0.00028954,0.00105266,-0.00092130,0.00016264,0.00034573,0.00
 021826,0.00003502,0.00001166,0.00010292,-0.00027529,-0.00005614,-0.000
 29618,-0.00007547,-0.00017381,-0.00018539,-0.00145654,0.00089977,-0.00
 308294,0.00154110,-0.00406391,0.00006850,0.00317514,-0.00170692,0.1441
 8891,0.00208199,0.00281883,0.00030545,-0.01895504,-0.01080609,-0.00486
 810,-0.14022230,-0.26331935,-0.02234703,0.00517309,0.00561331,0.000658
 51,-0.00039676,-0.00018960,-0.00000579,-0.00016939,-0.00002772,-0.0001
 8086,-0.00003936,0.00000197,-0.00002732,-0.00000915,0.00002727,0.00002
 035,0.00009508,0.00005375,-0.00006725,-0.00001214,0.00055827,0.0001767
 9,0.00299985,0.00003665,0.00037114,0.00053183,-0.00448705,0.00143018,0
 .15003033,0.27030632,0.00055671,-0.00139827,-0.00181688,0.00462831,0.0
 0446737,0.00080204,-0.02305013,-0.02291858,-0.03047558,-0.00130144,-0.
 00630145,-0.00152501,0.00097212,-0.00002304,-0.00318199,0.00099715,-0.
 00020674,0.00012441,-0.00023837,0.00011809,-0.00004430,-0.00012488,0.0
 0026689,0.00012427,0.00074644,-0.00044147,-0.00012241,-0.00034415,0.00
 223617,-0.00029687,-0.00257536,-0.00384234,0.00816918,-0.00335388,0.00
 302956,0.00353892,0.02211708,0.02468903,0.02436203,-0.00034988,0.00038
 570,-0.00015043,0.00015724,-0.00106209,0.00016371,-0.00135511,0.000852
 47,-0.00124761,0.00374896,-0.00682478,0.00582732,-0.00841808,-0.004217
 93,0.03517374,-0.05929406,0.00022819,-0.01140547,0.00153785,0.01230786
 ,-0.02425416,0.00089094,0.00124879,0.00079835,-0.00006599,-0.00051947,
 -0.00021345,0.00038845,0.00005289,-0.00022470,-0.00016033,-0.00030085,
 -0.00012644,-0.00014481,0.00023797,-0.00006450,0.00001118,0.00002225,0
 .00001869,0.06665592,-0.00040239,0.00060185,-0.00029975,0.00030394,-0.
 00169864,0.00072901,-0.00153092,0.00206570,0.00002335,-0.00158007,-0.0
 0990512,-0.00330224,-0.00121983,0.02241994,0.00932429,0.00659690,-0.08
 552752,0.09629903,-0.00354210,0.00445587,0.00286757,0.00039377,0.00131
 426,0.00012025,-0.00062848,0.00075569,-0.00015021,0.00004391,-0.000596
 60,0.00026114,0.00372160,-0.00120551,-0.00147426,-0.00001397,0.0002888
 0,0.00007446,0.00002115,0.00005961,-0.00007495,-0.00164051,0.06597187,
 0.00002706,-0.00013848,0.00001901,0.00008936,0.00044738,-0.00003102,0.
 00052979,-0.00078874,-0.00007750,-0.00254023,0.00173759,0.00149967,0.0
 1278569,0.01250836,-0.01530050,-0.00545286,0.08296931,-0.26447676,0.00
 057656,0.00889437,-0.00933193,0.00015156,0.00129099,0.00104941,0.00016
 541,-0.00020846,-0.00031204,0.00018949,-0.00049131,-0.00049599,-0.0010
 0603,-0.00101085,0.00059956,0.00004401,-0.00020433,0.00004375,-0.00002
 024,0.00000748,-0.00002041,-0.00229741,-0.10469686,0.28710770,-0.00024
 888,0.00033802,-0.00016926,-0.00002734,-0.00074185,0.00022599,-0.00039
 700,0.00119952,-0.00007255,-0.00107682,-0.00259968,-0.00031264,-0.0058
 7650,0.00445155,-0.00324759,-0.01653568,0.00468295,0.02120128,-0.20471
 237,0.05809399,0.11254643,0.00522702,-0.00142810,-0.00439194,-0.000477
 40,-0.00137709,0.00096011,0.00050893,-0.00006838,-0.00039051,0.0000011
 5,0.00000160,-0.00016525,0.00005751,0.00014619,0.00009027,0.00003173,-
 0.00000877,-0.00001154,0.00078046,-0.00051480,-0.00087479,0.22248698,0
 .00010062,-0.00006488,0.00005641,-0.00011231,0.00012244,-0.00009301,0.
 00008882,-0.00009291,0.00004208,-0.00114598,0.00073885,-0.00051152,0.0
 0032531,0.00233325,-0.00023771,-0.00435271,-0.00197437,0.00148846,0.05
 968973,-0.06254315,-0.04096524,0.02684137,-0.01432233,-0.01678495,-0.0
 0413873,-0.00344233,-0.00028049,0.00014686,-0.00016314,-0.00064518,-0.
 00019796,-0.00001051,-0.00059906,-0.00003557,-0.00001199,0.00003230,-0
 .00002001,0.00000369,0.00002497,0.00013430,-0.00038602,-0.00002632,-0.
 06277491,0.07259179,0.00004721,0.00004597,0.00001055,-0.00011988,-0.00
 006540,-0.00004870,0.00000156,0.00032207,-0.00004056,-0.00082517,-0.00
 094798,0.00029702,-0.00343414,0.00019647,-0.00079067,-0.01157198,0.005
 92211,0.01395875,0.11518109,-0.04127373,-0.13811779,0.00818676,-0.0023
 6583,-0.00453027,-0.00239909,-0.00066159,0.00032320,0.00049067,0.00003
 270,-0.00056064,0.00007408,0.00014517,-0.00022841,0.00000179,0.0001165
 6,0.00003193,0.00001233,-0.00000437,0.00002837,0.00095437,-0.00047686,
 -0.00002323,-0.12530946,0.04732149,0.14189582,0.00010448,-0.00002537,0
 .00004310,-0.00009124,0.00002908,-0.00004953,0.00014883,-0.00008828,0.
 00004740,0.00030617,0.00003989,-0.00001472,0.00241221,-0.00218793,0.00
 191784,0.00306435,0.01902814,-0.02666895,-0.04899379,-0.00910722,0.016
 19116,0.00070426,-0.00318522,0.00328906,-0.00129286,0.00110385,-0.0002
 2020,0.00107287,-0.00034139,-0.00019824,-0.00029856,-0.00028378,0.0005
 4625,-0.00004157,0.00014754,0.00000199,0.00000942,0.00000621,-0.000003
 59,-0.00447958,-0.00000233,-0.00220344,-0.00048805,-0.01422860,0.01911
 953,0.04804647,0.00019381,0.00003999,0.00004097,-0.00018807,-0.0001912
 7,-0.00001755,0.00005016,0.00022081,-0.00002015,-0.00006445,-0.0010470
 7,-0.00034876,0.00020406,0.00005629,-0.00086183,-0.00151874,0.00160096
 ,-0.00302687,-0.00538243,-0.12536977,0.13042230,0.00133142,-0.02659413
 ,0.02032941,-0.00389867,0.00235591,-0.00312554,0.00117477,0.00010948,-
 0.00028607,0.00039528,-0.00039957,0.00153814,-0.00014055,0.00032874,0.
 00036108,0.00001662,0.00000699,0.00000287,-0.00082368,0.00096254,-0.00
 017663,0.00013039,0.00615339,-0.00834323,0.00883528,0.14124848,0.00011
 171,0.00000225,0.00003915,-0.00007304,-0.00003133,-0.00006464,0.000208
 18,0.00005555,-0.00007833,-0.00030147,-0.00092403,0.00023410,0.0026399
 2,-0.00087637,0.00179350,-0.00070355,0.01054593,-0.01797832,0.01244581
 ,0.12235639,-0.21848677,0.00061489,-0.00683803,0.01009568,-0.00094770,
 -0.00024321,-0.00132624,0.00044906,0.00007980,-0.00060690,0.00037665,-
 0.00036354,0.00066673,-0.00005387,0.00012994,0.00018955,0.00000059,0.0
 0001063,0.00002889,-0.00318819,0.00076151,-0.00017558,-0.00006740,0.00
 950188,-0.01299246,-0.01141286,-0.13501470,0.23922598,-0.00025047,-0.0
 0000965,-0.00007139,0.00013123,0.00013053,0.00001501,-0.00011269,-0.00
 001863,-0.00003763,0.00033763,0.00021756,-0.00013428,0.00074052,-0.000
 33623,-0.00056901,-0.00023989,-0.00052447,0.00064578,-0.00324227,0.000
 26840,-0.00105243,-0.28921497,-0.05906377,-0.06231879,-0.02875017,0.01
 372255,0.00341334,0.00326069,-0.00083936,-0.00410402,-0.00162167,0.000
 55843,0.00035934,-0.00016804,-0.00039333,-0.00034023,-0.00001590,-0.00
 000409,0.00000770,-0.00005876,0.00004060,-0.00008568,0.00072350,-0.000
 43081,-0.00041084,-0.00021019,-0.00046334,-0.00012213,0.31910932,0.000
 07823,0.00014442,0.00002323,-0.00001500,-0.00041239,-0.00000077,0.0001
 0512,0.00048636,-0.00006235,0.00152805,0.00000129,0.00129213,-0.002039
 40,-0.00033007,-0.00097552,0.00190379,-0.00539124,0.00112692,-0.025667
 14,-0.00830724,-0.01142304,-0.06409339,-0.05218930,-0.01829535,0.03572
 751,-0.00940407,0.00665399,0.00534447,-0.00062284,-0.00185870,-0.00077
 616,0.00065068,-0.00164922,0.00039596,0.00062498,-0.00016547,0.0000299
 8,-0.00000546,0.00005660,-0.00010419,0.00030257,-0.00013866,0.00038838
 ,0.00104054,-0.00003573,0.00021158,0.00049680,0.00084924,0.04704144,0.
 07242062,0.00009227,0.00045085,-0.00010696,-0.00000635,-0.00134156,0.0
 0032085,-0.00040005,0.00093181,-0.00017393,0.00146246,-0.00303407,0.00
 091545,-0.00408705,0.00062876,0.00022410,0.00244465,-0.00092494,-0.000
 12717,-0.00855785,-0.00566496,0.00194210,-0.06451887,-0.02039622,-0.04
 921510,0.00527899,0.00802904,-0.00904235,-0.00107545,-0.00153212,0.010
 05846,0.00396898,-0.00150588,0.00288710,0.00020370,0.00107738,0.000872
 93,0.00007705,0.00003564,-0.00006092,0.00027369,-0.00021255,-0.0000823
 6,-0.00016800,0.00113950,0.00051352,-0.00040550,-0.00118415,-0.0004959
 6,0.06467746,0.02439017,0.04158650,0.00028859,0.00056233,-0.00005362,-
 0.00139986,-0.00230193,0.00038261,-0.00079820,-0.00003129,-0.00022458,
 -0.00103323,-0.00134707,-0.00321488,-0.00129433,0.00067697,-0.00068076
 ,0.00017710,-0.00006061,-0.00015885,-0.00062126,0.00007555,-0.00042418
 ,-0.00307137,0.00189729,-0.00066134,-0.04009117,0.04728648,0.00080293,
 -0.03366510,0.03148140,-0.01251546,-0.00356880,-0.02255012,-0.00359025
 ,0.00222395,-0.00307694,-0.00323291,-0.00044629,0.00014663,0.00023578,
 0.00005512,-0.00005882,0.00003877,0.00006130,0.00010922,0.00003607,0.0
 0003826,0.00009437,0.00001465,-0.00038615,0.00016184,0.00057698,0.0858
 7766,0.00060217,-0.00009446,0.00018618,-0.00080919,0.00019318,-0.00003
 418,0.00110604,-0.00039227,0.00004095,-0.00091643,-0.00013918,-0.00158
 879,0.00015445,-0.00011286,-0.00037691,-0.00108623,0.00013926,0.000288
 98,0.00016030,0.00013573,0.00025883,-0.00201300,0.00245331,0.00089269,
 0.00563107,-0.00135589,0.00473648,0.05064864,-0.43627099,-0.03664441,0
 .00040068,-0.01177202,0.00368996,0.00068671,0.00260606,0.00110544,-0.0
 0006792,0.00016499,-0.00001292,0.00004983,-0.00001428,-0.00000326,0.00
 000858,0.00004496,0.00003856,0.00005399,0.00006087,0.00001187,0.000095
 85,0.00032301,-0.00079839,-0.05405921,0.44292328,0.00050457,0.00020454
 ,0.00001008,-0.00080936,-0.00145968,-0.00038292,-0.00104150,-0.0008766
 5,0.00021444,-0.00053361,0.00601229,-0.00573479,0.00266682,-0.00011887
 ,0.00131868,-0.00185919,-0.00008755,-0.00024165,-0.00012698,0.00012581
 ,0.00196054,-0.00084945,0.00024813,0.00405376,0.00676366,-0.00402486,-
 0.00801491,-0.01678756,0.01192325,-0.01427894,-0.01003327,-0.03986382,
 -0.01823509,0.00070884,-0.00046226,0.00228856,-0.00035583,0.00018469,0
 .00054318,-0.00006593,0.00017843,-0.00000260,0.00015848,0.00052490,0.0
 0026956,0.00004954,-0.00020906,-0.00005185,0.00016836,0.00011504,0.000
 06276,0.02147377,0.02791351,0.03626728,0.00154406,0.00155540,-0.002581
 08,-0.00137487,-0.01271037,0.02063918,-0.00067176,-0.00317857,-0.00202
 634,-0.00469311,-0.00017953,-0.00207478,-0.00022424,0.00070842,0.00146
 535,0.00018365,0.00051863,0.00006639,-0.00015024,-0.00046281,-0.000558
 29,-0.00023977,0.00082719,0.00015621,0.00031729,-0.00084954,-0.0002384
 3,-0.00030661,0.00164035,-0.00024924,0.00050216,0.02362168,-0.02214823
 ,-0.05204429,-0.02936082,0.03868951,0.00062335,-0.00075084,-0.00013681
 ,0.00002943,0.00004786,-0.00003003,-0.00000336,0.00002569,-0.00000854,
 0.00000798,0.00010326,0.00004038,-0.00009230,-0.00010758,0.00017492,-0
 .00011557,-0.00022869,-0.00010278,0.05613645,0.00119163,0.00226626,-0.
 00195173,-0.00263441,-0.01231966,0.01421993,-0.00168769,-0.00124219,-0
 .00202696,0.00264449,-0.00087350,0.00202395,0.00018489,-0.00034785,-0.
 00075667,-0.00034768,-0.00054711,0.00003107,0.00005284,0.00035438,0.00
 023810,0.00012958,-0.00047785,-0.00005261,-0.00020531,0.00035270,0.000
 32956,-0.00048474,-0.00053043,-0.00014603,0.00234184,-0.01568852,0.012
 29065,-0.02572686,-0.14293041,0.12983524,0.00027089,-0.00044809,-0.000
 04611,0.00002554,0.00004114,0.00002469,0.00003593,-0.00002489,0.000015
 19,-0.00000250,-0.00004980,-0.00002458,0.00002718,0.00009700,-0.000081
 33,0.00023682,0.00011375,-0.00013330,0.02150776,0.16117614,0.00081526,
 0.00007529,0.00022445,-0.00207175,-0.00470597,0.00505356,-0.00033404,-
 0.00091793,-0.00085567,-0.00018123,-0.00183218,0.00021494,-0.00028749,
 0.00015825,-0.00013259,0.00022954,-0.00013782,-0.00010260,-0.00000141,
 0.00003366,-0.00004334,-0.00010342,-0.00001846,0.00002305,0.00020493,-
 0.00004766,-0.00004854,-0.00041122,0.00046527,0.00026540,-0.00264049,0
 .00190518,0.00263892,0.03235338,0.12849495,-0.20654070,0.00016959,-0.0
 0028170,-0.00002341,0.00003959,-0.00001504,0.00000103,-0.00000176,-0.0
 0000054,0.00000351,0.00000562,0.00000104,-0.00000197,-0.00002529,0.000
 02446,0.00001400,0.00016444,0.00025871,-0.00071889,-0.03338762,-0.1402
 0814,0.22001670,-0.00015380,0.00043661,0.00319073,0.00516494,-0.010596
 61,-0.02289361,-0.00011354,-0.00286137,0.00278655,-0.00645953,-0.00336
 049,0.00043347,0.00079533,0.00109354,-0.00135445,0.00057992,-0.0003513
 3,-0.00003685,0.00005492,-0.00017448,0.00004384,0.00024787,0.00017116,
 0.00002533,0.00025224,-0.00050422,-0.00050532,0.00167843,0.00161286,0.
 00221175,-0.01114606,0.02430101,0.01993027,-0.04638057,0.01638327,0.02
 305543,0.00009795,-0.00051942,0.00086018,0.00007103,-0.00003551,-0.000
 08700,-0.00003519,-0.00002432,-0.00002636,-0.00001944,-0.00004948,-0.0
 0003162,0.00006059,-0.00011348,-0.00001201,-0.00223066,-0.00041764,0.0
 0007140,0.00057174,0.00243980,0.00546337,0.05696384,0.00000283,0.00152
 686,0.00174691,0.00211373,-0.01069233,-0.01501655,-0.00199432,-0.00041
 481,0.00164939,0.00365927,0.00219942,-0.00191950,0.00078155,-0.0013516
 3,0.00115568,-0.00082503,-0.00005733,0.00025485,0.00003887,0.00006005,
 0.00000653,-0.00040682,-0.00019443,-0.00007071,0.00078160,0.00056743,0
 .00031269,-0.00391961,-0.00007196,-0.00093211,0.00641858,-0.01747183,-
 0.01571787,0.02284967,-0.11043740,-0.11118087,-0.00006243,-0.00036827,
 0.00037431,-0.00005229,0.00009386,0.00000375,0.00003649,0.00000759,0.0
 0001844,-0.00000292,0.00001037,0.00001077,-0.00001887,0.00007435,-0.00
 000697,0.00075711,0.00099356,-0.00019456,-0.00272750,0.01107893,0.0167
 4862,-0.02742991,0.12444755,-0.00103822,0.00021715,0.00129547,0.000858
 57,-0.00163926,-0.00371106,-0.00094586,0.00042360,-0.00015480,0.000255
 89,0.00095408,-0.00004897,-0.00009967,0.00017993,-0.00022877,0.0001938
 3,0.00011181,-0.00026281,0.00000859,0.00004219,0.00029060,-0.00002066,
 -0.00045107,-0.00017179,-0.00055110,0.00092870,-0.00008379,-0.00149047
 ,0.00050955,0.00127182,0.00107861,0.00182556,0.00733486,0.03149127,-0.
 11227516,-0.23120995,0.00010407,-0.00010748,-0.00015348,-0.00001118,0.
 00006367,0.00000981,0.00000014,0.00001202,0.00000050,-0.00003450,-0.00
 008127,-0.00001457,-0.00001528,0.00007301,-0.00009302,0.00103083,0.000
 03669,0.00067281,0.00231023,-0.01358092,-0.01998783,-0.03312509,0.1227
 5719,0.24524497\\-0.00000568,-0.00000223,0.00000059,-0.00000481,0.0000
 0132,-0.00000631,0.00002720,-0.00000936,0.00000238,-0.00004869,0.00001
 240,-0.00000576,0.00005116,-0.00001061,-0.00000676,-0.00003010,-0.0000
 0001,0.00003237,-0.00000970,0.00001371,-0.00000950,-0.00000782,-0.0000
 1056,0.00001247,0.00006982,-0.00000131,0.00000178,-0.00004915,0.000005
 88,-0.00000476,-0.00000604,0.00000916,-0.00000724,0.00000436,-0.000027
 57,-0.00000375,-0.00001949,0.00001326,-0.00000311,0.00001354,-0.000004
 60,-0.00000642,0.00000284,0.00000058,-0.00000543,0.00001439,-0.0000022
 4,0.00000218,-0.00000886,0.00000166,-0.00000384,-0.00000370,-0.0000033
 7,0.00000461,0.00000689,0.00000602,0.00000723,0.00000384,0.00000790,-0
 .00000073\\\@


 This summer one third of the nation will be ill-housed
 ill-nourished and ill-clad. Only they call it a vacation.
 -- Jonas Salk
 Job cpu time:       0 days  3 hours 11 minutes 30.9 seconds.
 Elapsed time:       0 days  0 hours 47 minutes 53.5 seconds.
 File lengths (MBytes):  RWF=    220 Int=      0 D2E=      0 Chk=     12 Scr=      1
 Normal termination of Gaussian 16 at Thu May 18 22:20:02 2023.
### All Done ###
