### Starting Gaussian ###
 Entering Gaussian System, Link 0=g16
 Initial command:
 /cluster/software/gaussian/gaussian-16-A.03/avx2/g16/l1.exe "/local/scratch/ks29c/Gau-6158.inp" -scrdir="/local/scratch/ks29c/"
 Entering Link 1 = /cluster/software/gaussian/gaussian-16-A.03/avx2/g16/l1.exe PID=      6159.
  
 Copyright (c) 1988,1990,1992,1993,1995,1998,2003,2009,2016,
            Gaussian, Inc.  All Rights Reserved.
  
 This is part of the Gaussian(R) 16 program.  It is based on
 the Gaussian(R) 09 system (copyright 2009, Gaussian, Inc.),
 the Gaussian(R) 03 system (copyright 2003, Gaussian, Inc.),
 the Gaussian(R) 98 system (copyright 1998, Gaussian, Inc.),
 the Gaussian(R) 94 system (copyright 1995, Gaussian, Inc.),
 the Gaussian 92(TM) system (copyright 1992, Gaussian, Inc.),
 the Gaussian 90(TM) system (copyright 1990, Gaussian, Inc.),
 the Gaussian 88(TM) system (copyright 1988, Gaussian, Inc.),
 the Gaussian 86(TM) system (copyright 1986, Carnegie Mellon
 University), and the Gaussian 82(TM) system (copyright 1983,
 Carnegie Mellon University). Gaussian is a federally registered
 trademark of Gaussian, Inc.
  
 This software contains proprietary and confidential information,
 including trade secrets, belonging to Gaussian, Inc.
  
 This software is provided under written license and may be
 used, copied, transmitted, or stored only in accord with that
 written license.
  
 The following legend is applicable only to US Government
 contracts under FAR:
  
                    RESTRICTED RIGHTS LEGEND
  
 Use, reproduction and disclosure by the US Government is
 subject to restrictions as set forth in subparagraphs (a)
 and (c) of the Commercial Computer Software - Restricted
 Rights clause in FAR 52.227-19.
  
 Gaussian, Inc.
 340 Quinnipiac St., Bldg. 40, Wallingford CT 06492
  
  
 ---------------------------------------------------------------
 Warning -- This program may not be used in any manner that
 competes with the business of Gaussian, Inc. or will provide
 assistance to any competitor of Gaussian, Inc.  The licensee
 of this program is prohibited from giving any competitor of
 Gaussian, Inc. access to this program.  By using this program,
 the user acknowledges that Gaussian, Inc. is engaged in the
 business of creating and licensing software in the field of
 computational chemistry and represents and warrants to the
 licensee that it is not a competitor of Gaussian, Inc. and that
 it will not use this program in any manner prohibited above.
 ---------------------------------------------------------------
  

 Cite this work as:
 Gaussian 16, Revision A.03,
 M. J. Frisch, G. W. Trucks, H. B. Schlegel, G. E. Scuseria, 
 M. A. Robb, J. R. Cheeseman, G. Scalmani, V. Barone, 
 G. A. Petersson, H. Nakatsuji, X. Li, M. Caricato, A. V. Marenich, 
 J. Bloino, B. G. Janesko, R. Gomperts, B. Mennucci, H. P. Hratchian, 
 J. V. Ortiz, A. F. Izmaylov, J. L. Sonnenberg, D. Williams-Young, 
 F. Ding, F. Lipparini, F. Egidi, J. Goings, B. Peng, A. Petrone, 
 T. Henderson, D. Ranasinghe, V. G. Zakrzewski, J. Gao, N. Rega, 
 G. Zheng, W. Liang, M. Hada, M. Ehara, K. Toyota, R. Fukuda, 
 J. Hasegawa, M. Ishida, T. Nakajima, Y. Honda, O. Kitao, H. Nakai, 
 T. Vreven, K. Throssell, J. A. Montgomery, Jr., J. E. Peralta, 
 F. Ogliaro, M. J. Bearpark, J. J. Heyd, E. N. Brothers, K. N. Kudin, 
 V. N. Staroverov, T. A. Keith, R. Kobayashi, J. Normand, 
 K. Raghavachari, A. P. Rendell, J. C. Burant, S. S. Iyengar, 
 J. Tomasi, M. Cossi, J. M. Millam, M. Klene, C. Adamo, R. Cammi, 
 J. W. Ochterski, R. L. Martin, K. Morokuma, O. Farkas, 
 J. B. Foresman, and D. J. Fox, Gaussian, Inc., Wallingford CT, 2016.
 
 ******************************************
 Gaussian 16:  ES64L-G16RevA.03 25-Dec-2016
                19-May-2023 
 ******************************************
 %chk=OdC1CdCCdCCdCdNO[N]ONOCC1.chk
 %NProcShared=20
 Will use up to   20 processors via shared memory.
 -----------------------------
 # opt freq b3lyp/6-31g(2df,p)
 -----------------------------
 1/18=20,19=15,26=3,38=1/1,3;
 2/9=110,12=2,17=6,18=5,40=1/2;
 3/5=1,6=6,7=104,11=2,25=1,30=1,71=1,74=-5/1,2,3;
 4//1;
 5/5=2,38=5/2;
 6/7=2,8=2,9=2,10=2,28=1/1;
 7//1,2,3,16;
 1/18=20,19=15,26=3/3(2);
 2/9=110/2;
 99//99;
 2/9=110/2;
 3/5=1,6=6,7=104,11=2,25=1,30=1,71=1,74=-5/1,2,3;
 4/5=5,16=3,69=1/1;
 5/5=2,38=5/2;
 7//1,2,3,16;
 1/18=20,19=15,26=3/3(-5);
 2/9=110/2;
 6/7=2,8=2,9=2,10=2,19=2,28=1/1;
 99/9=1/99;
 -------------------
 Title Card Required
 -------------------
 Symbolic Z-matrix:
 Charge =  0 Multiplicity = 2
 O                     4.96526  -0.37992  -1.37627 
 C                     5.65848   0.62056  -2.08083 
 C                     4.02782   1.23871  -1.27756 
 C                     4.67867   1.87134  -0.33512 
 C                     5.2276    2.79034  -1.32783 
 C                     6.54518   2.8192   -1.32923 
 C                     7.33756   3.45501  -2.29823 
 C                     8.61248   3.58734  -2.1498 
 N                     9.76041   3.75689  -1.99057 
 O                     10.32462   4.28658  -3.17319 
 N                     11.67593   4.75996  -3.03087 
 O                     12.31166   4.74755  -4.30922 
 N                     12.69539   3.37148  -4.21852 
 O                     11.03232   2.49966  -4.3873 
 C                     9.75952   1.67583  -3.05556 
 C                     7.82486   0.98354  -2.33246 
 H                     2.9082    1.73651  -1.41705 
 H                     5.255     1.06343   0.2062 
 H                     4.58581   3.1051   -2.17802 
 H                     7.00035   2.15896  -0.59834 
 H                     6.78635   4.08702  -2.9437 
 H                     13.88567   3.2569   -4.35517 
 H                     10.91374   2.28243  -2.57724 
 H                     11.00993   1.38379  -3.54487 
 H                     7.71856   0.73651  -1.00249 
 H                     7.28374   0.00812  -1.63459 
 
 Add virtual bond connecting atoms H26        and H25        Dist= 2.00D+00.
 Add virtual bond connecting atoms H22        and N13        Dist= 2.27D+00.
 Add virtual bond connecting atoms H25        and C16        Dist= 2.56D+00.
 Add virtual bond connecting atoms H26        and C16        Dist= 2.49D+00.
 Add virtual bond connecting atoms H24        and H23        Dist= 2.50D+00.
 Add virtual bond connecting atoms H23        and C15        Dist= 2.62D+00.
 Add virtual bond connecting atoms H24        and C15        Dist= 2.60D+00.
 Add virtual bond connecting atoms H24        and O14        Dist= 2.64D+00.
 Add virtual bond connecting atoms H25        and H20        Dist= 3.11D+00.
 Add virtual bond connecting atoms C3         and O1         Dist= 3.54D+00.
 Add virtual bond connecting atoms C3         and C2         Dist= 3.63D+00.
 Add virtual bond connecting atoms H26        and C2         Dist= 3.39D+00.
 Add virtual bond connecting atoms O14        and N13        Dist= 3.56D+00.
 Add virtual bond connecting atoms H23        and N9         Dist= 3.71D+00.

 GradGradGradGradGradGradGradGradGradGradGradGradGradGradGradGradGradGrad
 Berny optimization.
 Initialization pass.
                           ----------------------------
                           !    Initial Parameters    !
                           ! (Angstroms and Degrees)  !
 --------------------------                            --------------------------
 ! Name  Definition              Value          Derivative Info.                !
 --------------------------------------------------------------------------------
 ! R1    R(1,2)                  1.4064         estimate D2E/DX2                !
 ! R2    R(1,3)                  1.8731         estimate D2E/DX2                !
 ! R3    R(2,3)                  1.92           estimate D2E/DX2                !
 ! R4    R(2,26)                 1.7932         estimate D2E/DX2                !
 ! R5    R(3,4)                  1.3084         estimate D2E/DX2                !
 ! R6    R(3,17)                 1.2332         estimate D2E/DX2                !
 ! R7    R(4,5)                  1.4599         estimate D2E/DX2                !
 ! R8    R(4,18)                 1.1304         estimate D2E/DX2                !
 ! R9    R(5,6)                  1.3179         estimate D2E/DX2                !
 ! R10   R(5,19)                 1.1108         estimate D2E/DX2                !
 ! R11   R(6,7)                  1.404          estimate D2E/DX2                !
 ! R12   R(6,20)                 1.085          estimate D2E/DX2                !
 ! R13   R(7,8)                  1.2903         estimate D2E/DX2                !
 ! R14   R(7,21)                 1.0583         estimate D2E/DX2                !
 ! R15   R(8,9)                  1.1713         estimate D2E/DX2                !
 ! R16   R(9,10)                 1.4133         estimate D2E/DX2                !
 ! R17   R(9,23)                 1.9617         estimate D2E/DX2                !
 ! R18   R(10,11)                1.4389         estimate D2E/DX2                !
 ! R19   R(11,12)                1.4278         estimate D2E/DX2                !
 ! R20   R(12,13)                1.4314         estimate D2E/DX2                !
 ! R21   R(13,14)                1.8853         estimate D2E/DX2                !
 ! R22   R(13,22)                1.2036         estimate D2E/DX2                !
 ! R23   R(14,24)                1.3983         estimate D2E/DX2                !
 ! R24   R(15,23)                1.3889         estimate D2E/DX2                !
 ! R25   R(15,24)                1.3741         estimate D2E/DX2                !
 ! R26   R(16,25)                1.3569         estimate D2E/DX2                !
 ! R27   R(16,26)                1.3158         estimate D2E/DX2                !
 ! R28   R(20,25)                1.6439         estimate D2E/DX2                !
 ! R29   R(23,24)                1.3241         estimate D2E/DX2                !
 ! R30   R(25,26)                1.0579         estimate D2E/DX2                !
 ! A1    A(1,2,26)              94.5377         estimate D2E/DX2                !
 ! A2    A(3,2,26)             140.8589         estimate D2E/DX2                !
 ! A3    A(1,3,4)              101.9362         estimate D2E/DX2                !
 ! A4    A(1,3,17)             142.8671         estimate D2E/DX2                !
 ! A5    A(2,3,4)               91.9796         estimate D2E/DX2                !
 ! A6    A(2,3,17)             148.6175         estimate D2E/DX2                !
 ! A7    A(4,3,17)             109.7494         estimate D2E/DX2                !
 ! A8    A(3,4,5)               90.0926         estimate D2E/DX2                !
 ! A9    A(3,4,18)             104.6527         estimate D2E/DX2                !
 ! A10   A(5,4,18)             125.7183         estimate D2E/DX2                !
 ! A11   A(4,5,6)              112.9805         estimate D2E/DX2                !
 ! A12   A(4,5,19)             118.7894         estimate D2E/DX2                !
 ! A13   A(6,5,19)             124.7945         estimate D2E/DX2                !
 ! A14   A(5,6,7)              125.0931         estimate D2E/DX2                !
 ! A15   A(5,6,20)             113.9135         estimate D2E/DX2                !
 ! A16   A(7,6,20)             120.2472         estimate D2E/DX2                !
 ! A17   A(6,7,8)              121.648          estimate D2E/DX2                !
 ! A18   A(6,7,21)             113.4199         estimate D2E/DX2                !
 ! A19   A(8,7,21)             121.5714         estimate D2E/DX2                !
 ! A20   A(8,9,10)             109.3752         estimate D2E/DX2                !
 ! A21   A(8,9,23)             115.2613         estimate D2E/DX2                !
 ! A22   A(10,9,23)             78.273          estimate D2E/DX2                !
 ! A23   A(9,10,11)            114.5474         estimate D2E/DX2                !
 ! A24   A(10,11,12)           109.0714         estimate D2E/DX2                !
 ! A25   A(11,12,13)            94.0707         estimate D2E/DX2                !
 ! A26   A(12,13,14)           101.6771         estimate D2E/DX2                !
 ! A27   A(12,13,22)           110.4528         estimate D2E/DX2                !
 ! A28   A(14,13,22)           144.905          estimate D2E/DX2                !
 ! A29   A(13,14,24)           109.2207         estimate D2E/DX2                !
 ! A30   A(6,20,25)            122.969          estimate D2E/DX2                !
 ! A31   A(9,23,15)             86.714          estimate D2E/DX2                !
 ! A32   A(9,23,24)            140.4786         estimate D2E/DX2                !
 ! A33   A(14,24,15)            93.4111         estimate D2E/DX2                !
 ! A34   A(14,24,23)            84.2514         estimate D2E/DX2                !
 ! A35   A(16,25,20)            96.7573         estimate D2E/DX2                !
 ! A36   A(20,25,26)           124.269          estimate D2E/DX2                !
 ! A37   A(2,26,16)             89.2874         estimate D2E/DX2                !
 ! A38   A(2,26,25)            106.6219         estimate D2E/DX2                !
 ! A39   L(7,8,9,15,-1)        182.7374         estimate D2E/DX2                !
 ! A40   L(7,8,9,15,-2)        179.9903         estimate D2E/DX2                !
 ! D1    D(26,2,3,4)            38.7882         estimate D2E/DX2                !
 ! D2    D(26,2,3,17)          173.6936         estimate D2E/DX2                !
 ! D3    D(1,2,26,16)          179.6457         estimate D2E/DX2                !
 ! D4    D(1,2,26,25)         -112.8179         estimate D2E/DX2                !
 ! D5    D(3,2,26,16)         -122.8251         estimate D2E/DX2                !
 ! D6    D(3,2,26,25)          -55.2887         estimate D2E/DX2                !
 ! D7    D(1,3,4,5)            109.0677         estimate D2E/DX2                !
 ! D8    D(1,3,4,18)           -18.0784         estimate D2E/DX2                !
 ! D9    D(2,3,4,5)             66.3311         estimate D2E/DX2                !
 ! D10   D(2,3,4,18)           -60.815          estimate D2E/DX2                !
 ! D11   D(17,3,4,5)           -90.5971         estimate D2E/DX2                !
 ! D12   D(17,3,4,18)          142.2568         estimate D2E/DX2                !
 ! D13   D(3,4,5,6)           -123.3779         estimate D2E/DX2                !
 ! D14   D(3,4,5,19)            36.7205         estimate D2E/DX2                !
 ! D15   D(18,4,5,6)           -15.1541         estimate D2E/DX2                !
 ! D16   D(18,4,5,19)          144.9443         estimate D2E/DX2                !
 ! D17   D(4,5,6,7)            170.1379         estimate D2E/DX2                !
 ! D18   D(4,5,6,20)             0.0685         estimate D2E/DX2                !
 ! D19   D(19,5,6,7)            11.4399         estimate D2E/DX2                !
 ! D20   D(19,5,6,20)         -158.6294         estimate D2E/DX2                !
 ! D21   D(5,6,7,8)            171.1712         estimate D2E/DX2                !
 ! D22   D(5,6,7,21)            11.5822         estimate D2E/DX2                !
 ! D23   D(20,6,7,8)           -19.3441         estimate D2E/DX2                !
 ! D24   D(20,6,7,21)         -178.933          estimate D2E/DX2                !
 ! D25   D(5,6,20,25)          104.9229         estimate D2E/DX2                !
 ! D26   D(7,6,20,25)          -65.6761         estimate D2E/DX2                !
 ! D27   D(6,7,9,10)           173.5264         estimate D2E/DX2                !
 ! D28   D(6,7,9,23)            87.137          estimate D2E/DX2                !
 ! D29   D(21,7,9,10)          -30.0656         estimate D2E/DX2                !
 ! D30   D(21,7,9,23)         -116.4549         estimate D2E/DX2                !
 ! D31   D(8,9,10,11)          169.4802         estimate D2E/DX2                !
 ! D32   D(23,9,10,11)         -77.627          estimate D2E/DX2                !
 ! D33   D(8,9,23,15)            4.5194         estimate D2E/DX2                !
 ! D34   D(8,9,23,24)           37.6628         estimate D2E/DX2                !
 ! D35   D(10,9,23,15)        -101.544          estimate D2E/DX2                !
 ! D36   D(10,9,23,24)         -68.4006         estimate D2E/DX2                !
 ! D37   D(9,10,11,12)         156.4271         estimate D2E/DX2                !
 ! D38   D(10,11,12,13)        -85.0445         estimate D2E/DX2                !
 ! D39   D(11,12,13,14)         70.6929         estimate D2E/DX2                !
 ! D40   D(11,12,13,22)       -123.6612         estimate D2E/DX2                !
 ! D41   D(12,13,14,24)       -142.5763         estimate D2E/DX2                !
 ! D42   D(22,13,14,24)         61.2536         estimate D2E/DX2                !
 ! D43   D(13,14,24,15)        133.8466         estimate D2E/DX2                !
 ! D44   D(13,14,24,23)         72.519          estimate D2E/DX2                !
 ! D45   D(6,20,25,16)          15.664          estimate D2E/DX2                !
 ! D46   D(6,20,25,26)         -48.1736         estimate D2E/DX2                !
 ! D47   D(9,23,24,14)          58.2759         estimate D2E/DX2                !
 ! D48   D(20,25,26,2)          -2.0367         estimate D2E/DX2                !
 --------------------------------------------------------------------------------
 Trust Radius=3.00D-01 FncErr=1.00D-07 GrdErr=1.00D-06 EigMax=2.50D+02 EigMin=1.00D-04
 Number of steps in this run=    128 maximum allowed number of steps=    156.
 GradGradGradGradGradGradGradGradGradGradGradGradGradGradGradGradGradGrad

                          Input orientation:                          
 ---------------------------------------------------------------------
 Center     Atomic      Atomic             Coordinates (Angstroms)
 Number     Number       Type             X           Y           Z
 ---------------------------------------------------------------------
      1          8           0        4.965260   -0.379920   -1.376270
      2          6           0        5.658480    0.620560   -2.080830
      3          6           0        4.027820    1.238710   -1.277560
      4          6           0        4.678670    1.871340   -0.335120
      5          6           0        5.227600    2.790340   -1.327830
      6          6           0        6.545180    2.819200   -1.329230
      7          6           0        7.337560    3.455010   -2.298230
      8          6           0        8.612480    3.587340   -2.149800
      9          7           0        9.760410    3.756890   -1.990570
     10          8           0       10.324620    4.286580   -3.173190
     11          7           0       11.675930    4.759960   -3.030870
     12          8           0       12.311660    4.747550   -4.309220
     13          7           0       12.695390    3.371480   -4.218520
     14          8           0       11.032320    2.499660   -4.387300
     15          6           0        9.759520    1.675830   -3.055560
     16          6           0        7.824860    0.983540   -2.332460
     17          1           0        2.908200    1.736510   -1.417050
     18          1           0        5.255000    1.063430    0.206200
     19          1           0        4.585810    3.105100   -2.178020
     20          1           0        7.000350    2.158960   -0.598340
     21          1           0        6.786350    4.087020   -2.943700
     22          1           0       13.885670    3.256900   -4.355170
     23          1           0       10.913740    2.282430   -2.577240
     24          1           0       11.009930    1.383790   -3.544870
     25          1           0        7.718560    0.736510   -1.002490
     26          1           0        7.283740    0.008120   -1.634590
 ---------------------------------------------------------------------
                    Distance matrix (angstroms):
                    1          2          3          4          5
     1  O    0.000000
     2  C    1.406385   0.000000
     3  C    1.873099   1.920001   0.000000
     4  C    2.496858   2.360505   1.308442   0.000000
     5  C    3.181465   2.336795   1.962028   1.459917   0.000000
     6  C    3.568295   2.486998   2.972830   2.317445   1.317897
     7  C    4.602663   3.301618   4.111950   3.664902   2.415656
     8  C    5.444237   4.187202   5.224555   4.659676   3.573270
     9  N    6.362706   5.164353   6.301762   5.667442   4.681860
    10  O    7.329931   6.033723   7.247939   6.764967   5.623495
    11  N    8.613313   7.365250   8.600400   8.035723   6.954186
    12  O    9.426703   8.140183   9.493415   9.073510   7.931158
    13  N    9.050210   7.852094   9.398123   9.033217   8.028804
    14  O    7.359857   6.142392   7.766820   7.561998   6.568076
    15  C    5.480059   4.345368   6.017038   5.766633   4.976493
    16  C    3.309174   2.210944   3.949106   3.830936   3.319573
    17  H    2.951683   3.041379   1.233212   2.079258   2.549144
    18  H    2.161347   2.364199   1.933452   1.130443   2.310025
    19  H    3.596130   2.707952   2.146064   2.219700   1.110762
    20  H    3.345546   2.522908   3.184986   2.354189   2.018276
    21  H    5.072155   3.746062   4.300974   4.019483   2.592704
    22  H   10.083354   8.933620  10.522451  10.141471   9.183934
    23  H    6.626828   5.534076   7.084802   6.638689   5.843902
    24  H    6.659695   5.600353   7.342452   7.115128   6.350511
    25  H    2.994460   2.328130   3.734894   3.312726   3.244834
    26  H    2.364879   1.793233   3.498977   3.456386   3.473120
                    6          7          8          9         10
     6  C    0.000000
     7  C    1.403952   0.000000
     8  C    2.353105   1.290335   0.000000
     9  N    3.413845   2.460892   1.171258   0.000000
    10  O    4.453938   3.221737   2.113690   1.413327   0.000000
    11  N    5.743407   4.589239   3.396476   2.399498   1.438882
    12  O    6.771349   5.518733   4.437692   3.586979   2.334820
    13  N    6.817484   5.692173   4.582178   3.704917   2.747849
    14  O    5.439515   4.350650   3.470602   2.990434   2.273320
    15  C    3.823544   3.099181   2.406236   2.337737   2.673797
    16  C    2.452284   2.519285   2.726442   3.399222   4.226784
    17  H    3.795728   4.832075   6.041631   7.166843   8.036801
    18  H    2.665490   4.040901   4.815966   5.690276   6.892751
    19  H    2.154371   2.776511   4.055542   5.218856   5.943080
    20  H    1.085033   2.164043   2.654479   3.479887   4.712472
    21  H    2.066892   1.058254   2.052975   3.140458   3.551316
    22  H    7.951773   6.866440   5.725328   4.781118   3.890809
    23  H    4.574928   3.773838   2.679793   1.961730   2.172288
    24  H    5.186854   4.396631   3.542544   3.099799   3.005659
    25  H    2.412712   3.035514   3.200413   3.777320   4.909835
    26  H    2.922479   3.510608   3.852507   4.507094   5.469868
                   11         12         13         14         15
    11  N    0.000000
    12  O    1.427755   0.000000
    13  N    2.092293   1.431448   0.000000
    14  O    2.713502   2.587628   1.885301   0.000000
    15  C    3.631129   4.185755   3.584276   2.017981   0.000000
    16  C    5.438737   6.181159   5.742956   4.099852   2.178313
    17  H    9.413753  10.288638  10.310696   8.683669   7.044784
    18  H    8.085252   9.151951   8.959054   7.519337   5.595070
    19  H    7.330465   8.180979   8.366593   6.841416   5.438765
    20  H    5.877368   6.977209   6.856339   5.543381   3.726173
    21  H    4.936440   5.729747   6.087193   4.757305   3.829633
    22  H    2.982601   2.168330   1.203565   2.952296   4.605853
    23  H    2.631515   3.321258   2.655957   1.826901   1.388876
    24  H    3.479407   3.686952   2.691745   1.398340   1.374131
    25  H    5.996937   6.936820   6.484964   5.054369   3.043507
    26  H    6.619737   7.409171   6.875670   5.276081   3.306040
                   16         17         18         19         20
    16  C    0.000000
    17  H    5.057518   0.000000
    18  H    3.613220   2.931799   0.000000
    19  H    3.875089   2.294883   3.209476   0.000000
    20  H    2.251355   4.194573   2.212175   3.036540   0.000000
    21  H    3.329220   4.784935   4.626986   2.528400   3.043670
    22  H    6.781809  11.465120  10.005292   9.552509   7.920030
    23  H    3.359793   8.107573   6.422993   6.393658   4.387016
    24  H    3.431444   8.383917   6.876945   6.789735   5.035838
    25  H    1.356888   4.930662   2.763501   4.099538   1.643936
    26  H    1.315780   4.709565   2.935638   4.143118   2.404212
                   21         22         23         24         25
    21  H    0.000000
    22  H    7.285718   0.000000
    23  H    4.519534   3.597637   0.000000
    24  H    5.050494   3.526331   1.324052   0.000000
    25  H    3.982867   7.458289   3.883154   4.209012   0.000000
    26  H    4.312608   7.844846   4.386112   4.407508   1.057909
                   26
    26  H    0.000000
 Stoichiometry    C9H10N3O4(2)
 Framework group  C1[X(C9H10N3O4)]
 Deg. of freedom    72
 Full point group                 C1      NOp   1
 Largest Abelian subgroup         C1      NOp   1
 Largest concise Abelian subgroup C1      NOp   1
                         Standard orientation:                         
 ---------------------------------------------------------------------
 Center     Atomic      Atomic             Coordinates (Angstroms)
 Number     Number       Type             X           Y           Z
 ---------------------------------------------------------------------
      1          8           0        4.412275    1.588964    0.104606
      2          6           0        3.226426    1.046650   -0.422251
      3          6           0        4.713045   -0.167358   -0.472776
      4          6           0        4.234921   -0.865853    0.524982
      5          6           0        3.108713   -1.284205   -0.304473
      6          6           0        1.940011   -0.981327    0.223972
      7          6           0        0.704883   -1.084622   -0.435474
      8          6           0       -0.412356   -0.931960    0.191771
      9          7           0       -1.427169   -0.848530    0.770595
     10          8           0       -2.495830   -0.848028   -0.154315
     11          7           0       -3.799389   -0.989091    0.438322
     12          8           0       -4.776350   -0.442476   -0.447819
     13          7           0       -4.611076    0.896029    0.031904
     14          8           0       -2.905323    1.334560   -0.640744
     15          6           0       -1.063420    1.384501    0.182146
     16          6           0        1.114084    1.326994    0.167402
     17          1           0        5.480268   -0.865131   -1.140079
     18          1           0        4.184593   -0.136023    1.386792
     19          1           0        3.283935   -1.484534   -1.382878
     20          1           0        2.008105   -0.473792    1.180564
     21          1           0        0.759137   -1.615253   -1.349470
     22          1           0       -5.663278    1.339250    0.412686
     23          1           0       -2.128465    0.972393    0.972604
     24          1           0       -2.224039    2.110274    0.302376
     25          1           0        1.731773    1.136736    1.360468
     26          1           0        2.155398    1.886150    0.745577
 ---------------------------------------------------------------------
 Rotational constants (GHZ):           1.6545571           0.2103408           0.1932143
 Standard basis: 6-31G(2df,p) (6D, 7F)
 There are   546 symmetry adapted cartesian basis functions of A   symmetry.
 There are   498 symmetry adapted basis functions of A   symmetry.
   498 basis functions,   774 primitive gaussians,   546 cartesian basis functions
    59 alpha electrons       58 beta electrons
       nuclear repulsion energy      1035.1814085247 Hartrees.
 NAtoms=   26 NActive=   26 NUniq=   26 SFac= 1.00D+00 NAtFMM=   60 NAOKFM=F Big=F
 Integral buffers will be    131072 words long.
 Raffenetti 2 integral format.
 Two-electron integral symmetry is turned on.
 One-electron integrals computed using PRISM.
 PrsmSu:  requested number of processors reduced to:  12 ShMem   1 Linda.
 NBasis=   498 RedAO= T EigKep=  9.80D-05  NBF=   498
 NBsUse=   498 1.00D-06 EigRej= -1.00D+00 NBFU=   498
 ExpMin= 1.61D-01 ExpMax= 5.48D+03 ExpMxC= 8.25D+02 IAcc=3 IRadAn=         5 AccDes= 0.00D+00
 Harris functional with IExCor=  402 and IRadAn=       5 diagonalized for initial guess.
 HarFok:  IExCor=  402 AccDes= 0.00D+00 IRadAn=         5 IDoV= 1 UseB2=F ITyADJ=14
 ICtDFT=  3500011 ScaDFX=  1.000000  1.000000  1.000000  1.000000
 FoFCou: FMM=F IPFlag=           0 FMFlag=      100000 FMFlg1=           0
         NFxFlg=           0 DoJE=T BraDBF=F KetDBF=T FulRan=T
         wScrn=  0.000000 ICntrl=       500 IOpCl=  0 I1Cent=   200000004 NGrid=           0
         NMat0=    1 NMatS0=      1 NMatT0=    0 NMatD0=    1 NMtDS0=    0 NMtDT0=    0
 Petite list used in FoFCou.
 Initial guess <Sx>= 0.0000 <Sy>= 0.0000 <Sz>= 0.5000 <S**2>= 0.7500 S= 0.5000
 Requested convergence on RMS density matrix=1.00D-08 within 128 cycles.
 Requested convergence on MAX density matrix=1.00D-06.
 Requested convergence on             energy=1.00D-06.
 No special actions if energy rises.
 Integral accuracy reduced to 1.0D-05 until final iterations.
 EnCoef did     4 forward-backward iterations
 EnCoef did   100 forward-backward iterations
 EnCoef did     2 forward-backward iterations
 EnCoef did     1 forward-backward iterations
 Restarting incremental Fock formation.
 Initial convergence to 1.0D-05 achieved.  Increase integral accuracy.
 SCF Done:  E(UB3LYP) =  -812.602970888     A.U. after   45 cycles
            NFock= 45  Conv=0.95D-08     -V/T= 2.0058
 <Sx>= 0.0000 <Sy>= 0.0000 <Sz>= 0.5000 <S**2>= 2.7199 S= 1.2233
 <L.S>=  0.00000000000    
 Annihilation of the first spin contaminant:
 S**2 before annihilation     2.7199,   after     5.0931

 **********************************************************************

            Population analysis using the SCF density.

 **********************************************************************

 Orbital symmetries:
 Alpha Orbitals:
       Occupied  (A) (A) (A) (A) (A) (A) (A) (A) (A) (A) (A) (A)
                 (A) (A) (A) (A) (A) (A) (A) (A) (A) (A) (A) (A)
                 (A) (A) (A) (A) (A) (A) (A) (A) (A) (A) (A) (A)
                 (A) (A) (A) (A) (A) (A) (A) (A) (A) (A) (A) (A)
                 (A) (A) (A) (A) (A) (A) (A) (A) (A) (A) (A)
       Virtual   (A) (A) (A) (A) (A) (A) (A) (A) (A) (A) (A) (A)
                 (A) (A) (A) (A) (A) (A) (A) (A) (A) (A) (A) (A)
                 (A) (A) (A) (A) (A) (A) (A) (A) (A) (A) (A) (A)
                 (A) (A) (A) (A) (A) (A) (A) (A) (A) (A) (A) (A)
                 (A) (A) (A) (A) (A) (A) (A) (A) (A) (A) (A) (A)
                 (A) (A) (A) (A) (A) (A) (A) (A) (A) (A) (A) (A)
                 (A) (A) (A) (A) (A) (A) (A) (A) (A) (A) (A) (A)
                 (A) (A) (A) (A) (A) (A) (A) (A) (A) (A) (A) (A)
                 (A) (A) (A) (A) (A) (A) (A) (A) (A) (A) (A) (A)
                 (A) (A) (A) (A) (A) (A) (A) (A) (A) (A) (A) (A)
                 (A) (A) (A) (A) (A) (A) (A) (A) (A) (A) (A) (A)
                 (A) (A) (A) (A) (A) (A) (A) (A) (A) (A) (A) (A)
                 (A) (A) (A) (A) (A) (A) (A) (A) (A) (A) (A) (A)
                 (A) (A) (A) (A) (A) (A) (A) (A) (A) (A) (A) (A)
                 (A) (A) (A) (A) (A) (A) (A) (A) (A) (A) (A) (A)
                 (A) (A) (A) (A) (A) (A) (A) (A) (A) (A) (A) (A)
                 (A) (A) (A) (A) (A) (A) (A) (A) (A) (A) (A) (A)
                 (A) (A) (A) (A) (A) (A) (A) (A) (A) (A) (A) (A)
                 (A) (A) (A) (A) (A) (A) (A) (A) (A) (A) (A) (A)
                 (A) (A) (A) (A) (A) (A) (A) (A) (A) (A) (A) (A)
                 (A) (A) (A) (A) (A) (A) (A) (A) (A) (A) (A) (A)
                 (A) (A) (A) (A) (A) (A) (A) (A) (A) (A) (A) (A)
                 (A) (A) (A) (A) (A) (A) (A) (A) (A) (A) (A) (A)
                 (A) (A) (A) (A) (A) (A) (A) (A) (A) (A) (A) (A)
                 (A) (A) (A) (A) (A) (A) (A) (A) (A) (A) (A) (A)
                 (A) (A) (A) (A) (A) (A) (A) (A) (A) (A) (A) (A)
                 (A) (A) (A) (A) (A) (A) (A) (A) (A) (A) (A) (A)
                 (A) (A) (A) (A) (A) (A) (A) (A) (A) (A) (A) (A)
                 (A) (A) (A) (A) (A) (A) (A) (A) (A) (A) (A) (A)
                 (A) (A) (A) (A) (A) (A) (A) (A) (A) (A) (A) (A)
                 (A) (A) (A) (A) (A) (A) (A) (A) (A) (A) (A) (A)
                 (A) (A) (A) (A) (A) (A) (A) (A) (A) (A) (A) (A)
                 (A) (A) (A) (A) (A) (A) (A) (A) (A) (A) (A) (A)
                 (A) (A) (A) (A) (A) (A) (A) (A) (A) (A) (A) (A)
                 (A) (A) (A) (A) (A) (A) (A) (A) (A) (A) (A) (A)
                 (A) (A) (A) (A) (A) (A) (A) (A) (A) (A) (A) (A)
                 (A) (A) (A) (A) (A) (A) (A)
 Beta  Orbitals:
       Occupied  (A) (A) (A) (A) (A) (A) (A) (A) (A) (A) (A) (A)
                 (A) (A) (A) (A) (A) (A) (A) (A) (A) (A) (A) (A)
                 (A) (A) (A) (A) (A) (A) (A) (A) (A) (A) (A) (A)
                 (A) (A) (A) (A) (A) (A) (A) (A) (A) (A) (A) (A)
                 (A) (A) (A) (A) (A) (A) (A) (A) (A) (A)
       Virtual   (A) (A) (A) (A) (A) (A) (A) (A) (A) (A) (A) (A)
                 (A) (A) (A) (A) (A) (A) (A) (A) (A) (A) (A) (A)
                 (A) (A) (A) (A) (A) (A) (A) (A) (A) (A) (A) (A)
                 (A) (A) (A) (A) (A) (A) (A) (A) (A) (A) (A) (A)
                 (A) (A) (A) (A) (A) (A) (A) (A) (A) (A) (A) (A)
                 (A) (A) (A) (A) (A) (A) (A) (A) (A) (A) (A) (A)
                 (A) (A) (A) (A) (A) (A) (A) (A) (A) (A) (A) (A)
                 (A) (A) (A) (A) (A) (A) (A) (A) (A) (A) (A) (A)
                 (A) (A) (A) (A) (A) (A) (A) (A) (A) (A) (A) (A)
                 (A) (A) (A) (A) (A) (A) (A) (A) (A) (A) (A) (A)
                 (A) (A) (A) (A) (A) (A) (A) (A) (A) (A) (A) (A)
                 (A) (A) (A) (A) (A) (A) (A) (A) (A) (A) (A) (A)
                 (A) (A) (A) (A) (A) (A) (A) (A) (A) (A) (A) (A)
                 (A) (A) (A) (A) (A) (A) (A) (A) (A) (A) (A) (A)
                 (A) (A) (A) (A) (A) (A) (A) (A) (A) (A) (A) (A)
                 (A) (A) (A) (A) (A) (A) (A) (A) (A) (A) (A) (A)
                 (A) (A) (A) (A) (A) (A) (A) (A) (A) (A) (A) (A)
                 (A) (A) (A) (A) (A) (A) (A) (A) (A) (A) (A) (A)
                 (A) (A) (A) (A) (A) (A) (A) (A) (A) (A) (A) (A)
                 (A) (A) (A) (A) (A) (A) (A) (A) (A) (A) (A) (A)
                 (A) (A) (A) (A) (A) (A) (A) (A) (A) (A) (A) (A)
                 (A) (A) (A) (A) (A) (A) (A) (A) (A) (A) (A) (A)
                 (A) (A) (A) (A) (A) (A) (A) (A) (A) (A) (A) (A)
                 (A) (A) (A) (A) (A) (A) (A) (A) (A) (A) (A) (A)
                 (A) (A) (A) (A) (A) (A) (A) (A) (A) (A) (A) (A)
                 (A) (A) (A) (A) (A) (A) (A) (A) (A) (A) (A) (A)
                 (A) (A) (A) (A) (A) (A) (A) (A) (A) (A) (A) (A)
                 (A) (A) (A) (A) (A) (A) (A) (A) (A) (A) (A) (A)
                 (A) (A) (A) (A) (A) (A) (A) (A) (A) (A) (A) (A)
                 (A) (A) (A) (A) (A) (A) (A) (A) (A) (A) (A) (A)
                 (A) (A) (A) (A) (A) (A) (A) (A) (A) (A) (A) (A)
                 (A) (A) (A) (A) (A) (A) (A) (A) (A) (A) (A) (A)
                 (A) (A) (A) (A) (A) (A) (A) (A) (A) (A) (A) (A)
                 (A) (A) (A) (A) (A) (A) (A) (A) (A) (A) (A) (A)
                 (A) (A) (A) (A) (A) (A) (A) (A) (A) (A) (A) (A)
                 (A) (A) (A) (A) (A) (A) (A) (A) (A) (A) (A) (A)
                 (A) (A) (A) (A) (A) (A) (A) (A)
 The electronic state is 2-A.
 Alpha  occ. eigenvalues --  -19.24975 -19.24232 -19.20745 -19.16541 -14.44971
 Alpha  occ. eigenvalues --  -14.43379 -14.41497 -10.32386 -10.30166 -10.26729
 Alpha  occ. eigenvalues --  -10.25846 -10.24571 -10.22713 -10.22172 -10.20999
 Alpha  occ. eigenvalues --  -10.20756  -1.15993  -1.10609  -1.03611  -0.94721
 Alpha  occ. eigenvalues --   -0.90356  -0.90046  -0.83209  -0.79372  -0.74136
 Alpha  occ. eigenvalues --   -0.68968  -0.68862  -0.62942  -0.60733  -0.59722
 Alpha  occ. eigenvalues --   -0.57254  -0.56676  -0.53823  -0.52465  -0.51029
 Alpha  occ. eigenvalues --   -0.49178  -0.48321  -0.46498  -0.45515  -0.44127
 Alpha  occ. eigenvalues --   -0.42871  -0.41667  -0.41329  -0.39450  -0.38067
 Alpha  occ. eigenvalues --   -0.36931  -0.35483  -0.34962  -0.33336  -0.31976
 Alpha  occ. eigenvalues --   -0.30556  -0.30058  -0.27401  -0.25335  -0.24523
 Alpha  occ. eigenvalues --   -0.23410  -0.20846  -0.19887  -0.19611
 Alpha virt. eigenvalues --   -0.12635  -0.11694  -0.09466  -0.08245  -0.07770
 Alpha virt. eigenvalues --   -0.06241  -0.03195   0.00864   0.01292   0.03595
 Alpha virt. eigenvalues --    0.05713   0.06431   0.07194   0.08219   0.09072
 Alpha virt. eigenvalues --    0.10007   0.10902   0.11650   0.12177   0.12629
 Alpha virt. eigenvalues --    0.15095   0.15688   0.16541   0.17362   0.22110
 Alpha virt. eigenvalues --    0.24492   0.26295   0.30586   0.32864   0.33711
 Alpha virt. eigenvalues --    0.38855   0.40969   0.41267   0.43221   0.44141
 Alpha virt. eigenvalues --    0.45009   0.46386   0.46663   0.47321   0.48826
 Alpha virt. eigenvalues --    0.49738   0.50108   0.51610   0.52360   0.53111
 Alpha virt. eigenvalues --    0.55017   0.55248   0.55833   0.56447   0.58469
 Alpha virt. eigenvalues --    0.59194   0.60520   0.61364   0.61818   0.62474
 Alpha virt. eigenvalues --    0.62702   0.63488   0.64407   0.65447   0.66157
 Alpha virt. eigenvalues --    0.66816   0.67626   0.67689   0.68369   0.69275
 Alpha virt. eigenvalues --    0.70355   0.71337   0.72182   0.72325   0.72911
 Alpha virt. eigenvalues --    0.74146   0.74903   0.76113   0.76563   0.76836
 Alpha virt. eigenvalues --    0.78424   0.78629   0.79364   0.80503   0.80991
 Alpha virt. eigenvalues --    0.81753   0.82146   0.83568   0.83711   0.84425
 Alpha virt. eigenvalues --    0.86773   0.87376   0.87557   0.88474   0.89112
 Alpha virt. eigenvalues --    0.89872   0.90385   0.91222   0.92101   0.92986
 Alpha virt. eigenvalues --    0.94684   0.95337   0.96378   0.96544   0.97647
 Alpha virt. eigenvalues --    0.98479   0.99989   1.00710   1.02101   1.02798
 Alpha virt. eigenvalues --    1.04208   1.05686   1.06462   1.08011   1.09713
 Alpha virt. eigenvalues --    1.10841   1.11648   1.12607   1.13863   1.15563
 Alpha virt. eigenvalues --    1.15946   1.17956   1.19195   1.19815   1.20670
 Alpha virt. eigenvalues --    1.22889   1.24125   1.25931   1.28404   1.30116
 Alpha virt. eigenvalues --    1.30592   1.31737   1.32500   1.35128   1.35780
 Alpha virt. eigenvalues --    1.36779   1.38249   1.40079   1.40630   1.42660
 Alpha virt. eigenvalues --    1.43057   1.45256   1.45637   1.46844   1.47382
 Alpha virt. eigenvalues --    1.48312   1.51420   1.52363   1.53628   1.53903
 Alpha virt. eigenvalues --    1.55423   1.56799   1.57246   1.57877   1.59436
 Alpha virt. eigenvalues --    1.60256   1.61581   1.62437   1.63644   1.65184
 Alpha virt. eigenvalues --    1.66105   1.68518   1.68986   1.69771   1.71851
 Alpha virt. eigenvalues --    1.72124   1.74165   1.74952   1.75768   1.77682
 Alpha virt. eigenvalues --    1.78865   1.80772   1.81810   1.83108   1.84444
 Alpha virt. eigenvalues --    1.85133   1.89003   1.90220   1.90820   1.91624
 Alpha virt. eigenvalues --    1.93379   1.97480   1.98263   2.01125   2.06210
 Alpha virt. eigenvalues --    2.06347   2.08448   2.12264   2.14650   2.17324
 Alpha virt. eigenvalues --    2.19713   2.21265   2.25791   2.26774   2.28735
 Alpha virt. eigenvalues --    2.30120   2.32055   2.34904   2.36687   2.37527
 Alpha virt. eigenvalues --    2.41215   2.42681   2.48179   2.49523   2.51418
 Alpha virt. eigenvalues --    2.52247   2.54031   2.55666   2.56081   2.61254
 Alpha virt. eigenvalues --    2.62048   2.64208   2.68688   2.69171   2.69513
 Alpha virt. eigenvalues --    2.70081   2.72920   2.74177   2.77328   2.78073
 Alpha virt. eigenvalues --    2.79512   2.80167   2.82618   2.83161   2.85380
 Alpha virt. eigenvalues --    2.88417   2.89652   2.91312   2.93039   2.93976
 Alpha virt. eigenvalues --    2.94561   2.96604   2.97969   2.98986   3.00578
 Alpha virt. eigenvalues --    3.01801   3.02730   3.04194   3.05843   3.09270
 Alpha virt. eigenvalues --    3.09791   3.11240   3.11772   3.13696   3.14830
 Alpha virt. eigenvalues --    3.16330   3.17278   3.18317   3.19125   3.21396
 Alpha virt. eigenvalues --    3.23015   3.24604   3.28736   3.29371   3.31442
 Alpha virt. eigenvalues --    3.32629   3.33232   3.36933   3.37923   3.38836
 Alpha virt. eigenvalues --    3.39864   3.41642   3.42621   3.45310   3.46306
 Alpha virt. eigenvalues --    3.47032   3.48401   3.49999   3.51078   3.51891
 Alpha virt. eigenvalues --    3.52910   3.54337   3.56090   3.59141   3.59889
 Alpha virt. eigenvalues --    3.61534   3.63137   3.63746   3.64949   3.67015
 Alpha virt. eigenvalues --    3.68999   3.70811   3.71658   3.73528   3.75486
 Alpha virt. eigenvalues --    3.77083   3.77612   3.78271   3.81234   3.82292
 Alpha virt. eigenvalues --    3.85184   3.85391   3.87162   3.89323   3.90889
 Alpha virt. eigenvalues --    3.92874   3.96022   3.97510   3.98618   4.00981
 Alpha virt. eigenvalues --    4.04549   4.08040   4.10601   4.14547   4.15777
 Alpha virt. eigenvalues --    4.17336   4.18079   4.18657   4.19176   4.19622
 Alpha virt. eigenvalues --    4.20663   4.21593   4.23204   4.24069   4.25370
 Alpha virt. eigenvalues --    4.26329   4.26706   4.27113   4.29069   4.30389
 Alpha virt. eigenvalues --    4.30881   4.31345   4.32747   4.33202   4.34251
 Alpha virt. eigenvalues --    4.36096   4.36596   4.38108   4.39620   4.40574
 Alpha virt. eigenvalues --    4.41269   4.42315   4.43471   4.44665   4.45830
 Alpha virt. eigenvalues --    4.46208   4.46831   4.47995   4.49661   4.50537
 Alpha virt. eigenvalues --    4.51073   4.52898   4.53725   4.55451   4.56846
 Alpha virt. eigenvalues --    4.57216   4.58937   4.59655   4.60561   4.61505
 Alpha virt. eigenvalues --    4.63240   4.64883   4.66741   4.68929   4.69471
 Alpha virt. eigenvalues --    4.70410   4.73068   4.73945   4.75583   4.78208
 Alpha virt. eigenvalues --    4.79778   4.80763   4.82220   4.83329   4.84006
 Alpha virt. eigenvalues --    4.85179   4.88081   4.89422   4.90617   4.93018
 Alpha virt. eigenvalues --    4.94539   4.96528   4.98294   5.03092   5.05639
 Alpha virt. eigenvalues --    5.08136   5.10125   5.12224   5.12408   5.14180
 Alpha virt. eigenvalues --    5.15693   5.17118   5.17740   5.20164   5.20463
 Alpha virt. eigenvalues --    5.21388   5.25000   5.26631   5.26994   5.27193
 Alpha virt. eigenvalues --    5.28712   5.32345   5.36144   5.36699   5.40811
 Alpha virt. eigenvalues --    5.42296   5.43356   5.47698   5.49858   5.54105
 Alpha virt. eigenvalues --    5.56221   5.57970   5.62797   5.63997   5.64406
 Alpha virt. eigenvalues --    5.68541   5.71103   5.76197   5.80195   5.83510
 Alpha virt. eigenvalues --    5.85173   5.89765   5.93954   5.95247   5.96853
 Alpha virt. eigenvalues --    5.97471   6.02271   6.09140   6.15537   6.25654
 Alpha virt. eigenvalues --    6.70048   6.72074   6.72962   6.85014   6.89551
 Alpha virt. eigenvalues --    7.11629   8.99430  10.12024  10.41961  10.72315
 Alpha virt. eigenvalues --   10.89623  10.98035  11.26491  11.31585  11.34438
 Alpha virt. eigenvalues --   11.47627  11.82298  11.92909  12.34259  12.99707
 Alpha virt. eigenvalues --   13.05071  13.16993  13.61739  26.68113
  Beta  occ. eigenvalues --  -19.24727 -19.24109 -19.21025 -19.17817 -14.46474
  Beta  occ. eigenvalues --  -14.42708 -14.41508 -10.32189 -10.30430 -10.25663
  Beta  occ. eigenvalues --  -10.25647 -10.23801 -10.22664 -10.21373 -10.21079
  Beta  occ. eigenvalues --  -10.20737  -1.16274  -1.10130  -1.04022  -0.94433
  Beta  occ. eigenvalues --   -0.93159  -0.89791  -0.83037  -0.78941  -0.73661
  Beta  occ. eigenvalues --   -0.69212  -0.68371  -0.60969  -0.60216  -0.59167
  Beta  occ. eigenvalues --   -0.56876  -0.56180  -0.53473  -0.52526  -0.51609
  Beta  occ. eigenvalues --   -0.48788  -0.48058  -0.46511  -0.45031  -0.44287
  Beta  occ. eigenvalues --   -0.42742  -0.41375  -0.41080  -0.39246  -0.38518
  Beta  occ. eigenvalues --   -0.36947  -0.36135  -0.35756  -0.34185  -0.31671
  Beta  occ. eigenvalues --   -0.30370  -0.28972  -0.27916  -0.25740  -0.24231
  Beta  occ. eigenvalues --   -0.22833  -0.21417  -0.19355
  Beta virt. eigenvalues --   -0.12140  -0.11103  -0.10555  -0.09314  -0.08024
  Beta virt. eigenvalues --   -0.06911  -0.05914  -0.01664   0.01527   0.01844
  Beta virt. eigenvalues --    0.04252   0.05411   0.06475   0.07042   0.08604
  Beta virt. eigenvalues --    0.09642   0.10049   0.11021   0.11573   0.11897
  Beta virt. eigenvalues --    0.13762   0.15373   0.16041   0.16952   0.17802
  Beta virt. eigenvalues --    0.22234   0.25037   0.27003   0.31174   0.33313
  Beta virt. eigenvalues --    0.34134   0.39238   0.41454   0.41992   0.43649
  Beta virt. eigenvalues --    0.44852   0.45707   0.46725   0.46928   0.47490
  Beta virt. eigenvalues --    0.48704   0.50135   0.50240   0.51747   0.52877
  Beta virt. eigenvalues --    0.54012   0.55212   0.55738   0.56394   0.57074
  Beta virt. eigenvalues --    0.58859   0.59749   0.61110   0.61667   0.62327
  Beta virt. eigenvalues --    0.62958   0.63263   0.63977   0.65406   0.65624
  Beta virt. eigenvalues --    0.66418   0.67063   0.67346   0.68451   0.68845
  Beta virt. eigenvalues --    0.70001   0.70852   0.71494   0.72442   0.72751
  Beta virt. eigenvalues --    0.73230   0.74342   0.75228   0.76330   0.76803
  Beta virt. eigenvalues --    0.77287   0.78765   0.78972   0.79636   0.80774
  Beta virt. eigenvalues --    0.81299   0.82330   0.82534   0.83498   0.84109
  Beta virt. eigenvalues --    0.84769   0.86807   0.87686   0.87825   0.88708
  Beta virt. eigenvalues --    0.89334   0.89973   0.90531   0.91795   0.91845
  Beta virt. eigenvalues --    0.93340   0.95039   0.95479   0.96436   0.96810
  Beta virt. eigenvalues --    0.97673   0.98617   1.00073   1.00649   1.02061
  Beta virt. eigenvalues --    1.02921   1.04315   1.05980   1.06307   1.08513
  Beta virt. eigenvalues --    1.09908   1.10798   1.11770   1.12623   1.13820
  Beta virt. eigenvalues --    1.15972   1.16484   1.17991   1.19591   1.19978
  Beta virt. eigenvalues --    1.20725   1.23214   1.24520   1.26270   1.28712
  Beta virt. eigenvalues --    1.30128   1.30214   1.32064   1.32862   1.35402
  Beta virt. eigenvalues --    1.36112   1.37182   1.38587   1.40554   1.41119
  Beta virt. eigenvalues --    1.42901   1.43501   1.45558   1.46203   1.46800
  Beta virt. eigenvalues --    1.47791   1.49078   1.51649   1.52013   1.53660
  Beta virt. eigenvalues --    1.53797   1.55620   1.56935   1.57402   1.58214
  Beta virt. eigenvalues --    1.59624   1.60495   1.61709   1.62656   1.63982
  Beta virt. eigenvalues --    1.65394   1.66334   1.68722   1.68890   1.69917
  Beta virt. eigenvalues --    1.72045   1.72791   1.74502   1.75284   1.76220
  Beta virt. eigenvalues --    1.77865   1.79194   1.80878   1.82025   1.83250
  Beta virt. eigenvalues --    1.84635   1.85216   1.89132   1.90420   1.90907
  Beta virt. eigenvalues --    1.91739   1.93594   1.97850   1.98528   2.01432
  Beta virt. eigenvalues --    2.05918   2.06380   2.08620   2.12800   2.14938
  Beta virt. eigenvalues --    2.17494   2.19651   2.21397   2.25803   2.27245
  Beta virt. eigenvalues --    2.29346   2.30526   2.31902   2.35257   2.36876
  Beta virt. eigenvalues --    2.37833   2.40980   2.43473   2.48392   2.49945
  Beta virt. eigenvalues --    2.51425   2.52297   2.54537   2.56002   2.56505
  Beta virt. eigenvalues --    2.61939   2.62763   2.64510   2.69390   2.69756
  Beta virt. eigenvalues --    2.70555   2.70802   2.73995   2.75322   2.78293
  Beta virt. eigenvalues --    2.78485   2.79753   2.81010   2.83538   2.84028
  Beta virt. eigenvalues --    2.85870   2.89725   2.90589   2.91884   2.93795
  Beta virt. eigenvalues --    2.94839   2.96240   2.97785   2.98698   2.99671
  Beta virt. eigenvalues --    3.01221   3.02362   3.03552   3.04777   3.06405
  Beta virt. eigenvalues --    3.09842   3.10838   3.12041   3.12422   3.14412
  Beta virt. eigenvalues --    3.15836   3.17162   3.17958   3.19014   3.19757
  Beta virt. eigenvalues --    3.21981   3.24083   3.25156   3.29042   3.29858
  Beta virt. eigenvalues --    3.31429   3.32687   3.33654   3.36521   3.38210
  Beta virt. eigenvalues --    3.39270   3.40091   3.41878   3.43050   3.44461
  Beta virt. eigenvalues --    3.46069   3.46476   3.48778   3.49952   3.50809
  Beta virt. eigenvalues --    3.52199   3.52802   3.54869   3.56167   3.59566
  Beta virt. eigenvalues --    3.60245   3.61792   3.62986   3.63600   3.64888
  Beta virt. eigenvalues --    3.66673   3.69533   3.70917   3.71268   3.73662
  Beta virt. eigenvalues --    3.75797   3.77169   3.77712   3.78609   3.81501
  Beta virt. eigenvalues --    3.82768   3.85539   3.86428   3.87545   3.89834
  Beta virt. eigenvalues --    3.91539   3.93198   3.96447   3.98043   3.99020
  Beta virt. eigenvalues --    4.01539   4.04887   4.09018   4.10939   4.15595
  Beta virt. eigenvalues --    4.16030   4.17101   4.17519   4.18871   4.19312
  Beta virt. eigenvalues --    4.20041   4.21859   4.22455   4.23302   4.23997
  Beta virt. eigenvalues --    4.24981   4.26104   4.26841   4.28491   4.29341
  Beta virt. eigenvalues --    4.30476   4.31032   4.31763   4.32880   4.33215
  Beta virt. eigenvalues --    4.34309   4.35715   4.36331   4.37342   4.38820
  Beta virt. eigenvalues --    4.40506   4.41521   4.41813   4.43235   4.45265
  Beta virt. eigenvalues --    4.45912   4.46279   4.47042   4.48413   4.49183
  Beta virt. eigenvalues --    4.50565   4.51091   4.53390   4.53979   4.55063
  Beta virt. eigenvalues --    4.56204   4.57026   4.59503   4.60039   4.60720
  Beta virt. eigenvalues --    4.61406   4.63229   4.65344   4.67213   4.69435
  Beta virt. eigenvalues --    4.69798   4.71095   4.73240   4.74631   4.76374
  Beta virt. eigenvalues --    4.78875   4.80116   4.81012   4.82688   4.84000
  Beta virt. eigenvalues --    4.84320   4.86387   4.88592   4.90078   4.91187
  Beta virt. eigenvalues --    4.93609   4.95442   4.97118   4.99080   5.03783
  Beta virt. eigenvalues --    5.05650   5.06799   5.09445   5.11456   5.12552
  Beta virt. eigenvalues --    5.14081   5.16064   5.16892   5.17635   5.19534
  Beta virt. eigenvalues --    5.20207   5.21006   5.25157   5.25830   5.27024
  Beta virt. eigenvalues --    5.27339   5.28640   5.31487   5.36446   5.36905
  Beta virt. eigenvalues --    5.41056   5.42627   5.43568   5.47495   5.50114
  Beta virt. eigenvalues --    5.54202   5.56390   5.57986   5.61739   5.63830
  Beta virt. eigenvalues --    5.64021   5.68654   5.71442   5.76186   5.80344
  Beta virt. eigenvalues --    5.83187   5.85174   5.89689   5.93461   5.95057
  Beta virt. eigenvalues --    5.96873   5.97297   6.01996   6.09489   6.15915
  Beta virt. eigenvalues --    6.26334   6.67931   6.71698   6.73590   6.85296
  Beta virt. eigenvalues --    6.89675   7.11509   8.98934  10.13398  10.42535
  Beta virt. eigenvalues --   10.72842  10.90052  10.98775  11.25282  11.32025
  Beta virt. eigenvalues --   11.34025  11.47859  11.82948  11.93666  12.34474
  Beta virt. eigenvalues --   12.99383  13.04045  13.16729  13.61766  26.68250
          Condensed to atoms (all electrons):
               1          2          3          4          5          6
     1  O    7.933886   0.347478   0.058080  -0.050385   0.007907   0.001976
     2  C    0.347478   5.591979   0.111759  -0.091542  -0.004141  -0.024182
     3  C    0.058080   0.111759   5.293732   0.439607  -0.105174  -0.033321
     4  C   -0.050385  -0.091542   0.439607   5.228214   0.372092   0.009219
     5  C    0.007907  -0.004141  -0.105174   0.372092   5.033637   0.562375
     6  C    0.001976  -0.024182  -0.033321   0.009219   0.562375   4.709045
     7  C    0.000059  -0.005905  -0.000743   0.003390  -0.011417   0.467283
     8  C   -0.000002   0.000662  -0.000071  -0.000408  -0.000601  -0.025429
     9  N   -0.000000   0.000002  -0.000000  -0.000002  -0.000042  -0.009826
    10  O   -0.000000   0.000000  -0.000000  -0.000000   0.000001   0.000114
    11  N   -0.000000  -0.000000   0.000000  -0.000000  -0.000000  -0.000002
    12  O    0.000000   0.000000  -0.000000   0.000000   0.000000   0.000000
    13  N   -0.000000   0.000000  -0.000000   0.000000   0.000000   0.000000
    14  O    0.000000  -0.000000   0.000000  -0.000000   0.000000  -0.000002
    15  C   -0.000003   0.000631  -0.000008  -0.000003   0.000019  -0.000037
    16  C   -0.003702   0.035068  -0.003013   0.003469  -0.004893  -0.021917
    17  H   -0.000164  -0.004250   0.297635  -0.037085   0.002180   0.001527
    18  H    0.001715   0.002129  -0.050355   0.364536  -0.021589  -0.007880
    19  H    0.000063  -0.004985  -0.004777  -0.044361   0.364024  -0.021132
    20  H   -0.000567  -0.001757   0.001497  -0.015914  -0.061750   0.380425
    21  H    0.000002   0.000532  -0.000399   0.000230  -0.007120  -0.049759
    22  H   -0.000000   0.000000  -0.000000   0.000000  -0.000000   0.000000
    23  H    0.000000  -0.000009   0.000000   0.000000  -0.000000   0.000092
    24  H    0.000000  -0.000003   0.000000   0.000000  -0.000000  -0.000003
    25  H   -0.000538  -0.007307   0.000507  -0.005627   0.001010  -0.028833
    26  H   -0.006984   0.001880   0.001471   0.003875  -0.001181   0.004524
               7          8          9         10         11         12
     1  O    0.000059  -0.000002  -0.000000  -0.000000  -0.000000   0.000000
     2  C   -0.005905   0.000662   0.000002   0.000000  -0.000000   0.000000
     3  C   -0.000743  -0.000071  -0.000000  -0.000000   0.000000  -0.000000
     4  C    0.003390  -0.000408  -0.000002  -0.000000  -0.000000   0.000000
     5  C   -0.011417  -0.000601  -0.000042   0.000001  -0.000000   0.000000
     6  C    0.467283  -0.025429  -0.009826   0.000114  -0.000002   0.000000
     7  C    5.046816   0.564072  -0.026324  -0.003209  -0.000011   0.000000
     8  C    0.564072   4.513917   0.539383  -0.072767   0.000863  -0.000222
     9  N   -0.026324   0.539383   6.606350   0.144972  -0.028871   0.001201
    10  O   -0.003209  -0.072767   0.144972   8.024182   0.159097  -0.040340
    11  N   -0.000011   0.000863  -0.028871   0.159097   6.627667   0.207736
    12  O    0.000000  -0.000222   0.001201  -0.040340   0.207736   7.845245
    13  N    0.000003   0.000356   0.000109  -0.001352  -0.075363   0.178802
    14  O   -0.000040   0.001843   0.000580  -0.023715  -0.005435  -0.015020
    15  C   -0.004975   0.012411  -0.029520  -0.021008  -0.000204  -0.000061
    16  C   -0.011101   0.000227  -0.007640   0.000301  -0.000006   0.000000
    17  H    0.000030   0.000000   0.000000   0.000000  -0.000000   0.000000
    18  H    0.000294  -0.000016  -0.000000  -0.000000   0.000000  -0.000000
    19  H   -0.008614   0.000388  -0.000001   0.000000  -0.000000   0.000000
    20  H   -0.041050  -0.012570  -0.000136  -0.000001  -0.000000  -0.000000
    21  H    0.360635  -0.041145  -0.002953   0.000688  -0.000007   0.000000
    22  H   -0.000000   0.000001   0.000001  -0.000161   0.006321  -0.023684
    23  H    0.000576  -0.008766   0.003114  -0.025134   0.003271  -0.000379
    24  H    0.000096  -0.001677  -0.000061   0.005582   0.000030   0.000278
    25  H   -0.003561   0.004771  -0.001052   0.000013  -0.000000  -0.000000
    26  H    0.003658  -0.000331   0.000130  -0.000003   0.000000  -0.000000
              13         14         15         16         17         18
     1  O   -0.000000   0.000000  -0.000003  -0.003702  -0.000164   0.001715
     2  C    0.000000  -0.000000   0.000631   0.035068  -0.004250   0.002129
     3  C   -0.000000   0.000000  -0.000008  -0.003013   0.297635  -0.050355
     4  C    0.000000  -0.000000  -0.000003   0.003469  -0.037085   0.364536
     5  C    0.000000   0.000000   0.000019  -0.004893   0.002180  -0.021589
     6  C    0.000000  -0.000002  -0.000037  -0.021917   0.001527  -0.007880
     7  C    0.000003  -0.000040  -0.004975  -0.011101   0.000030   0.000294
     8  C    0.000356   0.001843   0.012411   0.000227   0.000000  -0.000016
     9  N    0.000109   0.000580  -0.029520  -0.007640   0.000000  -0.000000
    10  O   -0.001352  -0.023715  -0.021008   0.000301   0.000000  -0.000000
    11  N   -0.075363  -0.005435  -0.000204  -0.000006  -0.000000   0.000000
    12  O    0.178802  -0.015020  -0.000061   0.000000   0.000000  -0.000000
    13  N    6.788572   0.034229   0.000146  -0.000004  -0.000000  -0.000000
    14  O    0.034229   8.290745  -0.010334   0.000321   0.000000   0.000000
    15  C    0.000146  -0.010334   5.975850   0.026141   0.000000   0.000001
    16  C   -0.000004   0.000321   0.026141   6.104078  -0.000004  -0.001399
    17  H   -0.000000   0.000000   0.000000  -0.000004   0.553473   0.004625
    18  H   -0.000000   0.000000   0.000001  -0.001399   0.004625   0.533165
    19  H    0.000000   0.000000  -0.000000   0.000175   0.000197   0.003081
    20  H    0.000000   0.000000   0.000332  -0.003314  -0.000061   0.003333
    21  H    0.000000   0.000007   0.000044   0.002338   0.000014  -0.000015
    22  H    0.198562   0.002856  -0.000077   0.000000   0.000000   0.000000
    23  H   -0.002545  -0.013231   0.162858   0.003644   0.000000  -0.000000
    24  H    0.006097   0.079738   0.091068   0.000010  -0.000000   0.000000
    25  H    0.000000   0.000002   0.006510   0.090051  -0.000005   0.001833
    26  H    0.000000  -0.000006   0.001848   0.074154  -0.000039   0.001306
              19         20         21         22         23         24
     1  O    0.000063  -0.000567   0.000002  -0.000000   0.000000   0.000000
     2  C   -0.004985  -0.001757   0.000532   0.000000  -0.000009  -0.000003
     3  C   -0.004777   0.001497  -0.000399  -0.000000   0.000000   0.000000
     4  C   -0.044361  -0.015914   0.000230   0.000000   0.000000   0.000000
     5  C    0.364024  -0.061750  -0.007120  -0.000000  -0.000000  -0.000000
     6  C   -0.021132   0.380425  -0.049759   0.000000   0.000092  -0.000003
     7  C   -0.008614  -0.041050   0.360635  -0.000000   0.000576   0.000096
     8  C    0.000388  -0.012570  -0.041145   0.000001  -0.008766  -0.001677
     9  N   -0.000001  -0.000136  -0.002953   0.000001   0.003114  -0.000061
    10  O    0.000000  -0.000001   0.000688  -0.000161  -0.025134   0.005582
    11  N   -0.000000  -0.000000  -0.000007   0.006321   0.003271   0.000030
    12  O    0.000000  -0.000000   0.000000  -0.023684  -0.000379   0.000278
    13  N    0.000000   0.000000   0.000000   0.198562  -0.002545   0.006097
    14  O    0.000000   0.000000   0.000007   0.002856  -0.013231   0.079738
    15  C   -0.000000   0.000332   0.000044  -0.000077   0.162858   0.091068
    16  C    0.000175  -0.003314   0.002338   0.000000   0.003644   0.000010
    17  H    0.000197  -0.000061   0.000014   0.000000   0.000000  -0.000000
    18  H    0.003081   0.003333  -0.000015   0.000000  -0.000000   0.000000
    19  H    0.569549   0.006600   0.004465   0.000000  -0.000000   0.000000
    20  H    0.006600   0.632865   0.006140  -0.000000  -0.000033   0.000001
    21  H    0.004465   0.006140   0.606067  -0.000000  -0.000049   0.000002
    22  H    0.000000  -0.000000  -0.000000   0.571081   0.000669  -0.000711
    23  H   -0.000000  -0.000033  -0.000049   0.000669   0.735097  -0.006732
    24  H    0.000000   0.000001   0.000002  -0.000711  -0.006732   0.538333
    25  H   -0.000203   0.003282   0.000026  -0.000000  -0.000747   0.000004
    26  H    0.000014  -0.007407  -0.000224  -0.000000  -0.000209  -0.000052
              25         26
     1  O   -0.000538  -0.006984
     2  C   -0.007307   0.001880
     3  C    0.000507   0.001471
     4  C   -0.005627   0.003875
     5  C    0.001010  -0.001181
     6  C   -0.028833   0.004524
     7  C   -0.003561   0.003658
     8  C    0.004771  -0.000331
     9  N   -0.001052   0.000130
    10  O    0.000013  -0.000003
    11  N   -0.000000   0.000000
    12  O   -0.000000  -0.000000
    13  N    0.000000   0.000000
    14  O    0.000002  -0.000006
    15  C    0.006510   0.001848
    16  C    0.090051   0.074154
    17  H   -0.000005  -0.000039
    18  H    0.001833   0.001306
    19  H   -0.000203   0.000014
    20  H    0.003282  -0.007407
    21  H    0.000026  -0.000224
    22  H   -0.000000  -0.000000
    23  H   -0.000747  -0.000209
    24  H    0.000004  -0.000052
    25  H    0.870183   0.002504
    26  H    0.002504   0.766021
          Atomic-Atomic Spin Densities.
               1          2          3          4          5          6
     1  O   -0.115232  -0.011303   0.051347  -0.017753   0.001656   0.000299
     2  C   -0.011303   0.132036   0.051662  -0.020412   0.003145  -0.012641
     3  C    0.051347   0.051662  -0.220958  -0.021059   0.017087   0.008247
     4  C   -0.017753  -0.020412  -0.021059   0.633677  -0.046163  -0.015961
     5  C    0.001656   0.003145   0.017087  -0.046163   0.027862  -0.001727
     6  C    0.000299  -0.012641   0.008247  -0.015961  -0.001727   0.201477
     7  C    0.000015   0.001330  -0.000366  -0.000198   0.005329   0.003188
     8  C    0.000001   0.000253  -0.000040  -0.000098   0.003092  -0.035280
     9  N    0.000000   0.000001  -0.000000  -0.000003   0.000074  -0.001490
    10  O   -0.000000   0.000000  -0.000000   0.000000   0.000001  -0.000136
    11  N    0.000000  -0.000000   0.000000  -0.000000  -0.000000   0.000002
    12  O    0.000000   0.000000  -0.000000   0.000000   0.000000  -0.000000
    13  N   -0.000000   0.000000  -0.000000   0.000000  -0.000000   0.000000
    14  O    0.000000  -0.000000   0.000000  -0.000000   0.000000  -0.000001
    15  C    0.000002  -0.000336   0.000003   0.000002  -0.000067   0.001151
    16  C   -0.002032   0.037342  -0.001965   0.005137  -0.005877  -0.018697
    17  H   -0.003407  -0.000868   0.033253  -0.005811  -0.004795  -0.000444
    18  H    0.000393   0.000447  -0.000899  -0.002523  -0.003492  -0.000455
    19  H    0.000032   0.000377  -0.000818  -0.000532   0.002549  -0.001395
    20  H    0.000032   0.000152  -0.000121  -0.001077   0.002348  -0.001454
    21  H   -0.000000  -0.000134  -0.000219   0.000179   0.004207  -0.023123
    22  H    0.000000  -0.000000   0.000000  -0.000000   0.000000  -0.000000
    23  H   -0.000000   0.000002  -0.000000  -0.000000  -0.000001   0.000040
    24  H    0.000000   0.000002  -0.000000   0.000000   0.000000  -0.000008
    25  H    0.000145  -0.007167   0.000388   0.001471  -0.000970  -0.004183
    26  H    0.001958  -0.004918  -0.001359  -0.002808   0.001309   0.003399
               7          8          9         10         11         12
     1  O    0.000015   0.000001   0.000000  -0.000000   0.000000   0.000000
     2  C    0.001330   0.000253   0.000001   0.000000  -0.000000   0.000000
     3  C   -0.000366  -0.000040  -0.000000  -0.000000   0.000000  -0.000000
     4  C   -0.000198  -0.000098  -0.000003   0.000000  -0.000000   0.000000
     5  C    0.005329   0.003092   0.000074   0.000001  -0.000000   0.000000
     6  C    0.003188  -0.035280  -0.001490  -0.000136   0.000002  -0.000000
     7  C   -0.244015   0.022931   0.001001  -0.001848   0.000034  -0.000001
     8  C    0.022931   0.505545   0.009007  -0.037863   0.001695  -0.000113
     9  N    0.001001   0.009007   0.019445  -0.039330   0.008024  -0.000163
    10  O   -0.001848  -0.037863  -0.039330   0.045536   0.061860   0.000241
    11  N    0.000034   0.001695   0.008024   0.061860  -0.791824   0.015643
    12  O   -0.000001  -0.000113  -0.000163   0.000241   0.015643   0.109978
    13  N   -0.000000   0.000070  -0.000336  -0.005640   0.044074  -0.043124
    14  O   -0.000091  -0.002888   0.000637   0.001218  -0.006873  -0.001209
    15  C    0.000816  -0.020534  -0.032048  -0.004758   0.000845   0.000028
    16  C    0.011068   0.010516  -0.000692   0.000066   0.000000  -0.000000
    17  H    0.000007   0.000001   0.000000   0.000000  -0.000000  -0.000000
    18  H   -0.000078  -0.000035  -0.000000  -0.000000   0.000000  -0.000000
    19  H    0.000391   0.000073   0.000001   0.000000  -0.000000   0.000000
    20  H    0.001595   0.000903   0.000092   0.000003  -0.000000  -0.000000
    21  H   -0.003337  -0.006235   0.001608   0.000350  -0.000009   0.000000
    22  H    0.000000  -0.000001   0.000013   0.000261  -0.005660  -0.000845
    23  H    0.000316   0.000990   0.005464   0.000664  -0.001567   0.000220
    24  H   -0.000006   0.000953   0.001496  -0.001446   0.000294  -0.000114
    25  H    0.000397  -0.000386  -0.000075  -0.000002   0.000000  -0.000000
    26  H   -0.001418  -0.001003   0.000025  -0.000001  -0.000000  -0.000000
              13         14         15         16         17         18
     1  O   -0.000000   0.000000   0.000002  -0.002032  -0.003407   0.000393
     2  C    0.000000  -0.000000  -0.000336   0.037342  -0.000868   0.000447
     3  C   -0.000000   0.000000   0.000003  -0.001965   0.033253  -0.000899
     4  C    0.000000  -0.000000   0.000002   0.005137  -0.005811  -0.002523
     5  C   -0.000000   0.000000  -0.000067  -0.005877  -0.004795  -0.003492
     6  C    0.000000  -0.000001   0.001151  -0.018697  -0.000444  -0.000455
     7  C   -0.000000  -0.000091   0.000816   0.011068   0.000007  -0.000078
     8  C    0.000070  -0.002888  -0.020534   0.010516   0.000001  -0.000035
     9  N   -0.000336   0.000637  -0.032048  -0.000692   0.000000  -0.000000
    10  O   -0.005640   0.001218  -0.004758   0.000066   0.000000  -0.000000
    11  N    0.044074  -0.006873   0.000845   0.000000  -0.000000   0.000000
    12  O   -0.043124  -0.001209   0.000028  -0.000000  -0.000000  -0.000000
    13  N    0.353797   0.064629  -0.001897  -0.000001  -0.000000   0.000000
    14  O    0.064629  -0.537465  -0.002191   0.000045  -0.000000   0.000000
    15  C   -0.001897  -0.002191   0.742737  -0.000360  -0.000000  -0.000000
    16  C   -0.000001   0.000045  -0.000360   0.145403  -0.000006  -0.000154
    17  H   -0.000000  -0.000000  -0.000000  -0.000006  -0.044142   0.000252
    18  H    0.000000   0.000000  -0.000000  -0.000154   0.000252  -0.003682
    19  H    0.000000   0.000000  -0.000002  -0.000108   0.000089  -0.000089
    20  H    0.000000   0.000000  -0.000126   0.001127   0.000018   0.000087
    21  H    0.000000   0.000012  -0.000650   0.001673  -0.000001  -0.000011
    22  H    0.044932  -0.005649   0.000063   0.000000  -0.000000   0.000000
    23  H   -0.002947   0.032640  -0.019414  -0.000127   0.000000   0.000000
    24  H   -0.002604  -0.021486   0.036496   0.001027   0.000000   0.000000
    25  H    0.000000  -0.000004  -0.001272   0.001616  -0.000004   0.000500
    26  H    0.000000   0.000002  -0.001496   0.032233   0.000029  -0.000034
              19         20         21         22         23         24
     1  O    0.000032   0.000032  -0.000000   0.000000  -0.000000   0.000000
     2  C    0.000377   0.000152  -0.000134  -0.000000   0.000002   0.000002
     3  C   -0.000818  -0.000121  -0.000219   0.000000  -0.000000  -0.000000
     4  C   -0.000532  -0.001077   0.000179  -0.000000  -0.000000   0.000000
     5  C    0.002549   0.002348   0.004207   0.000000  -0.000001   0.000000
     6  C   -0.001395  -0.001454  -0.023123  -0.000000   0.000040  -0.000008
     7  C    0.000391   0.001595  -0.003337   0.000000   0.000316  -0.000006
     8  C    0.000073   0.000903  -0.006235  -0.000001   0.000990   0.000953
     9  N    0.000001   0.000092   0.001608   0.000013   0.005464   0.001496
    10  O    0.000000   0.000003   0.000350   0.000261   0.000664  -0.001446
    11  N   -0.000000  -0.000000  -0.000009  -0.005660  -0.001567   0.000294
    12  O    0.000000  -0.000000   0.000000  -0.000845   0.000220  -0.000114
    13  N    0.000000   0.000000   0.000000   0.044932  -0.002947  -0.002604
    14  O    0.000000   0.000000   0.000012  -0.005649   0.032640  -0.021486
    15  C   -0.000002  -0.000126  -0.000650   0.000063  -0.019414   0.036496
    16  C   -0.000108   0.001127   0.001673   0.000000  -0.000127   0.001027
    17  H    0.000089   0.000018  -0.000001  -0.000000   0.000000   0.000000
    18  H   -0.000089   0.000087  -0.000011   0.000000   0.000000   0.000000
    19  H   -0.002125  -0.000063   0.000429  -0.000000  -0.000000   0.000000
    20  H   -0.000063  -0.005606   0.000187  -0.000000  -0.000006   0.000001
    21  H    0.000429   0.000187   0.067289  -0.000000  -0.000032   0.000005
    22  H   -0.000000  -0.000000  -0.000000  -0.132317   0.000329   0.000486
    23  H   -0.000000  -0.000006  -0.000032   0.000329  -0.044325  -0.005710
    24  H    0.000000   0.000001   0.000005   0.000486  -0.005710   0.030231
    25  H   -0.000009  -0.000195   0.000006  -0.000000  -0.000008   0.000019
    26  H   -0.000012  -0.000561  -0.000070  -0.000000   0.000084  -0.000028
              25         26
     1  O    0.000145   0.001958
     2  C   -0.007167  -0.004918
     3  C    0.000388  -0.001359
     4  C    0.001471  -0.002808
     5  C   -0.000970   0.001309
     6  C   -0.004183   0.003399
     7  C    0.000397  -0.001418
     8  C   -0.000386  -0.001003
     9  N   -0.000075   0.000025
    10  O   -0.000002  -0.000001
    11  N    0.000000  -0.000000
    12  O   -0.000000  -0.000000
    13  N    0.000000   0.000000
    14  O   -0.000004   0.000002
    15  C   -0.001272  -0.001496
    16  C    0.001616   0.032233
    17  H   -0.000004   0.000029
    18  H    0.000500  -0.000034
    19  H   -0.000009  -0.000012
    20  H   -0.000195  -0.000561
    21  H    0.000006  -0.000070
    22  H   -0.000000  -0.000000
    23  H   -0.000008   0.000084
    24  H    0.000019  -0.000028
    25  H   -0.001659   0.010528
    26  H    0.010528  -0.081332
 Mulliken charges and spin densities:
               1          2
     1  O   -0.288820  -0.093845
     2  C    0.051959   0.168969
     3  C   -0.006426  -0.085818
     4  C   -0.179306   0.506065
     5  C   -0.125337   0.005567
     6  C    0.085743   0.100806
     7  C   -0.329966  -0.202940
     8  C    0.525111   0.451556
     9  N   -0.189414  -0.027249
    10  O   -0.147262   0.019177
    11  N    0.104913  -0.673463
    12  O   -0.153555   0.080542
    13  N   -0.127612   0.450954
    14  O   -0.342538  -0.478673
    15  C   -0.211630   0.696992
    16  C   -0.282983   0.217233
    17  H    0.181930  -0.025830
    18  H    0.165235  -0.009773
    19  H    0.135516  -0.001214
    20  H    0.110084  -0.002666
    21  H    0.120480   0.042122
    22  H    0.245142  -0.098388
    23  H    0.148512  -0.033390
    24  H    0.287999   0.039606
    25  H    0.067175  -0.000865
    26  H    0.155048  -0.045473
 Sum of Mulliken charges =  -0.00000   1.00000
 Mulliken charges and spin densities with hydrogens summed into heavy atoms:
               1          2
     1  O   -0.288820  -0.093845
     2  C    0.051959   0.168969
     3  C    0.175504  -0.111649
     4  C   -0.014071   0.496292
     5  C    0.010179   0.004352
     6  C    0.195827   0.098140
     7  C   -0.209486  -0.160818
     8  C    0.525111   0.451556
     9  N   -0.189414  -0.027249
    10  O   -0.147262   0.019177
    11  N    0.104913  -0.673463
    12  O   -0.153555   0.080542
    13  N    0.117530   0.352566
    14  O   -0.342538  -0.478673
    15  C    0.224881   0.703208
    16  C   -0.060760   0.170896
 Electronic spatial extent (au):  <R**2>=           5201.8656
 Charge=             -0.0000 electrons
 Dipole moment (field-independent basis, Debye):
    X=              3.0226    Y=             -1.3444    Z=              0.4610  Tot=              3.3400
 Quadrupole moment (field-independent basis, Debye-Ang):
   XX=            -74.9720   YY=            -96.4711   ZZ=            -92.6652
   XY=            -13.4328   XZ=             -6.7607   YZ=              8.2175
 Traceless Quadrupole moment (field-independent basis, Debye-Ang):
   XX=             13.0641   YY=             -8.4350   ZZ=             -4.6291
   XY=            -13.4328   XZ=             -6.7607   YZ=              8.2175
 Octapole moment (field-independent basis, Debye-Ang**2):
  XXX=            -60.9876  YYY=             -3.5813  ZZZ=             -7.8071  XYY=            -35.2706
  XXY=              3.2861  XXZ=             -6.0318  XZZ=              0.3097  YZZ=             -3.2673
  YYZ=             -2.7829  XYZ=              1.8309
 Hexadecapole moment (field-independent basis, Debye-Ang**3):
 XXXX=          -4842.4493 YYYY=           -771.8383 ZZZZ=           -223.8760 XXXY=           -385.3392
 XXXZ=           -207.6292 YYYX=              5.1935 YYYZ=             18.8963 ZZZX=             23.5891
 ZZZY=              9.4753 XXYY=          -1097.3606 XXZZ=           -972.6655 YYZZ=           -160.1773
 XXYZ=             89.4429 YYXZ=            -18.8344 ZZXY=             -1.7841
 N-N= 1.035181408525D+03 E-N=-3.971535110304D+03  KE= 8.079082686273D+02
                          Isotropic Fermi Contact Couplings
        Atom                 a.u.       MegaHertz       Gauss      10(-4) cm-1
     1  O(17)             -0.01573       9.53568       3.40257       3.18076
     2  C(13)             -0.10207    -114.74669     -40.94447     -38.27538
     3  C(13)             -0.19309    -217.06518     -77.45426     -72.40515
     4  C(13)              0.14428     162.19441      57.87500      54.10223
     5  C(13)              0.04506      50.65837      18.07617      16.89781
     6  C(13)              0.10713     120.42966      42.97230      40.17101
     7  C(13)             -0.03477     -39.08492     -13.94647     -13.03733
     8  C(13)              0.05722      64.32085      22.95128      21.45512
     9  N(14)              0.16798      54.27612      19.36707      18.10456
    10  O(17)              0.09532     -57.78099     -20.61769     -19.27366
    11  N(14)             -0.08087     -26.12823      -9.32320      -8.71544
    12  O(17)             -0.01816      11.00973       3.92854       3.67245
    13  N(14)             -0.38504    -124.40738     -44.39165     -41.49784
    14  O(17)             -0.08507      51.56706      18.40041      17.20092
    15  C(13)              0.14524     163.28159      58.26293      54.46487
    16  C(13)             -0.12947    -145.54461     -51.93394     -48.54846
    17  H(1)              -0.00825     -36.89465     -13.16493     -12.30673
    18  H(1)              -0.00143      -6.37533      -2.27488      -2.12658
    19  H(1)               0.00021       0.95547       0.34093       0.31871
    20  H(1)               0.00067       2.97676       1.06218       0.99294
    21  H(1)               0.01913      85.52932      30.51899      28.52951
    22  H(1)              -0.03588    -160.37164     -57.22459     -53.49422
    23  H(1)              -0.01836     -82.08839     -29.29118     -27.38174
    24  H(1)               0.02130      95.19575      33.96821      31.75388
    25  H(1)               0.00245      10.95219       3.90801       3.65326
    26  H(1)              -0.01571     -70.21108     -25.05306     -23.41989
 --------------------------------------------------------
       Center         ----  Spin Dipole Couplings  ----
                      3XX-RR        3YY-RR        3ZZ-RR
 --------------------------------------------------------
     1   Atom       -0.023393     -0.106603      0.129996
     2   Atom       -0.056310      0.043583      0.012727
     3   Atom       -0.000514     -0.003129      0.003644
     4   Atom        0.074831      0.163809     -0.238640
     5   Atom        0.022159     -0.021727     -0.000432
     6   Atom       -0.005200      0.061327     -0.056127
     7   Atom        0.126577     -0.151565      0.024988
     8   Atom       -0.170051     -0.170810      0.340861
     9   Atom        0.097463     -0.142241      0.044778
    10   Atom        0.258404     -0.868967      0.610564
    11   Atom        0.835111     -1.172431      0.337320
    12   Atom       -0.013254     -0.161607      0.174861
    13   Atom       -0.761528     -0.269825      1.031353
    14   Atom       -0.343585      1.945681     -1.602095
    15   Atom       -0.578908      0.658394     -0.079486
    16   Atom       -0.137183      0.398221     -0.261038
    17   Atom       -0.002719     -0.000982      0.003701
    18   Atom       -0.017906      0.004708      0.013198
    19   Atom       -0.004402     -0.004433      0.008835
    20   Atom        0.002411     -0.008103      0.005691
    21   Atom        0.014261     -0.010038     -0.004223
    22   Atom        0.026650     -0.017173     -0.009477
    23   Atom        0.022706     -0.009309     -0.013396
    24   Atom        0.072582     -0.030795     -0.041787
    25   Atom       -0.004968     -0.001788      0.006756
    26   Atom        0.028098     -0.007728     -0.020370
 --------------------------------------------------------
                        XY            XZ            YZ
 --------------------------------------------------------
     1   Atom        0.282849      0.216621     -0.493572
     2   Atom       -0.154721     -0.139761      0.200926
     3   Atom        0.230324     -0.056067      0.149138
     4   Atom       -0.394899      0.125046     -0.144349
     5   Atom       -0.052723      0.032076      0.002434
     6   Atom        0.041321     -0.015418     -0.027988
     7   Atom       -0.013646     -0.002216      0.140838
     8   Atom        0.043995      0.313823      0.082126
     9   Atom        0.129937     -0.196503     -0.088570
    10   Atom        0.066029      0.377918     -0.419420
    11   Atom       -0.152580     -0.064812     -1.099226
    12   Atom        0.049297     -0.182391     -0.291967
    13   Atom        0.027160     -0.276428     -0.808235
    14   Atom       -0.453828      1.501484      1.034085
    15   Atom       -0.173584      0.071284      0.309712
    16   Atom       -0.151060      0.073453      0.081308
    17   Atom        0.006342     -0.006487      0.000754
    18   Atom       -0.012819      0.006278      0.026589
    19   Atom       -0.002918      0.002260     -0.000703
    20   Atom       -0.003389      0.001068      0.003249
    21   Atom       -0.002837     -0.001532     -0.002119
    22   Atom       -0.029057     -0.015595     -0.002377
    23   Atom       -0.002933     -0.045456      0.002338
    24   Atom       -0.046739     -0.016994     -0.011517
    25   Atom       -0.009381      0.008992      0.002330
    26   Atom       -0.008384      0.003018      0.001656
 --------------------------------------------------------


 ---------------------------------------------------------------------------------
              Anisotropic Spin Dipole Couplings in Principal Axis System
 ---------------------------------------------------------------------------------

       Atom             a.u.   MegaHertz   Gauss  10(-4) cm-1        Axes

              Baa    -0.6871    49.716    17.740    16.583 -0.4729  0.6931  0.5440
     1 O(17)  Bbb     0.1678   -12.139    -4.332    -4.049  0.8810  0.3635  0.3028
              Bcc     0.5193   -37.577   -13.408   -12.534 -0.0121 -0.6225  0.7825
 
              Baa    -0.1740   -23.353    -8.333    -7.790  0.2477  0.7464 -0.6177
     2 C(13)  Bbb    -0.1655   -22.203    -7.923    -7.406  0.8494  0.1394  0.5090
              Bcc     0.3395    45.556    16.256    15.196 -0.4660  0.6507  0.5995
 
              Baa    -0.3029   -40.643   -14.502   -13.557 -0.5949  0.6746 -0.4370
     3 C(13)  Bbb     0.0532     7.141     2.548     2.382 -0.5273  0.0828  0.8456
              Bcc     0.2497    33.502    11.954    11.175  0.6067  0.7335  0.3064
 
              Baa    -0.2853   -38.286   -13.661   -12.771  0.1314  0.4062  0.9043
     4 C(13)  Bbb    -0.2769   -37.163   -13.261   -12.396  0.7506  0.5551 -0.3585
              Bcc     0.5622    75.448    26.922    25.167 -0.6476  0.7258 -0.2319
 
[...]
   R17        4.86992   0.00008   0.00188   0.00124   0.00316   4.87308
   R18        2.17849  -0.00001  -0.00016   0.00017  -0.00000   2.17849
   R19        2.92602  -0.00039   0.00067  -0.00027   0.00036   2.92638
   R20        2.52861   0.00063  -0.00071   0.00051  -0.00022   2.52840
   R21        5.90572   0.00018   0.00571   0.00414   0.00979   5.91551
   R22        1.94831   0.00015  -0.00009   0.00044   0.00035   1.94866
   R23        3.81423  -0.00074  -0.00055  -0.00005  -0.00064   3.81359
   R24        2.08968   0.00009  -0.00012   0.00001  -0.00006   2.08962
   R25        2.09617   0.00015  -0.00017  -0.00018  -0.00032   2.09585
   R26        2.04604   0.00027   0.00024  -0.00046  -0.00021   2.04583
   R27        2.04601   0.00038  -0.00068   0.00055  -0.00013   2.04588
   R28        8.54212  -0.00018  -0.00858  -0.00062  -0.00921   8.53291
   R29        3.55725  -0.00017   0.00008  -0.00021  -0.00013   3.55712
   R30        3.52077  -0.00009  -0.00024   0.00002  -0.00023   3.52053
    A1        1.62488  -0.00024   0.00018   0.00013   0.00029   1.62517
    A2        2.59420   0.00011  -0.00053  -0.00032  -0.00081   2.59339
    A3        2.71265   0.00006  -0.00144   0.00022  -0.00115   2.71151
    A4        1.48436   0.00002   0.00087   0.00007   0.00095   1.48532
    A5        2.22259   0.00013  -0.00124   0.00035  -0.00090   2.22169
    A6        1.97443  -0.00004   0.00075  -0.00005   0.00071   1.97514
    A7        2.08617  -0.00008   0.00045  -0.00029   0.00019   2.08635
    A8        2.16088  -0.00002   0.00042   0.00011   0.00051   2.16139
    A9        2.08699   0.00002   0.00018  -0.00019  -0.00001   2.08698
   A10        2.03531   0.00000  -0.00060   0.00008  -0.00051   2.03480
   A11        2.15559  -0.00012  -0.00029   0.00004  -0.00024   2.15535
   A12        2.05998   0.00009   0.00059  -0.00011   0.00047   2.06045
   A13        2.06761   0.00003  -0.00030   0.00007  -0.00023   2.06738
   A14        2.15725   0.00004  -0.00036   0.00020  -0.00016   2.15709
   A15        2.06989  -0.00000   0.00036  -0.00008   0.00028   2.07017
   A16        2.05602  -0.00004  -0.00002  -0.00010  -0.00012   2.05590
   A17        2.13301  -0.00007  -0.00087   0.00023  -0.00063   2.13238
   A18        2.11140   0.00004  -0.00011   0.00015   0.00004   2.11144
   A19        2.03877   0.00002   0.00098  -0.00039   0.00059   2.03936
   A20        1.42840   0.00004  -0.00262  -0.00053  -0.00329   1.42511
   A21        1.76942   0.00013  -0.00027   0.00116   0.00098   1.77040
   A22        1.81157  -0.00006  -0.00225  -0.00146  -0.00358   1.80799
   A23        1.71852  -0.00025   0.00140   0.00067   0.00238   1.72090
   A24        1.89770   0.00019  -0.00097   0.00046  -0.00044   1.89725
   A25        1.88398  -0.00003   0.00157  -0.00085   0.00064   1.88463
   A26        1.50151  -0.00018  -0.00363  -0.00220  -0.00573   1.49578
   A27        1.75450  -0.00012   0.00022  -0.00012  -0.00002   1.75448
   A28        0.60757   0.00003  -0.01156  -0.00135  -0.01292   0.59465
   A29        1.94257   0.00007  -0.00610  -0.00055  -0.00666   1.93591
   A30        1.79307  -0.00007   0.00062  -0.00018   0.00043   1.79350
   A31        2.54880  -0.00016   0.00026   0.00001   0.00027   2.54907
   A32        3.00451  -0.00002  -0.00181   0.00001  -0.00185   3.00267
   A33        0.53776  -0.00039   0.00028  -0.00014   0.00021   0.53797
   A34        1.09194  -0.00023   0.00013  -0.00008   0.00016   1.09210
   A35        2.19327  -0.00015   0.00119   0.00059   0.00178   2.19505
   A36        2.72800   0.00018   0.00100   0.00077   0.00179   2.72978
   A37        0.62912  -0.00054   0.00035  -0.00032   0.00005   0.62917
   A38        1.16389  -0.00025   0.00041  -0.00044   0.00000   1.16389
   A39        3.13488   0.00035  -0.00248   0.00169  -0.00076   3.13411
   A40        3.14643  -0.00028   0.00053  -0.00136  -0.00087   3.14555
    D1        0.00815  -0.00008  -0.00029   0.00022  -0.00009   0.00806
    D2       -3.13548  -0.00002  -0.00054   0.00025  -0.00028  -3.13576
    D3        3.13974  -0.00005   0.00341  -0.00025   0.00320  -3.14024
    D4        3.14018  -0.00005   0.00226   0.00095   0.00330  -3.13970
    D5       -0.00769   0.00002   0.00693  -0.00108   0.00585  -0.00184
    D6       -0.00725   0.00002   0.00578   0.00012   0.00595  -0.00130
    D7       -3.13954  -0.00002  -0.00372   0.00054  -0.00325   3.14039
    D8       -0.00272   0.00003  -0.00454   0.00138  -0.00320  -0.00592
    D9       -3.13781  -0.00004   0.00029  -0.00027   0.00003  -3.13778
   D10       -0.00098   0.00002  -0.00053   0.00057   0.00008  -0.00090
   D11        0.00594  -0.00010   0.00054  -0.00030   0.00023   0.00617
   D12       -3.14042  -0.00005  -0.00028   0.00054   0.00028  -3.14014
   D13        3.13570   0.00006  -0.00138   0.00117  -0.00017   3.13553
   D14       -0.00512   0.00006  -0.00194   0.00128  -0.00064  -0.00576
   D15       -0.00126   0.00001  -0.00058   0.00035  -0.00022  -0.00148
   D16        3.14111   0.00001  -0.00115   0.00046  -0.00069   3.14042
   D17       -3.13467  -0.00000   0.00085  -0.00059   0.00024  -3.13443
   D18       -0.00176   0.00006  -0.00147   0.00146  -0.00002  -0.00178
   D19        0.00614  -0.00001   0.00141  -0.00071   0.00071   0.00685
   D20        3.13905   0.00006  -0.00091   0.00135   0.00045   3.13950
   D21        3.13932  -0.00007   0.00009   0.00006   0.00017   3.13948
   D22       -0.00466   0.00003   0.00041  -0.00022   0.00019  -0.00448
   D23        0.00634  -0.00014   0.00239  -0.00197   0.00042   0.00676
   D24       -3.13764  -0.00004   0.00271  -0.00226   0.00044  -3.13720
   D25       -0.00079  -0.00001  -0.00065  -0.00154  -0.00222  -0.00301
   D26        3.13263   0.00005  -0.00284   0.00039  -0.00247   3.13016
   D27        1.57142  -0.00012  -0.00852  -0.00102  -0.00938   1.56204
   D28       -0.21890  -0.00001  -0.00580   0.00093  -0.00502  -0.22393
   D29       -1.57083  -0.00005  -0.00929   0.00007  -0.00907  -1.57990
   D30        2.92204   0.00006  -0.00657   0.00201  -0.00472   2.91731
   D31       -1.86083   0.00005  -0.00551  -0.00047  -0.00589  -1.86673
   D32       -0.11915   0.00020  -0.00599   0.00077  -0.00523  -0.12438
   D33        0.17845   0.00013  -0.00545  -0.00174  -0.00712   0.17133
   D34       -1.02085  -0.00010  -0.00850  -0.00185  -0.01032  -1.03117
   D35       -1.29254   0.00006  -0.00196  -0.00119  -0.00327  -1.29581
   D36       -2.49184  -0.00017  -0.00501  -0.00130  -0.00646  -2.49831
   D37        0.92500  -0.00012  -0.00669  -0.00139  -0.00786   0.91714
   D38       -3.13374  -0.00025  -0.00075  -0.00135  -0.00220  -3.13594
   D39        2.51410  -0.00005   0.01401   0.00146   0.01552   2.52962
   D40        3.06892  -0.00005  -0.00061  -0.00100  -0.00155   3.06738
   D41       -1.99887  -0.00024  -0.00222   0.00017  -0.00202  -2.00089
   D42        2.27945  -0.00029  -0.01719  -0.00416  -0.02142   2.25803
   D43        1.21461   0.00012  -0.00168   0.00204   0.00031   1.21492
   D44        1.21574   0.00032  -0.00143   0.00131   0.00003   1.21577
   D45       -0.00485   0.00002   0.00469   0.00436   0.00910   0.00425
   D46       -0.01359   0.00002   0.01344   0.00526   0.01866   0.00507
   D47        1.40305  -0.00001   0.00586   0.00082   0.00660   1.40965
   D48        0.01342  -0.00001  -0.01259  -0.00284  -0.01536  -0.00194
         Item               Value     Threshold  Converged?
 Maximum Force            0.000744     0.000450     NO 
 RMS     Force            0.000184     0.000300     YES
 Maximum Displacement     0.035026     0.001800     NO 
 RMS     Displacement     0.009470     0.001200     NO 
 Predicted change in Energy=-5.932098D-06
 GradGradGradGradGradGradGradGradGradGradGradGradGradGradGradGradGradGrad

                          Input orientation:                          
 ---------------------------------------------------------------------
 Center     Atomic      Atomic             Coordinates (Angstroms)
 Number     Number       Type             X           Y           Z
 ---------------------------------------------------------------------
      1          8           0        3.278975   -0.580902   -1.690806
      2          6           0        4.492678   -0.316750   -1.820740
      3          6           0        4.931130    1.070338   -1.605289
      4          6           0        6.206399    1.562860   -1.703145
      5          6           0        6.545608    2.908177   -1.476188
      6          6           0        7.854732    3.403131   -1.571525
      7          6           0        8.189977    4.716703   -1.342070
      8          6           0        9.515942    5.181299   -1.443885
      9          7           0       10.613604    5.556470   -1.524024
     10          8           0        9.710611    6.047954   -4.653304
     11          7           0       10.293597    5.180239   -5.139272
     12          8           0        9.944033    3.868394   -4.394324
     13          7           0       10.632976    2.873329   -4.964733
     14          8           0       10.834231    1.674506   -2.080043
     15          6           0       11.839779    2.229858   -1.707206
     16          6           0        5.410093   -1.364998   -2.169137
     17          1           0        4.116434    1.740572   -1.343614
     18          1           0        7.022126    0.892765   -1.966370
     19          1           0        5.747666    3.599809   -1.212379
     20          1           0        8.654435    2.713826   -1.833055
     21          1           0        7.433368    5.447947   -1.073673
     22          1           0       10.377869    2.088793   -4.346051
     23          1           0       11.910253    3.329119   -1.610210
     24          1           0       12.748296    1.652138   -1.440953
     25          1           0        6.474387   -1.213190   -2.296686
     26          1           0        5.005909   -2.359548   -2.309151
 ---------------------------------------------------------------------
                    Distance matrix (angstroms):
                    1          2          3          4          5
     1  O    0.000000
     2  C    1.248893   0.000000
     3  C    2.337418   1.470603   0.000000
     4  C    3.628455   2.546293   1.370571   0.000000
     5  C    4.784415   3.838410   2.449665   1.405863   0.000000
     6  C    6.068302   5.020262   3.740389   2.474049   1.402809
     7  C    7.232162   6.263768   4.897483   3.743217   2.447999
     8  C    8.494921   7.456792   6.160077   4.910538   3.740456
     9  N    9.565142   8.488138   7.240338   5.950164   4.854311
    10  O    9.699694   8.704005   7.543904   6.410850   5.474442
    11  N    9.710180   8.653335   7.624721   6.449619   5.712081
    12  O    8.457437   7.338667   6.382556   5.150518   4.581138
    13  N    8.759660   7.600300   6.859132   5.652421   5.373802
    14  O    7.894319   6.651890   5.952899   4.644496   4.503207
    15  C    9.010439   7.776760   7.006019   5.672730   5.342447
    16  C    2.320619   1.435916   2.545229   3.069789   4.475444
    17  H    2.492212   2.145176   1.086930   2.128097   2.698474
    18  H    4.032221   2.807533   2.129360   1.087991   2.128200
    19  H    4.878696   4.157468   2.686882   2.144866   1.088421
    20  H    6.306429   5.148279   4.076264   2.708224   2.147622
    21  H    7.347575   6.514407   5.070234   4.122570   2.720398
    22  H    8.035664   6.841002   6.181908   4.966157   4.857338
    23  H    9.475955   8.267836   7.335548   5.971788   5.382804
    24  H    9.732263   8.495646   7.840509   6.547757   6.328682
    25  H    3.313236   2.226499   2.841508   2.851414   4.202851
    26  H    2.555040   2.162169   3.502161   4.146530   5.550985
                    6          7          8          9         10
     6  C    0.000000
     7  C    1.374958   0.000000
     8  C    2.436759   1.408687   0.000000
     9  N    3.500072   2.571436   1.162771   0.000000
    10  O    4.465058   3.879282   3.330069   3.293835   0.000000
    11  N    4.672793   4.365641   3.776325   3.648831   1.152808
    12  O    3.542576   3.621132   3.257617   3.396549   2.207270
    13  N    4.417374   4.742358   4.355555   4.363267   3.320540
    14  O    3.481975   4.097761   3.800023   3.927782   5.197234
    15  C    4.156390   4.431566   3.765708   3.550128   5.271690
    16  C    5.391516   6.737869   7.761314   8.683283   8.922858
    17  H    4.097672   5.044909   6.403385   7.537031   7.797590
    18  H    2.674149   4.046742   4.988350   5.902925   6.404962
    19  H    2.146484   2.688708   4.093240   5.253855   5.791227
    20  H    1.087688   2.113836   2.642360   3.466189   4.492852
    21  H    2.146317   1.085915   2.131964   3.213797   4.284811
    22  H    3.973877   4.551558   4.327710   4.477073   4.026735
    23  H    4.056381   3.979666   3.031660   2.578725   4.635830
    24  H    5.199038   5.493597   4.785718   4.450575   6.234575
    25  H    4.872538   6.246452   7.132168   7.972354   8.291623
    26  H    6.470576   7.819645   8.829125   9.732729   9.915410
                   11         12         13         14         15
    11  N    0.000000
    12  O    1.548574   0.000000
    13  N    2.338264   1.337970   0.000000
    14  O    4.684157   3.310814   3.130354   0.000000
    15  C    4.782730   3.674133   3.532975   1.207704   0.000000
    16  C    8.689674   7.272995   7.284042   6.218344   7.380869
    17  H    8.024692   6.913419   7.540621   6.758364   7.747364
    18  H    6.257177   4.825647   5.094218   3.893095   5.006472
    19  H    6.211580   5.273178   6.202756   5.507520   6.263822
    20  H    4.438593   3.091308   3.707758   2.427488   3.224357
    21  H    4.978119   4.452544   5.657429   5.178562   5.493079
    22  H    3.192701   1.832355   1.031186   2.348337   3.020030
    23  H    4.300523   3.450816   3.618288   2.028869   1.105780
    24  H    5.670150   4.636602   4.287530   2.018064   1.109078
    25  H    7.971361   6.500848   6.411862   5.233925   6.402304
    26  H    9.634190   8.217072   8.130129   7.091927   8.253894
                   16         17         18         19         20
    16  C    0.000000
    17  H    3.464045   0.000000
    18  H    2.781593   3.090250   0.000000
    19  H    5.067411   2.476874   3.085585   0.000000
    20  H    5.222597   4.666930   2.449178   3.101534   0.000000
    21  H    7.190960   4.981923   4.660012   2.505283   3.089188
    22  H    6.430118   6.952802   4.284201   5.791533   3.110633
    23  H    8.037363   7.958528   5.473249   6.181345   3.320933
    24  H    7.967596   8.632864   5.800150   7.270109   4.247425
    25  H    1.082605   3.897819   2.200948   4.986863   4.515421
    26  H    1.082635   4.305161   3.841897   6.104675   6.267180
                   21         22         23         24         25
    21  H    0.000000
    22  H    5.537369   0.000000
    23  H    4.981948   3.372156   0.000000
    24  H    6.541522   3.774809   1.882346   0.000000
    25  H    6.840040   5.508191   7.117054   6.950131   0.000000
    26  H    8.268975   7.265993   8.973261   8.763102   1.862986
                   26
    26  H    0.000000
 Stoichiometry    C9H10N3O4(2)
 Framework group  C1[X(C9H10N3O4)]
 Deg. of freedom    72
 Full point group                 C1      NOp   1
 Largest Abelian subgroup         C1      NOp   1
 Largest concise Abelian subgroup C1      NOp   1
                         Standard orientation:                         
 ---------------------------------------------------------------------
 Center     Atomic      Atomic             Coordinates (Angstroms)
 Number     Number       Type             X           Y           Z
 ---------------------------------------------------------------------
      1          8           0        5.944694   -0.377075   -0.571042
      2          6           0        4.827457    0.138769   -0.357924
      3          6           0        3.698174   -0.749279   -0.043654
      4          6           0        2.402405   -0.385186    0.214966
      5          6           0        1.376891   -1.299525    0.512882
      6          6           0        0.054282   -0.918214    0.783398
      7          6           0       -0.948424   -1.810042    1.082955
      8          6           0       -2.266937   -1.393672    1.352325
      9          7           0       -3.351816   -1.042231    1.579400
     10          8           0       -3.636966   -1.396739   -1.682863
     11          7           0       -3.662868   -0.282069   -1.975789
     12          8           0       -2.438955    0.425937   -1.344247
     13          7           0       -2.487114    1.718355   -1.687028
     14          8           0       -1.289308    2.272942    1.151424
     15          6           0       -2.314620    2.346754    1.785331
     16          6           0        4.684778    1.566101   -0.422888
     17          1           0        3.972448   -1.800930   -0.028821
     18          1           0        2.126923    0.667229    0.198933
     19          1           0        1.625838   -2.358879    0.534226
     20          1           0       -0.196930    0.139902    0.764709
     21          1           0       -0.754120   -2.877794    1.119864
     22          1           0       -1.682362    2.084153   -1.156076
     23          1           0       -3.013537    1.495777    1.885834
     24          1           0       -2.602282    3.284778    2.302454
     25          1           0        3.750489    2.084377   -0.248168
     26          1           0        5.566363    2.148249   -0.659556
 ---------------------------------------------------------------------
 Rotational constants (GHZ):           0.6738748           0.1881618           0.1823053
 Standard basis: 6-31G(2df,p) (6D, 7F)
 There are   546 symmetry adapted cartesian basis functions of A   symmetry.
 There are   498 symmetry adapted basis functions of A   symmetry.
   498 basis functions,   774 primitive gaussians,   546 cartesian basis functions
    59 alpha electrons       58 beta electrons
       nuclear repulsion energy       941.8534369780 Hartrees.
 NAtoms=   26 NActive=   26 NUniq=   26 SFac= 1.00D+00 NAtFMM=   60 NAOKFM=F Big=F
 Integral buffers will be    131072 words long.
 Raffenetti 2 integral format.
 Two-electron integral symmetry is turned on.
 One-electron integrals computed using PRISM.
 PrsmSu:  requested number of processors reduced to:  12 ShMem   1 Linda.
 NBasis=   498 RedAO= T EigKep=  1.40D-04  NBF=   498
 NBsUse=   498 1.00D-06 EigRej= -1.00D+00 NBFU=   498
 Initial guess from the checkpoint file:  "OdC1CdCCdCCdCdNO[N]ONOCC1.chk"
 B after Tr=     0.000000   -0.000000   -0.000000
         Rot=    0.999995   -0.003190    0.000439   -0.000306 Ang=  -0.37 deg.
 Initial guess <Sx>= 0.0000 <Sy>= 0.0000 <Sz>= 0.5000 <S**2>= 1.8299 S= 0.9422
 ExpMin= 1.61D-01 ExpMax= 5.48D+03 ExpMxC= 8.25D+02 IAcc=2 IRadAn=         4 AccDes= 0.00D+00
 Harris functional with IExCor=  402 and IRadAn=       4 diagonalized for initial guess.
 HarFok:  IExCor=  402 AccDes= 0.00D+00 IRadAn=         4 IDoV= 1 UseB2=F ITyADJ=14
 ICtDFT=  3500011 ScaDFX=  1.000000  1.000000  1.000000  1.000000
 FoFCou: FMM=F IPFlag=           0 FMFlag=      100000 FMFlg1=           0
         NFxFlg=           0 DoJE=T BraDBF=F KetDBF=T FulRan=T
         wScrn=  0.000000 ICntrl=       500 IOpCl=  0 I1Cent=   200000004 NGrid=           0
         NMat0=    1 NMatS0=      1 NMatT0=    0 NMatD0=    1 NMtDS0=    0 NMtDT0=    0
 Petite list used in FoFCou.
 Requested convergence on RMS density matrix=1.00D-08 within 128 cycles.
 Requested convergence on MAX density matrix=1.00D-06.
 Requested convergence on             energy=1.00D-06.
 No special actions if energy rises.
 Integral accuracy reduced to 1.0D-05 until final iterations.
 Initial convergence to 1.0D-05 achieved.  Increase integral accuracy.
slurmstepd: error: *** JOB 27448496 ON lewis4-r630-hpc4-node228 CANCELLED AT 2023-05-20T20:21:24 ***
