### Starting Gaussian ###
 Entering Gaussian System, Link 0=g16
 Initial command:
 /cluster/software/gaussian/gaussian-16-A.03/avx2/g16/l1.exe "/local/scratch/yxie/Gau-24176.inp" -scrdir="/local/scratch/yxie/"
 Entering Link 1 = /cluster/software/gaussian/gaussian-16-A.03/avx2/g16/l1.exe PID=     24177.
  
 Copyright (c) 1988,1990,1992,1993,1995,1998,2003,2009,2016,
            Gaussian, Inc.  All Rights Reserved.
  
 This is part of the Gaussian(R) 16 program.  It is based on
 the Gaussian(R) 09 system (copyright 2009, Gaussian, Inc.),
 the Gaussian(R) 03 system (copyright 2003, Gaussian, Inc.),
 the Gaussian(R) 98 system (copyright 1998, Gaussian, Inc.),
 the Gaussian(R) 94 system (copyright 1995, Gaussian, Inc.),
 the Gaussian 92(TM) system (copyright 1992, Gaussian, Inc.),
 the Gaussian 90(TM) system (copyright 1990, Gaussian, Inc.),
 the Gaussian 88(TM) system (copyright 1988, Gaussian, Inc.),
 the Gaussian 86(TM) system (copyright 1986, Carnegie Mellon
 University), and the Gaussian 82(TM) system (copyright 1983,
 Carnegie Mellon University). Gaussian is a federally registered
 trademark of Gaussian, Inc.
  
 This software contains proprietary and confidential information,
 including trade secrets, belonging to Gaussian, Inc.
  
 This software is provided under written license and may be
 used, copied, transmitted, or stored only in accord with that
 written license.
  
 The following legend is applicable only to US Government
 contracts under FAR:
  
                    RESTRICTED RIGHTS LEGEND
  
 Use, reproduction and disclosure by the US Government is
 subject to restrictions as set forth in subparagraphs (a)
 and (c) of the Commercial Computer Software - Restricted
 Rights clause in FAR 52.227-19.
  
 Gaussian, Inc.
 340 Quinnipiac St., Bldg. 40, Wallingford CT 06492
  
  
 ---------------------------------------------------------------
 Warning -- This program may not be used in any manner that
 competes with the business of Gaussian, Inc. or will provide
 assistance to any competitor of Gaussian, Inc.  The licensee
 of this program is prohibited from giving any competitor of
 Gaussian, Inc. access to this program.  By using this program,
 the user acknowledges that Gaussian, Inc. is engaged in the
 business of creating and licensing software in the field of
 computational chemistry and represents and warrants to the
 licensee that it is not a competitor of Gaussian, Inc. and that
 it will not use this program in any manner prohibited above.
 ---------------------------------------------------------------
  

 Cite this work as:
 Gaussian 16, Revision A.03,
 M. J. Frisch, G. W. Trucks, H. B. Schlegel, G. E. Scuseria, 
 M. A. Robb, J. R. Cheeseman, G. Scalmani, V. Barone, 
 G. A. Petersson, H. Nakatsuji, X. Li, M. Caricato, A. V. Marenich, 
 J. Bloino, B. G. Janesko, R. Gomperts, B. Mennucci, H. P. Hratchian, 
 J. V. Ortiz, A. F. Izmaylov, J. L. Sonnenberg, D. Williams-Young, 
 F. Ding, F. Lipparini, F. Egidi, J. Goings, B. Peng, A. Petrone, 
 T. Henderson, D. Ranasinghe, V. G. Zakrzewski, J. Gao, N. Rega, 
 G. Zheng, W. Liang, M. Hada, M. Ehara, K. Toyota, R. Fukuda, 
 J. Hasegawa, M. Ishida, T. Nakajima, Y. Honda, O. Kitao, H. Nakai, 
 T. Vreven, K. Throssell, J. A. Montgomery, Jr., J. E. Peralta, 
 F. Ogliaro, M. J. Bearpark, J. J. Heyd, E. N. Brothers, K. N. Kudin, 
 V. N. Staroverov, T. A. Keith, R. Kobayashi, J. Normand, 
 K. Raghavachari, A. P. Rendell, J. C. Burant, S. S. Iyengar, 
 J. Tomasi, M. Cossi, J. M. Millam, M. Klene, C. Adamo, R. Cammi, 
 J. W. Ochterski, R. L. Martin, K. Morokuma, O. Farkas, 
 J. B. Foresman, and D. J. Fox, Gaussian, Inc., Wallingford CT, 2016.
 
 ******************************************
 Gaussian 16:  ES64L-G16RevA.03 25-Dec-2016
                17-May-2023 
 ******************************************
 %chk=OdC1CdCSS2dCCdCCdCSSCdC12.chk
 %NProcShared=20
 Will use up to   20 processors via shared memory.
 -----------------------------
 # opt freq b3lyp/6-31g(2df,p)
 -----------------------------
 1/18=20,19=15,26=3,38=1/1,3;
 2/9=110,12=2,17=6,18=5,40=1/2;
 3/5=1,6=6,7=104,11=2,25=1,30=1,71=1,74=-5/1,2,3;
 4//1;
 5/5=2,38=5/2;
 6/7=2,8=2,9=2,10=2,28=1/1;
 7//1,2,3,16;
 1/18=20,19=15,26=3/3(2);
 2/9=110/2;
 99//99;
 2/9=110/2;
 3/5=1,6=6,7=104,11=2,25=1,30=1,71=1,74=-5/1,2,3;
 4/5=5,16=3,69=1/1;
 5/5=2,38=5/2;
 7//1,2,3,16;
 1/18=20,19=15,26=3/3(-5);
 2/9=110/2;
 6/7=2,8=2,9=2,10=2,19=2,28=1/1;
 99/9=1/99;
 -------------------
 Title Card Required
 -------------------
 Symbolic Z-matrix:
 Charge =  0 Multiplicity = 1
 O                     0.8033   -0.44799  -0.21148 
 C                     1.96028  -0.44856  -0.61716 
 C                     2.78776   0.86511  -0.38592 
 C                     4.09211   1.1036   -0.19077 
 S                     5.26279  -0.09038  -0.00902 
 S                     4.22041  -1.80046  -0.06436 
 C                     5.14224  -2.32616  -1.46009 
 C                     5.01388  -3.71975  -1.53515 
 C                     5.25197  -4.28716  -2.73494 
 C                     4.70132  -5.59245  -2.7623 
 C                     4.25914  -6.01678  -3.94904 
 S                     2.50346  -6.15054  -3.79674 
 S                     1.90075  -3.92562  -3.32824 
 C                     2.17884  -3.08114  -1.57678 
 C                     2.62449  -1.72226  -1.36404 
 H                     2.18251   1.7599   -0.23785 
 H                     4.4922    2.11107  -0.03216 
 H                     5.61482  -1.6972   -2.2321 
 H                     4.45122  -4.2223   -0.75672 
 H                     5.4951   -3.68605  -3.59873 
 H                     4.06216  -5.85252  -1.90952 
 H                     4.82277  -5.77023  -4.85304 
 H                     1.78146  -3.70827  -0.77332 
 

 GradGradGradGradGradGradGradGradGradGradGradGradGradGradGradGradGradGrad
 Berny optimization.
 Initialization pass.
                           ----------------------------
                           !    Initial Parameters    !
                           ! (Angstroms and Degrees)  !
 --------------------------                            --------------------------
 ! Name  Definition              Value          Derivative Info.                !
 --------------------------------------------------------------------------------
 ! R1    R(1,2)                  1.226          estimate D2E/DX2                !
 ! R2    R(2,3)                  1.5697         estimate D2E/DX2                !
 ! R3    R(2,15)                 1.619          estimate D2E/DX2                !
 ! R4    R(3,4)                  1.3403         estimate D2E/DX2                !
 ! R5    R(3,16)                 1.0904         estimate D2E/DX2                !
 ! R6    R(4,5)                  1.682          estimate D2E/DX2                !
 ! R7    R(4,17)                 1.0955         estimate D2E/DX2                !
 ! R8    R(5,6)                  2.0035         estimate D2E/DX2                !
 ! R9    R(6,7)                  1.7533         estimate D2E/DX2                !
 ! R10   R(6,15)                 2.0597         estimate D2E/DX2                !
 ! R11   R(7,8)                  1.4015         estimate D2E/DX2                !
 ! R12   R(7,18)                 1.1022         estimate D2E/DX2                !
 ! R13   R(8,9)                  1.3484         estimate D2E/DX2                !
 ! R14   R(8,19)                 1.084          estimate D2E/DX2                !
 ! R15   R(9,10)                 1.4169         estimate D2E/DX2                !
 ! R16   R(9,20)                 1.0801         estimate D2E/DX2                !
 ! R17   R(10,11)                1.3356         estimate D2E/DX2                !
 ! R18   R(10,21)                1.097          estimate D2E/DX2                !
 ! R19   R(11,12)                1.7673         estimate D2E/DX2                !
 ! R20   R(11,22)                1.0935         estimate D2E/DX2                !
 ! R21   R(12,13)                2.3522         estimate D2E/DX2                !
 ! R22   R(13,14)                1.9642         estimate D2E/DX2                !
 ! R23   R(14,15)                1.4458         estimate D2E/DX2                !
 ! R24   R(14,23)                1.094          estimate D2E/DX2                !
 ! A1    A(1,2,3)              116.6368         estimate D2E/DX2                !
 ! A2    A(1,2,15)             122.6935         estimate D2E/DX2                !
 ! A3    A(3,2,15)             120.6689         estimate D2E/DX2                !
 ! A4    A(2,3,4)              133.1106         estimate D2E/DX2                !
 ! A5    A(2,3,16)             114.467          estimate D2E/DX2                !
 ! A6    A(4,3,16)             111.9883         estimate D2E/DX2                !
 ! A7    A(3,4,5)              124.5259         estimate D2E/DX2                !
 ! A8    A(3,4,17)             122.6925         estimate D2E/DX2                !
 ! A9    A(5,4,17)             112.5175         estimate D2E/DX2                !
 ! A10   A(4,5,6)              103.9335         estimate D2E/DX2                !
 ! A11   A(5,6,7)               90.2501         estimate D2E/DX2                !
 ! A12   A(5,6,15)             112.84           estimate D2E/DX2                !
 ! A13   A(7,6,15)              85.2073         estimate D2E/DX2                !
 ! A14   A(6,7,8)              107.0147         estimate D2E/DX2                !
 ! A15   A(6,7,18)             127.7255         estimate D2E/DX2                !
 ! A16   A(8,7,18)             124.6915         estimate D2E/DX2                !
 ! A17   A(7,8,9)              116.7383         estimate D2E/DX2                !
 ! A18   A(7,8,19)             118.0383         estimate D2E/DX2                !
 ! A19   A(9,8,19)             122.3796         estimate D2E/DX2                !
 ! A20   A(8,9,10)             109.646          estimate D2E/DX2                !
 ! A21   A(8,9,20)             121.1421         estimate D2E/DX2                !
 ! A22   A(10,9,20)            125.7832         estimate D2E/DX2                !
 ! A23   A(9,10,11)            116.0067         estimate D2E/DX2                !
 ! A24   A(9,10,21)            115.4554         estimate D2E/DX2                !
 ! A25   A(11,10,21)           114.9928         estimate D2E/DX2                !
 ! A26   A(10,11,12)           106.0428         estimate D2E/DX2                !
 ! A27   A(10,11,22)           119.4906         estimate D2E/DX2                !
 ! A28   A(12,11,22)           126.8954         estimate D2E/DX2                !
 ! A29   A(11,12,13)           101.5436         estimate D2E/DX2                !
 ! A30   A(12,13,14)           123.2291         estimate D2E/DX2                !
 ! A31   A(13,14,15)           125.3749         estimate D2E/DX2                !
 ! A32   A(13,14,23)           110.9165         estimate D2E/DX2                !
 ! A33   A(15,14,23)           122.8668         estimate D2E/DX2                !
 ! A34   A(2,15,6)              93.2478         estimate D2E/DX2                !
 ! A35   A(2,15,14)            132.9072         estimate D2E/DX2                !
 ! A36   A(6,15,14)            107.2172         estimate D2E/DX2                !
 ! D1    D(1,2,3,4)            149.7556         estimate D2E/DX2                !
 ! D2    D(1,2,3,16)           -21.912          estimate D2E/DX2                !
 ! D3    D(15,2,3,4)           -30.5626         estimate D2E/DX2                !
 ! D4    D(15,2,3,16)          157.7699         estimate D2E/DX2                !
 ! D5    D(1,2,15,6)          -125.8274         estimate D2E/DX2                !
 ! D6    D(1,2,15,14)           -8.601          estimate D2E/DX2                !
 ! D7    D(3,2,15,6)            54.5105         estimate D2E/DX2                !
 ! D8    D(3,2,15,14)          171.7369         estimate D2E/DX2                !
 ! D9    D(2,3,4,5)             -5.5901         estimate D2E/DX2                !
 ! D10   D(2,3,4,17)          -179.2397         estimate D2E/DX2                !
 ! D11   D(16,3,4,5)           166.2318         estimate D2E/DX2                !
 ! D12   D(16,3,4,17)           -7.4178         estimate D2E/DX2                !
 ! D13   D(3,4,5,6)             -2.7251         estimate D2E/DX2                !
 ! D14   D(17,4,5,6)           171.4915         estimate D2E/DX2                !
 ! D15   D(4,5,6,7)            120.4382         estimate D2E/DX2                !
 ! D16   D(4,5,6,15)            35.534          estimate D2E/DX2                !
 ! D17   D(5,6,7,8)            159.6578         estimate D2E/DX2                !
 ! D18   D(5,6,7,18)           -28.7492         estimate D2E/DX2                !
 ! D19   D(15,6,7,8)           -87.4401         estimate D2E/DX2                !
 ! D20   D(15,6,7,18)           84.1529         estimate D2E/DX2                !
 ! D21   D(5,6,15,2)           -57.6183         estimate D2E/DX2                !
 ! D22   D(5,6,15,14)          165.3709         estimate D2E/DX2                !
 ! D23   D(7,6,15,2)          -145.867          estimate D2E/DX2                !
 ! D24   D(7,6,15,14)           77.1221         estimate D2E/DX2                !
 ! D25   D(6,7,8,9)            158.7042         estimate D2E/DX2                !
 ! D26   D(6,7,8,19)            -2.6803         estimate D2E/DX2                !
 ! D27   D(18,7,8,9)           -13.2108         estimate D2E/DX2                !
 ! D28   D(18,7,8,19)         -174.5953         estimate D2E/DX2                !
 ! D29   D(7,8,9,10)          -162.3205         estimate D2E/DX2                !
 ! D30   D(7,8,9,20)            -2.0817         estimate D2E/DX2                !
 ! D31   D(19,8,9,10)           -1.8092         estimate D2E/DX2                !
 ! D32   D(19,8,9,20)          158.4295         estimate D2E/DX2                !
 ! D33   D(8,9,10,11)          148.0777         estimate D2E/DX2                !
 ! D34   D(8,9,10,21)            9.2363         estimate D2E/DX2                !
 ! D35   D(20,9,10,11)         -11.024          estimate D2E/DX2                !
 ! D36   D(20,9,10,21)        -149.8654         estimate D2E/DX2                !
 ! D37   D(9,10,11,12)        -112.672          estimate D2E/DX2                !
 ! D38   D(9,10,11,22)          39.006          estimate D2E/DX2                !
 ! D39   D(21,10,11,12)         26.3593         estimate D2E/DX2                !
 ! D40   D(21,10,11,22)        178.0373         estimate D2E/DX2                !
 ! D41   D(10,11,12,13)         61.5938         estimate D2E/DX2                !
 ! D42   D(22,11,12,13)        -87.3171         estimate D2E/DX2                !
 ! D43   D(11,12,13,14)        -75.4422         estimate D2E/DX2                !
 ! D44   D(12,13,14,15)        139.9468         estimate D2E/DX2                !
 ! D45   D(12,13,14,23)        -50.3566         estimate D2E/DX2                !
 ! D46   D(13,14,15,2)         119.86           estimate D2E/DX2                !
 ! D47   D(13,14,15,6)        -128.4855         estimate D2E/DX2                !
 ! D48   D(23,14,15,2)         -48.6666         estimate D2E/DX2                !
 ! D49   D(23,14,15,6)          62.9879         estimate D2E/DX2                !
 --------------------------------------------------------------------------------
 Trust Radius=3.00D-01 FncErr=1.00D-07 GrdErr=1.00D-06 EigMax=2.50D+02 EigMin=1.00D-04
 Number of steps in this run=    119 maximum allowed number of steps=    138.
 GradGradGradGradGradGradGradGradGradGradGradGradGradGradGradGradGradGrad

                          Input orientation:                          
 ---------------------------------------------------------------------
 Center     Atomic      Atomic             Coordinates (Angstroms)
 Number     Number       Type             X           Y           Z
 ---------------------------------------------------------------------
      1          8           0        0.803300   -0.447990   -0.211480
      2          6           0        1.960280   -0.448560   -0.617160
      3          6           0        2.787760    0.865110   -0.385920
      4          6           0        4.092110    1.103600   -0.190770
      5         16           0        5.262790   -0.090380   -0.009020
      6         16           0        4.220410   -1.800460   -0.064360
      7          6           0        5.142240   -2.326160   -1.460090
      8          6           0        5.013880   -3.719750   -1.535150
      9          6           0        5.251970   -4.287160   -2.734940
     10          6           0        4.701320   -5.592450   -2.762300
     11          6           0        4.259140   -6.016780   -3.949040
     12         16           0        2.503460   -6.150540   -3.796740
     13         16           0        1.900750   -3.925620   -3.328240
     14          6           0        2.178840   -3.081140   -1.576780
     15          6           0        2.624490   -1.722260   -1.364040
     16          1           0        2.182510    1.759900   -0.237850
     17          1           0        4.492200    2.111070   -0.032160
     18          1           0        5.614820   -1.697200   -2.232100
     19          1           0        4.451220   -4.222300   -0.756720
     20          1           0        5.495100   -3.686050   -3.598730
     21          1           0        4.062160   -5.852520   -1.909520
     22          1           0        4.822770   -5.770230   -4.853040
     23          1           0        1.781460   -3.708270   -0.773320
 ---------------------------------------------------------------------
                    Distance matrix (angstroms):
                    1          2          3          4          5
     1  O    0.000000
     2  C    1.226042   0.000000
     3  C    2.385947   1.569689   0.000000
     4  C    3.636500   2.671275   1.340257   0.000000
     5  S    4.478384   3.377084   2.679699   1.681997   0.000000
     6  S    3.677970   2.690987   3.043214   2.909640   2.003495
     7  C    4.890087   3.789562   4.108725   3.804892   2.668117
     8  C    5.494133   4.568136   5.224680   5.091338   3.945042
     9  C    6.395134   5.482250   6.175444   6.072756   5.004370
    10  C    6.940224   6.210840   7.142057   7.198680   6.178072
    11  C    7.544773   6.884131   7.888041   8.053093   7.187022
    12  S    6.947209   6.551133   7.806015   8.255264   7.660696
    13  S    4.797135   4.409472   5.691672   6.319718   6.085195
    14  C    3.269500   2.810537   4.166752   4.805588   4.573102
    15  C    2.503775   1.619048   2.770895   3.393517   3.385224
    16  H    2.603400   2.251790   1.090368   2.019782   3.600559
    17  H    4.493209   3.647540   2.140719   1.095548   2.332536
    18  H    5.366019   4.186024   4.238641   3.785519   2.765480
    19  H    5.277312   4.523867   5.365290   5.367911   4.276735
    20  H    6.631100   5.645003   6.193940   6.043453   5.086141
    21  H    6.535476   5.940613   7.005141   7.165375   6.185117
    22  H    8.125667   7.379478   8.253736   8.337875   7.477890
    23  H    3.449911   3.268344   4.698779   5.369596   5.078675
                    6          7          8          9         10
     6  S    0.000000
     7  C    1.753338   0.000000
     8  C    2.544895   1.401500   0.000000
     9  C    3.792069   2.341539   1.348383   0.000000
    10  C    4.678605   3.543841   2.260663   1.416950   0.000000
    11  C    5.733201   4.538217   3.416554   2.334810   1.335639
    12  S    5.983458   5.200863   4.162420   3.486246   2.492412
    13  S    4.533215   4.068847   3.598490   3.422483   3.307840
    14  C    2.845270   3.060286   2.906374   3.498564   3.751672
    15  C    2.059671   2.590943   3.119043   3.919404   4.609417
    16  H    4.106008   5.191316   6.302873   7.226616   8.171554
    17  H    3.921093   4.706437   6.043971   6.987104   8.175672
    18  H    2.579562   1.102235   2.222066   2.663156   4.035910
    19  H    2.529416   2.137191   1.084018   2.135126   2.441764
    20  H    4.203814   2.558826   2.119215   1.080083   2.228018
    21  H    4.455205   3.715343   2.365297   2.132444   1.096994
    22  H    6.249269   4.845182   3.905046   2.621079   2.101797
    23  H    3.176608   3.698205   3.321002   4.028338   4.003968
                   11         12         13         14         15
    11  C    0.000000
    12  S    1.767342   0.000000
    13  S    3.212530   2.352237   0.000000
    14  C    4.309669   3.801949   1.964203   0.000000
    15  C    5.272306   5.053943   3.039190   1.445827   0.000000
    16  H    8.863525   8.680079   6.477271   5.022790   3.686338
    17  H    9.025420   9.294157   7.349924   5.890376   4.467288
    18  H    4.841954   5.653397   4.467851   3.761741   3.113877
    19  H    3.667146   4.093116   3.633955   2.671789   3.155310
    20  H    2.661319   3.881086   3.612466   3.930875   4.134091
    21  H    2.055584   2.465758   3.224500   3.367218   4.407209
    22  H    1.093472   2.576743   3.777010   4.995543   5.778548
    23  H    4.642555   3.953105   2.566922   1.093961   2.236937
                   16         17         18         19         20
    16  H    0.000000
    17  H    2.345271   0.000000
    18  H    5.263965   4.539045   0.000000
    19  H    6.418955   6.374813   3.147513   0.000000
    20  H    7.206049   6.879886   2.416099   3.074780   0.000000
    21  H    8.017263   8.193179   4.447639   2.034191   3.098441
    22  H    9.218124   9.244731   4.907774   4.394767   2.523713
    23  H    5.508943   6.462364   4.568051   2.718846   4.666322
                   21         22         23
    21  H    0.000000
    22  H    3.041317   0.000000
    23  H    3.330218   5.490479   0.000000
 Stoichiometry    C10H8OS4
 Framework group  C1[X(C10H8OS4)]
 Deg. of freedom    63
 Full point group                 C1      NOp   1
 Largest Abelian subgroup         C1      NOp   1
 Largest concise Abelian subgroup C1      NOp   1
                         Standard orientation:                         
 ---------------------------------------------------------------------
 Center     Atomic      Atomic             Coordinates (Angstroms)
 Number     Number       Type             X           Y           Z
 ---------------------------------------------------------------------
      1          8           0        2.390333    2.840471    0.526211
      2          6           0        2.269319    1.735141    0.009703
      3          6           0        3.572446    1.086213   -0.577387
      4          6           0        3.977440   -0.182878   -0.724622
      5         16           0        3.144378   -1.523056   -0.142348
      6         16           0        1.577832   -0.734092    0.825878
      7          6           0        0.478837   -1.595844   -0.234209
      8          6           0       -0.757578   -1.661239    0.422454
      9          6           0       -1.843557   -1.871935   -0.348516
     10          6           0       -3.012662   -1.512570    0.366884
     11          6           0       -4.022506   -1.033324   -0.364190
     12         16           0       -4.193332    0.665298    0.092976
     13         16           0       -2.101334    1.535511   -0.538922
     14          6           0       -0.453898    1.228534    0.485682
     15          6           0        0.848688    0.964123   -0.083329
     16          1           0        4.364870    1.797467   -0.812085
     17          1           0        4.949015   -0.447695   -1.156060
     18          1           0        0.651903   -1.904706   -1.278036
     19          1           0       -0.826550   -1.246118    1.421460
     20          1           0       -1.759442   -1.950519   -1.422447
     21          1           0       -2.842425   -0.993985    1.318453
     22          1           0       -4.236603   -1.474891   -1.341360
     23          1           0       -0.603322    1.460766    1.544215
 ---------------------------------------------------------------------
 Rotational constants (GHZ):           0.8095098           0.2400230           0.1952486
 Standard basis: 6-31G(2df,p) (6D, 7F)
 There are   521 symmetry adapted cartesian basis functions of A   symmetry.
 There are   476 symmetry adapted basis functions of A   symmetry.
   476 basis functions,   812 primitive gaussians,   521 cartesian basis functions
    70 alpha electrons       70 beta electrons
       nuclear repulsion energy      1402.6014168319 Hartrees.
 NAtoms=   23 NActive=   23 NUniq=   23 SFac= 1.00D+00 NAtFMM=   60 NAOKFM=F Big=F
 Integral buffers will be    131072 words long.
 Raffenetti 2 integral format.
 Two-electron integral symmetry is turned on.
 One-electron integrals computed using PRISM.
 PrsmSu:  requested number of processors reduced to:  12 ShMem   1 Linda.
 NBasis=   476 RedAO= T EigKep=  4.95D-04  NBF=   476
 NBsUse=   476 1.00D-06 EigRej= -1.00D+00 NBFU=   476
 ExpMin= 1.17D-01 ExpMax= 2.19D+04 ExpMxC= 3.30D+03 IAcc=3 IRadAn=         5 AccDes= 0.00D+00
 Harris functional with IExCor=  402 and IRadAn=       5 diagonalized for initial guess.
 HarFok:  IExCor=  402 AccDes= 0.00D+00 IRadAn=         5 IDoV= 1 UseB2=F ITyADJ=14
 ICtDFT=  3500011 ScaDFX=  1.000000  1.000000  1.000000  1.000000
 FoFCou: FMM=F IPFlag=           0 FMFlag=      100000 FMFlg1=           0
         NFxFlg=           0 DoJE=T BraDBF=F KetDBF=T FulRan=T
         wScrn=  0.000000 ICntrl=       500 IOpCl=  0 I1Cent=   200000004 NGrid=           0
         NMat0=    1 NMatS0=      1 NMatT0=    0 NMatD0=    1 NMtDS0=    0 NMtDT0=    0
 Petite list used in FoFCou.
 Requested convergence on RMS density matrix=1.00D-08 within 128 cycles.
 Requested convergence on MAX density matrix=1.00D-06.
 Requested convergence on             energy=1.00D-06.
 No special actions if energy rises.
 Integral accuracy reduced to 1.0D-05 until final iterations.
 EnCoef did     3 forward-backward iterations
 Initial convergence to 1.0D-05 achieved.  Increase integral accuracy.
 SCF Done:  E(RB3LYP) =  -2053.53861676     A.U. after   20 cycles
            NFock= 20  Conv=0.80D-08     -V/T= 2.0041

 **********************************************************************

            Population analysis using the SCF density.

 **********************************************************************

 Orbital symmetries:
       Occupied  (A) (A) (A) (A) (A) (A) (A) (A) (A) (A) (A) (A)
                 (A) (A) (A) (A) (A) (A) (A) (A) (A) (A) (A) (A)
                 (A) (A) (A) (A) (A) (A) (A) (A) (A) (A) (A) (A)
                 (A) (A) (A) (A) (A) (A) (A) (A) (A) (A) (A) (A)
                 (A) (A) (A) (A) (A) (A) (A) (A) (A) (A) (A) (A)
                 (A) (A) (A) (A) (A) (A) (A) (A) (A) (A)
       Virtual   (A) (A) (A) (A) (A) (A) (A) (A) (A) (A) (A) (A)
                 (A) (A) (A) (A) (A) (A) (A) (A) (A) (A) (A) (A)
                 (A) (A) (A) (A) (A) (A) (A) (A) (A) (A) (A) (A)
                 (A) (A) (A) (A) (A) (A) (A) (A) (A) (A) (A) (A)
                 (A) (A) (A) (A) (A) (A) (A) (A) (A) (A) (A) (A)
                 (A) (A) (A) (A) (A) (A) (A) (A) (A) (A) (A) (A)
                 (A) (A) (A) (A) (A) (A) (A) (A) (A) (A) (A) (A)
                 (A) (A) (A) (A) (A) (A) (A) (A) (A) (A) (A) (A)
                 (A) (A) (A) (A) (A) (A) (A) (A) (A) (A) (A) (A)
                 (A) (A) (A) (A) (A) (A) (A) (A) (A) (A) (A) (A)
                 (A) (A) (A) (A) (A) (A) (A) (A) (A) (A) (A) (A)
                 (A) (A) (A) (A) (A) (A) (A) (A) (A) (A) (A) (A)
                 (A) (A) (A) (A) (A) (A) (A) (A) (A) (A) (A) (A)
                 (A) (A) (A) (A) (A) (A) (A) (A) (A) (A) (A) (A)
                 (A) (A) (A) (A) (A) (A) (A) (A) (A) (A) (A) (A)
                 (A) (A) (A) (A) (A) (A) (A) (A) (A) (A) (A) (A)
                 (A) (A) (A) (A) (A) (A) (A) (A) (A) (A) (A) (A)
                 (A) (A) (A) (A) (A) (A) (A) (A) (A) (A) (A) (A)
                 (A) (A) (A) (A) (A) (A) (A) (A) (A) (A) (A) (A)
                 (A) (A) (A) (A) (A) (A) (A) (A) (A) (A) (A) (A)
                 (A) (A) (A) (A) (A) (A) (A) (A) (A) (A) (A) (A)
                 (A) (A) (A) (A) (A) (A) (A) (A) (A) (A) (A) (A)
                 (A) (A) (A) (A) (A) (A) (A) (A) (A) (A) (A) (A)
                 (A) (A) (A) (A) (A) (A) (A) (A) (A) (A) (A) (A)
                 (A) (A) (A) (A) (A) (A) (A) (A) (A) (A) (A) (A)
                 (A) (A) (A) (A) (A) (A) (A) (A) (A) (A) (A) (A)
                 (A) (A) (A) (A) (A) (A) (A) (A) (A) (A) (A) (A)
                 (A) (A) (A) (A) (A) (A) (A) (A) (A) (A) (A) (A)
                 (A) (A) (A) (A) (A) (A) (A) (A) (A) (A) (A) (A)
                 (A) (A) (A) (A) (A) (A) (A) (A) (A) (A) (A) (A)
                 (A) (A) (A) (A) (A) (A) (A) (A) (A) (A) (A) (A)
                 (A) (A) (A) (A) (A) (A) (A) (A) (A) (A) (A) (A)
                 (A) (A) (A) (A) (A) (A) (A) (A) (A) (A) (A) (A)
                 (A) (A) (A) (A) (A) (A) (A) (A) (A) (A)
 The electronic state is 1-A.
 Alpha  occ. eigenvalues --  -88.98095 -88.93403 -88.89290 -88.88150 -19.14226
 Alpha  occ. eigenvalues --  -10.30947 -10.24939 -10.24532 -10.23684 -10.23629
 Alpha  occ. eigenvalues --  -10.23067 -10.22987 -10.22056 -10.22025 -10.21584
 Alpha  occ. eigenvalues --   -8.03860  -7.99961  -7.95395  -7.94093  -6.00293
 Alpha  occ. eigenvalues --   -5.99922  -5.99616  -5.96489  -5.95985  -5.95477
 Alpha  occ. eigenvalues --   -5.91855  -5.91583  -5.90901  -5.90649  -5.90215
 Alpha  occ. eigenvalues --   -5.89597  -1.04074  -0.91335  -0.87621  -0.83779
 Alpha  occ. eigenvalues --   -0.79983  -0.76493  -0.73021  -0.72119  -0.66129
 Alpha  occ. eigenvalues --   -0.64954  -0.61562  -0.60063  -0.57840  -0.56983
 Alpha  occ. eigenvalues --   -0.51358  -0.50231  -0.49458  -0.48685  -0.47363
 Alpha  occ. eigenvalues --   -0.44004  -0.43644  -0.42511  -0.41658  -0.41017
 Alpha  occ. eigenvalues --   -0.39618  -0.39405  -0.38587  -0.37843  -0.36373
 Alpha  occ. eigenvalues --   -0.35362  -0.34092  -0.30802  -0.27722  -0.26090
 Alpha  occ. eigenvalues --   -0.25392  -0.24450  -0.24000  -0.20129  -0.19739
 Alpha virt. eigenvalues --   -0.12562  -0.08180  -0.07579  -0.05809  -0.03141
 Alpha virt. eigenvalues --   -0.00705   0.01706   0.02216   0.03166   0.04332
 Alpha virt. eigenvalues --    0.05682   0.06398   0.07967   0.08369   0.11473
 Alpha virt. eigenvalues --    0.13393   0.13498   0.14752   0.15941   0.17460
 Alpha virt. eigenvalues --    0.18608   0.19797   0.21423   0.22052   0.23406
 Alpha virt. eigenvalues --    0.24140   0.25157   0.26187   0.26838   0.27848
 Alpha virt. eigenvalues --    0.28688   0.29330   0.30341   0.30969   0.31546
 Alpha virt. eigenvalues --    0.32562   0.33077   0.33713   0.34841   0.35695
 Alpha virt. eigenvalues --    0.36495   0.37113   0.37620   0.38620   0.38892
 Alpha virt. eigenvalues --    0.40783   0.41022   0.41327   0.41883   0.42773
 Alpha virt. eigenvalues --    0.43217   0.44081   0.45700   0.46079   0.47699
 Alpha virt. eigenvalues --    0.49712   0.50422   0.51280   0.52221   0.52384
 Alpha virt. eigenvalues --    0.52607   0.53506   0.54645   0.55124   0.56262
 Alpha virt. eigenvalues --    0.56687   0.58141   0.58678   0.59717   0.61570
 Alpha virt. eigenvalues --    0.61784   0.63098   0.64165   0.64876   0.65585
 Alpha virt. eigenvalues --    0.66194   0.66805   0.67988   0.69075   0.69911
 Alpha virt. eigenvalues --    0.70775   0.71539   0.72197   0.72505   0.72729
 Alpha virt. eigenvalues --    0.73476   0.74966   0.76163   0.76439   0.76978
 Alpha virt. eigenvalues --    0.77507   0.78640   0.79194   0.80129   0.80842
 Alpha virt. eigenvalues --    0.81688   0.81805   0.83139   0.84249   0.84784
 Alpha virt. eigenvalues --    0.85358   0.86274   0.86800   0.88204   0.88882
 Alpha virt. eigenvalues --    0.90184   0.91986   0.93228   0.94110   0.95946
 Alpha virt. eigenvalues --    0.96287   0.97294   0.97658   1.00872   1.01423
 Alpha virt. eigenvalues --    1.02124   1.03945   1.06204   1.06917   1.07531
 Alpha virt. eigenvalues --    1.08851   1.09947   1.10585   1.14018   1.16575
 Alpha virt. eigenvalues --    1.17898   1.18942   1.20477   1.22455   1.23960
 Alpha virt. eigenvalues --    1.25146   1.27457   1.28427   1.28983   1.31154
 Alpha virt. eigenvalues --    1.31967   1.34103   1.34659   1.35153   1.37087
 Alpha virt. eigenvalues --    1.37942   1.39388   1.40088   1.40764   1.42528
 Alpha virt. eigenvalues --    1.43585   1.44878   1.45331   1.46732   1.49819
 Alpha virt. eigenvalues --    1.51337   1.51489   1.53304   1.54128   1.54991
 Alpha virt. eigenvalues --    1.55787   1.56577   1.57347   1.58463   1.60377
 Alpha virt. eigenvalues --    1.61088   1.62625   1.63288   1.64123   1.65158
 Alpha virt. eigenvalues --    1.65822   1.66801   1.67469   1.68605   1.69896
 Alpha virt. eigenvalues --    1.70875   1.71890   1.72982   1.74831   1.76203
 Alpha virt. eigenvalues --    1.77042   1.79258   1.79976   1.80700   1.81715
 Alpha virt. eigenvalues --    1.83052   1.83944   1.86294   1.87558   1.88653
 Alpha virt. eigenvalues --    1.89985   1.91174   1.92319   1.92598   1.92821
 Alpha virt. eigenvalues --    1.94941   1.95922   1.98348   1.98970   2.00414
 Alpha virt. eigenvalues --    2.03442   2.03857   2.04810   2.07225   2.08333
 Alpha virt. eigenvalues --    2.10267   2.11706   2.14677   2.15036   2.17282
 Alpha virt. eigenvalues --    2.19292   2.20004   2.23206   2.24316   2.25813
 Alpha virt. eigenvalues --    2.26749   2.27508   2.28582   2.29113   2.30841
 Alpha virt. eigenvalues --    2.33010   2.34424   2.35792   2.36356   2.39478
 Alpha virt. eigenvalues --    2.40231   2.41104   2.43597   2.44143   2.46824
 Alpha virt. eigenvalues --    2.48874   2.50008   2.50689   2.53192   2.56262
 Alpha virt. eigenvalues --    2.58195   2.60481   2.62492   2.62925   2.64511
 Alpha virt. eigenvalues --    2.67196   2.70394   2.70786   2.71750   2.73445
 Alpha virt. eigenvalues --    2.75419   2.77041   2.78891   2.80229   2.81954
 Alpha virt. eigenvalues --    2.83436   2.85296   2.86928   2.88630   2.90612
 Alpha virt. eigenvalues --    2.92087   2.93541   2.95052   2.96310   2.98195
 Alpha virt. eigenvalues --    3.00075   3.00673   3.01327   3.02110   3.04982
 Alpha virt. eigenvalues --    3.06447   3.07226   3.08621   3.09463   3.10270
 Alpha virt. eigenvalues --    3.12757   3.14043   3.16024   3.17861   3.18664
 Alpha virt. eigenvalues --    3.19572   3.21127   3.21538   3.22246   3.23916
 Alpha virt. eigenvalues --    3.24883   3.26268   3.26764   3.28679   3.28992
 Alpha virt. eigenvalues --    3.30980   3.31854   3.33718   3.34455   3.35990
 Alpha virt. eigenvalues --    3.37402   3.39179   3.40480   3.42751   3.46454
 Alpha virt. eigenvalues --    3.48627   3.49345   3.50899   3.54848   3.56150
 Alpha virt. eigenvalues --    3.57859   3.59531   3.61346   3.64432   3.68342
 Alpha virt. eigenvalues --    3.69860   3.70954   3.73286   3.74292   3.76022
 Alpha virt. eigenvalues --    3.76959   3.78555   3.79812   3.88490   3.89191
 Alpha virt. eigenvalues --    3.92561   3.97243   3.98037   3.98947   4.02691
 Alpha virt. eigenvalues --    4.04296   4.06027   4.07340   4.10946   4.13240
 Alpha virt. eigenvalues --    4.17220   4.18506   4.20348   4.23192   4.25164
 Alpha virt. eigenvalues --    4.26087   4.26571   4.26863   4.28839   4.32170
 Alpha virt. eigenvalues --    4.33338   4.35692   4.40232   4.41962   4.42900
 Alpha virt. eigenvalues --    4.43783   4.45536   4.47729   4.48189   4.50630
 Alpha virt. eigenvalues --    4.51745   4.52040   4.54905   4.56993   4.58032
 Alpha virt. eigenvalues --    4.58237   4.60004   4.61656   4.63695   4.65134
 Alpha virt. eigenvalues --    4.67356   4.67925   4.68941   4.70699   4.72646
 Alpha virt. eigenvalues --    4.76818   4.77182   4.80283   4.81289   4.83542
 Alpha virt. eigenvalues --    4.86502   4.87960   4.88813   4.90187   4.91477
 Alpha virt. eigenvalues --    4.97776   4.98119   5.00438   5.02253   5.05412
 Alpha virt. eigenvalues --    5.08142   5.09975   5.11601   5.13592   5.16634
 Alpha virt. eigenvalues --    5.19722   5.21660   5.25146   5.30773   5.33487
 Alpha virt. eigenvalues --    5.37650   5.39167   5.46004   5.50604   5.55718
 Alpha virt. eigenvalues --    5.59599   5.62953   5.70981   5.74385   5.80370
 Alpha virt. eigenvalues --    6.02686   6.32436   6.36528   6.39886   6.80637
 Alpha virt. eigenvalues --   10.28341  10.46424  10.79955  11.05535  11.27321
 Alpha virt. eigenvalues --   11.33357  11.62235  11.77471  11.98416  12.15696
 Alpha virt. eigenvalues --   13.07202
          Condensed to atoms (all electrons):
               1          2          3          4          5          6
     1  O    7.684396   0.738930  -0.061872   0.004116   0.000551  -0.004154
     2  C    0.738930   4.387990   0.341091   0.009240  -0.017872  -0.009335
     3  C   -0.061872   0.341091   5.069391   0.572425  -0.038443  -0.000617
     4  C    0.004116   0.009240   0.572425   4.923414   0.288997  -0.014921
     5  S    0.000551  -0.017872  -0.038443   0.288997  15.747868   0.104361
     6  S   -0.004154  -0.009335  -0.000617  -0.014921   0.104361  15.559318
     7  C    0.000019  -0.001667   0.001032  -0.000680  -0.034515   0.295780
     8  C   -0.000003   0.000376  -0.000021  -0.000048   0.003406  -0.043962
     9  C   -0.000000   0.000002  -0.000001   0.000002  -0.000043   0.002044
    10  C    0.000000  -0.000001  -0.000000   0.000000  -0.000003  -0.000123
    11  C    0.000000  -0.000000   0.000000  -0.000000  -0.000002   0.000020
    12  S   -0.000000  -0.000002   0.000000  -0.000000  -0.000002  -0.000099
    13  S    0.000019   0.000511  -0.000007  -0.000002  -0.000152   0.001411
    14  C   -0.002555  -0.015338   0.003440  -0.000076   0.002250  -0.037240
    15  C   -0.066521   0.308807  -0.074930  -0.000506   0.020368   0.014613
    16  H   -0.000001  -0.025908   0.358760  -0.048174   0.007643  -0.000737
    17  H   -0.000053   0.002614  -0.021385   0.363251  -0.052392   0.003981
    18  H    0.000000  -0.000128   0.000081  -0.000108   0.001120  -0.038124
    19  H    0.000001  -0.000016   0.000002  -0.000005   0.000540  -0.003841
    20  H   -0.000000   0.000000   0.000000  -0.000000  -0.000063   0.000400
    21  H    0.000000  -0.000000   0.000000  -0.000000  -0.000001   0.000043
    22  H    0.000000  -0.000000   0.000000  -0.000000  -0.000000   0.000000
    23  H    0.000416  -0.002036   0.000019  -0.000011   0.000175  -0.000903
               7          8          9         10         11         12
     1  O    0.000019  -0.000003  -0.000000   0.000000   0.000000  -0.000000
     2  C   -0.001667   0.000376   0.000002  -0.000001  -0.000000  -0.000002
     3  C    0.001032  -0.000021  -0.000001  -0.000000   0.000000   0.000000
     4  C   -0.000680  -0.000048   0.000002   0.000000  -0.000000  -0.000000
     5  S   -0.034515   0.003406  -0.000043  -0.000003  -0.000002  -0.000002
     6  S    0.295780  -0.043962   0.002044  -0.000123   0.000020  -0.000099
     7  C    5.119197   0.531544  -0.019134   0.000356  -0.000494   0.000602
     8  C    0.531544   4.691410   0.540066  -0.005469  -0.002102  -0.000924
     9  C   -0.019134   0.540066   4.811670   0.506879  -0.036892  -0.011410
    10  C    0.000356  -0.005469   0.506879   4.822102   0.547727  -0.076678
    11  C   -0.000494  -0.002102  -0.036892   0.547727   4.954993   0.355562
    12  S    0.000602  -0.000924  -0.011410  -0.076678   0.355562  15.875628
    13  S   -0.000166   0.003698   0.004776  -0.016287  -0.024961   0.043269
    14  C   -0.017187  -0.009704   0.004236   0.002056  -0.001145  -0.006573
    15  C   -0.039260  -0.012059  -0.002252   0.000493   0.000040   0.000085
    16  H   -0.000009   0.000000   0.000000   0.000000  -0.000000  -0.000000
    17  H   -0.000025   0.000001  -0.000000   0.000000   0.000000   0.000000
    18  H    0.373324  -0.030597  -0.004449   0.000164  -0.000003   0.000009
    19  H   -0.048712   0.381262  -0.042399  -0.010423   0.001215  -0.000063
    20  H   -0.007189  -0.031268   0.369027  -0.034842  -0.001495   0.000198
    21  H    0.000851  -0.008860  -0.048624   0.378352  -0.043567  -0.007627
    22  H    0.000002   0.000615  -0.009481  -0.045105   0.358804  -0.039004
    23  H    0.001047  -0.003127  -0.000557  -0.000251   0.000131   0.001915
              13         14         15         16         17         18
     1  O    0.000019  -0.002555  -0.066521  -0.000001  -0.000053   0.000000
     2  C    0.000511  -0.015338   0.308807  -0.025908   0.002614  -0.000128
     3  C   -0.000007   0.003440  -0.074930   0.358760  -0.021385   0.000081
     4  C   -0.000002  -0.000076  -0.000506  -0.048174   0.363251  -0.000108
     5  S   -0.000152   0.002250   0.020368   0.007643  -0.052392   0.001120
     6  S    0.001411  -0.037240   0.014613  -0.000737   0.003981  -0.038124
     7  C   -0.000166  -0.017187  -0.039260  -0.000009  -0.000025   0.373324
     8  C    0.003698  -0.009704  -0.012059   0.000000   0.000001  -0.030597
     9  C    0.004776   0.004236  -0.002252   0.000000  -0.000000  -0.004449
    10  C   -0.016287   0.002056   0.000493   0.000000   0.000000   0.000164
    11  C   -0.024961  -0.001145   0.000040  -0.000000   0.000000  -0.000003
    12  S    0.043269  -0.006573   0.000085  -0.000000   0.000000   0.000009
    13  S   15.903337   0.299090  -0.020027   0.000000  -0.000000  -0.000099
    14  C    0.299090   5.124576   0.502524  -0.000042   0.000002   0.000634
    15  C   -0.020027   0.502524   5.552161   0.003606  -0.000227   0.001989
    16  H    0.000000  -0.000042   0.003606   0.581565  -0.010992  -0.000001
    17  H   -0.000000   0.000002  -0.000227  -0.010992   0.565852  -0.000016
    18  H   -0.000099   0.000634   0.001989  -0.000001  -0.000016   0.522577
    19  H   -0.001337   0.004795  -0.000896  -0.000000   0.000000   0.004160
    20  H    0.000695  -0.000106  -0.000071   0.000000   0.000000   0.003289
    21  H   -0.004786   0.000246   0.000064  -0.000000   0.000000  -0.000004
    22  H    0.000405  -0.000043   0.000002  -0.000000   0.000000  -0.000003
    23  H   -0.049926   0.363769  -0.052818   0.000001  -0.000000   0.000015
              19         20         21         22         23
     1  O    0.000001  -0.000000   0.000000   0.000000   0.000416
     2  C   -0.000016   0.000000  -0.000000  -0.000000  -0.002036
     3  C    0.000002   0.000000   0.000000   0.000000   0.000019
     4  C   -0.000005  -0.000000  -0.000000  -0.000000  -0.000011
     5  S    0.000540  -0.000063  -0.000001  -0.000000   0.000175
     6  S   -0.003841   0.000400   0.000043   0.000000  -0.000903
     7  C   -0.048712  -0.007189   0.000851   0.000002   0.001047
     8  C    0.381262  -0.031268  -0.008860   0.000615  -0.003127
     9  C   -0.042399   0.369027  -0.048624  -0.009481  -0.000557
    10  C   -0.010423  -0.034842   0.378352  -0.045105  -0.000251
    11  C    0.001215  -0.001495  -0.043567   0.358804   0.000131
    12  S   -0.000063   0.000198  -0.007627  -0.039004   0.001915
    13  S   -0.001337   0.000695  -0.004786   0.000405  -0.049926
    14  C    0.004795  -0.000106   0.000246  -0.000043   0.363769
    15  C   -0.000896  -0.000071   0.000064   0.000002  -0.052818
    16  H   -0.000000   0.000000  -0.000000  -0.000000   0.000001
    17  H    0.000000   0.000000   0.000000   0.000000  -0.000000
    18  H    0.004160   0.003289  -0.000004  -0.000003   0.000015
    19  H    0.573722   0.004743   0.004081   0.000003   0.002456
    20  H    0.004743   0.548624   0.004042   0.002975   0.000005
    21  H    0.004081   0.004042   0.578656   0.006648   0.000674
    22  H    0.000003   0.002975   0.006648   0.589002   0.000003
    23  H    0.002456   0.000005   0.000674   0.000003   0.591132
 Mulliken charges:
               1
     1  O   -0.293289
     2  C    0.282740
     3  C   -0.148965
     4  C   -0.096913
     5  S   -0.033791
     6  S    0.172087
     7  C   -0.154716
     8  C   -0.004234
     9  C   -0.063459
    10  C   -0.068947
    11  C   -0.107832
    12  S   -0.134885
    13  S   -0.139460
    14  C   -0.217608
    15  C   -0.135183
    16  H    0.134289
    17  H    0.149390
    18  H    0.166171
    19  H    0.130711
    20  H    0.141035
    21  H    0.139811
    22  H    0.135177
    23  H    0.147873
 Sum of Mulliken charges =  -0.00000
 Mulliken charges with hydrogens summed into heavy atoms:
               1
     1  O   -0.293289
     2  C    0.282740
     3  C   -0.014676
     4  C    0.052477
     5  S   -0.033791
     6  S    0.172087
     7  C    0.011456
     8  C    0.126477
     9  C    0.077577
    10  C    0.070863
    11  C    0.027344
    12  S   -0.134885
    13  S   -0.139460
    14  C   -0.069735
    15  C   -0.135183
 Electronic spatial extent (au):  <R**2>=           5193.8990
 Charge=             -0.0000 electrons
 Dipole moment (field-independent basis, Debye):
    X=              2.7735    Y=             -5.8406    Z=             -0.7120  Tot=              6.5048
 Quadrupole moment (field-independent basis, Debye-Ang):
   XX=           -109.1339   YY=           -125.0044   ZZ=           -111.2794
   XY=              2.8548   XZ=             -4.3779   YZ=              2.6779
 Traceless Quadrupole moment (field-independent basis, Debye-Ang):
   XX=              6.0053   YY=             -9.8651   ZZ=              3.8599
   XY=              2.8548   XZ=             -4.3779   YZ=              2.6779
 Octapole moment (field-independent basis, Debye-Ang**2):
  XXX=            108.6750  YYY=            -24.7751  ZZZ=              5.1188  XYY=            -11.4568
  XXY=            -33.4691  XXZ=            -34.4715  XZZ=              2.1307  YZZ=             -6.0003
  YYZ=            -13.4745  XYZ=            -12.9383
 Hexadecapole moment (field-independent basis, Debye-Ang**3):
 XXXX=          -5006.2043 YYYY=          -1615.1201 ZZZZ=           -319.5513 XXXY=             75.0463
 XXXZ=            -84.1694 YYYX=            -44.9696 YYYZ=             -0.7785 ZZZX=             11.5542
 ZZZY=             22.3173 XXYY=          -1172.1654 XXZZ=           -911.8741 YYZZ=           -292.7134
 XXYZ=             24.7334 YYXZ=            -16.9843 ZZXY=             13.9849
 N-N= 1.402601416832D+03 E-N=-7.660295792520D+03  KE= 2.045129421484D+03
 PrsmSu:  requested number of processors reduced to:  13 ShMem   1 Linda.
 Calling FoFJK, ICntrl=      2127 FMM=F ISym2X=0 I1Cent= 0 IOpClX= 0 NMat=1 NMatS=1 NMatT=0.
 ***** Axes restored to original set *****
 -------------------------------------------------------------------
 Center     Atomic                   Forces (Hartrees/Bohr)
 Number     Number              X              Y              Z
 -------------------------------------------------------------------
      1        8           0.029183786   -0.002593946   -0.018863301
      2        6          -0.001261862   -0.003979992   -0.004806292
      3        6          -0.012641136   -0.004882982   -0.002904126
      4        6          -0.029095819    0.008516715    0.000661451
      5       16           0.050980096    0.019647785    0.013956878
      6       16           0.012574762   -0.022333585   -0.019400048
      7        6          -0.002928414   -0.035001878    0.025390783
      8        6           0.007798997    0.071740804    0.005143323
      9        6           0.001552719   -0.056022308    0.005819819
     10        6           0.013411609    0.029716616    0.015477319
     11        6          -0.041116935   -0.013282548   -0.033965821
     12       16           0.012615334    0.000197948   -0.009038066
     13       16           0.002289609    0.029651068    0.038569757
     14        6          -0.014090158    0.036684050   -0.018619564
     15        6          -0.043449824   -0.021328249   -0.001016780
     16        1          -0.008925959   -0.007704200   -0.007137087
     17        1          -0.004538604   -0.004706142   -0.000679650
     18        1          -0.009905250   -0.001587979    0.016217058
     19        1           0.011156600   -0.004757207    0.001152441
     20        1           0.009877257   -0.005944352   -0.002677815
     21        1           0.016025242   -0.005040068    0.000494180
     22        1          -0.010300500   -0.003373733   -0.002500881
     23        1           0.010788451   -0.003615815   -0.001273577
 -------------------------------------------------------------------
 Cartesian Forces:  Max     0.071740804 RMS     0.020662972

 GradGradGradGradGradGradGradGradGradGradGradGradGradGradGradGradGradGrad
 Berny optimization.
 FormGI is forming the generalized inverse of G from B-inverse, IUseBI=4.
 Internal  Forces:  Max     0.056585145 RMS     0.017171778
 Search for a local minimum.
 Step number   1 out of a maximum of  119
 All quantities printed in internal units (Hartrees-Bohrs-Radians)
 Mixed Optimization -- RFO/linear search
 Second derivative matrix not updated -- first step.
 ITU=  0
     Eigenvalues ---    0.00230   0.00844   0.00991   0.01109   0.01407
     Eigenvalues ---    0.01470   0.01550   0.01896   0.02158   0.02292
     Eigenvalues ---    0.02514   0.02626   0.02639   0.02681   0.03053
     Eigenvalues ---    0.03346   0.04325   0.04892   0.05263   0.08869
     Eigenvalues ---    0.11732   0.12069   0.13065   0.13663   0.14328
     Eigenvalues ---    0.14722   0.15119   0.15424   0.15819   0.15858
     Eigenvalues ---    0.15909   0.15961   0.16584   0.17823   0.19235
     Eigenvalues ---    0.20411   0.21758   0.22023   0.22159   0.22194
     Eigenvalues ---    0.22539   0.23035   0.25000   0.25831   0.28708
     Eigenvalues ---    0.29915   0.33436   0.33492   0.34017   0.34179
     Eigenvalues ---    0.34359   0.34414   0.34770   0.35513   0.35984
     Eigenvalues ---    0.37157   0.37903   0.42111   0.44785   0.54077
     Eigenvalues ---    0.54956   0.57384   0.92756
 RFO step:  Lambda=-1.05360615D-01 EMin= 2.30053225D-03
 Linear search not attempted -- first point.
 Maximum step size (   0.300) exceeded in Quadratic search.
    -- Step size scaled by   0.635
 Iteration  1 RMS(Cart)=  0.11030379 RMS(Int)=  0.00290768
 Iteration  2 RMS(Cart)=  0.00539754 RMS(Int)=  0.00071736
 Iteration  3 RMS(Cart)=  0.00000865 RMS(Int)=  0.00071734
 Iteration  4 RMS(Cart)=  0.00000001 RMS(Int)=  0.00071734
 Variable       Old X    -DE/DX   Delta X   Delta X   Delta X     New X
                                 (Linear)    (Quad)   (Total)
    R1        2.31688  -0.03378   0.00000  -0.02076  -0.02076   2.29612
    R2        2.96628  -0.03238   0.00000  -0.05976  -0.06009   2.90619
    R3        3.05956  -0.04478   0.00000  -0.08857  -0.08900   2.97056
    R4        2.53272   0.00234   0.00000   0.00112   0.00115   2.53387
    R5        2.06050  -0.00234   0.00000  -0.00327  -0.00327   2.05722
    R6        3.17851   0.03965   0.00000   0.05270   0.05311   3.23162
    R7        2.07029  -0.00608   0.00000  -0.00864  -0.00864   2.06165
    R8        3.78606   0.03907   0.00000   0.05834   0.05868   3.84474
    R9        3.31333  -0.00916   0.00000  -0.00715  -0.00686   3.30647
   R10        3.89221   0.03558   0.00000   0.08905   0.08841   3.98062
   R11        2.64845  -0.01890   0.00000  -0.01524  -0.01512   2.63333
   R12        2.08292  -0.01651   0.00000  -0.02384  -0.02384   2.05909
   R13        2.54807   0.04239   0.00000   0.04655   0.04702   2.59509
   R14        2.04850  -0.00276   0.00000  -0.00380  -0.00380   2.04469
   R15        2.67765  -0.00776   0.00000  -0.00302  -0.00283   2.67482
   R16        2.04106   0.00106   0.00000   0.00144   0.00144   2.04250
   R17        2.52399   0.05503   0.00000   0.05624   0.05683   2.58082
   R18        2.07302  -0.00776   0.00000  -0.01105  -0.01105   2.06196
   R19        3.33979  -0.01330   0.00000  -0.01995  -0.01976   3.32003
   R20        2.06636  -0.00400   0.00000  -0.00565  -0.00565   2.06071
   R21        4.44508   0.00506   0.00000  -0.00135  -0.00147   4.44362
   R22        3.71181  -0.04340   0.00000  -0.11661  -0.11716   3.59465
   R23        2.73222  -0.05659   0.00000  -0.08029  -0.08049   2.65173
   R24        2.06729  -0.00278   0.00000  -0.00393  -0.00393   2.06336
    A1        2.03570   0.00024   0.00000   0.00035   0.00063   2.03633
    A2        2.14140  -0.01203   0.00000  -0.02158  -0.02129   2.12011
    A3        2.10607   0.01175   0.00000   0.02109   0.02021   2.12628
    A4        2.32322   0.00104   0.00000  -0.00033  -0.00114   2.32208
    A5        1.99783  -0.01351   0.00000  -0.03110  -0.03076   1.96706
    A6        1.95456   0.01270   0.00000   0.03204   0.03248   1.98704
    A7        2.17339   0.01633   0.00000   0.03492   0.03489   2.20828
    A8        2.14139  -0.01044   0.00000  -0.02290  -0.02299   2.11839
    A9        1.96380  -0.00546   0.00000  -0.01030  -0.01033   1.95347
   A10        1.81398  -0.02402   0.00000  -0.02814  -0.02718   1.78680
   A11        1.57516   0.01751   0.00000   0.05231   0.05329   1.62845
   A12        1.96943  -0.00323   0.00000  -0.01297  -0.01462   1.95481
   A13        1.48715   0.01324   0.00000   0.05157   0.05065   1.53780
   A14        1.86776   0.01691   0.00000   0.04828   0.04741   1.91517
   A15        2.22923  -0.02020   0.00000  -0.05304  -0.05310   2.17613
   A16        2.17628   0.00105   0.00000  -0.00276  -0.00330   2.17297
   A17        2.03747   0.02199   0.00000   0.04804   0.04808   2.08555
   A18        2.06016  -0.00945   0.00000  -0.02065  -0.02100   2.03915
   A19        2.13593  -0.01615   0.00000  -0.03688  -0.03693   2.09899
   A20        1.91368   0.01723   0.00000   0.04765   0.04684   1.96052
   A21        2.11433  -0.00777   0.00000  -0.02313  -0.02331   2.09101
   A22        2.19533  -0.01601   0.00000  -0.04414  -0.04457   2.15076
   A23        2.02470   0.00366   0.00000   0.02678   0.02725   2.05195
   A24        2.01508  -0.00039   0.00000  -0.00302  -0.00360   2.01148
   A25        2.00700  -0.00534   0.00000  -0.01127  -0.01136   1.99564
   A26        1.85080   0.00962   0.00000   0.04371   0.04339   1.89418
   A27        2.08550   0.00606   0.00000   0.01482   0.01512   2.10062
   A28        2.21474  -0.01507   0.00000  -0.04104  -0.04178   2.17297
   A29        1.77227   0.00989   0.00000   0.01295   0.01089   1.78316
   A30        2.15075   0.00919   0.00000  -0.00270  -0.00449   2.14626
   A31        2.18820  -0.01446   0.00000  -0.03775  -0.03764   2.15057
   A32        1.93586   0.00484   0.00000   0.01332   0.01335   1.94921
   A33        2.14443   0.00880   0.00000   0.02329   0.02334   2.16777
   A34        1.62748   0.01103   0.00000   0.03522   0.03604   1.66352
   A35        2.31967  -0.02199   0.00000  -0.05219  -0.05177   2.26789
   A36        1.87129   0.00639   0.00000   0.01475   0.01467   1.88596
    D1        2.61373   0.00393   0.00000   0.01453   0.01449   2.62822
    D2       -0.38244   0.00101   0.00000   0.00666   0.00688  -0.37556
    D3       -0.53342  -0.00195   0.00000  -0.01274  -0.01236  -0.54577
    D4        2.75360  -0.00486   0.00000  -0.02061  -0.01997   2.73364
    D5       -2.19610  -0.00886   0.00000  -0.04410  -0.04337  -2.23947
    D6       -0.15012   0.00046   0.00000  -0.01288  -0.01345  -0.16357
    D7        0.95139  -0.00267   0.00000  -0.01521  -0.01532   0.93607
    D8        2.99737   0.00666   0.00000   0.01601   0.01460   3.01197
    D9       -0.09757   0.00393   0.00000   0.02278   0.02340  -0.07416
   D10       -3.12832  -0.00080   0.00000   0.00288   0.00330  -3.12503
   D11        2.90129   0.00516   0.00000   0.02661   0.02712   2.92841
   D12       -0.12946   0.00043   0.00000   0.00671   0.00702  -0.12245
   D13       -0.04756  -0.00454   0.00000  -0.00760  -0.00721  -0.05478
   D14        2.99309  -0.00068   0.00000   0.00946   0.01024   3.00333
   D15        2.10204   0.00739   0.00000   0.02499   0.02356   2.12560
   D16        0.62019  -0.01449   0.00000  -0.05352  -0.05306   0.56712
   D17        2.78655   0.01546   0.00000   0.05071   0.05026   2.83681
   D18       -0.50177  -0.00029   0.00000  -0.00305  -0.00336  -0.50512
   D19       -1.52612   0.01025   0.00000   0.03144   0.03339  -1.49273
   D20        1.46875  -0.00550   0.00000  -0.02232  -0.02022   1.44852
   D21       -1.00563   0.01081   0.00000   0.04960   0.04953  -0.95610
   D22        2.88627   0.02723   0.00000   0.08411   0.08267   2.96894
   D23       -2.54586  -0.01419   0.00000  -0.03050  -0.02990  -2.57576
   D24        1.34604   0.00223   0.00000   0.00401   0.00324   1.34928
   D25        2.76991  -0.02805   0.00000  -0.09020  -0.09115   2.67876
   D26       -0.04678  -0.01356   0.00000  -0.05316  -0.05359  -0.10037
   D27       -0.23057  -0.01058   0.00000  -0.03297  -0.03236  -0.26293
   D28       -3.04726   0.00390   0.00000   0.00407   0.00520  -3.04207
   D29       -2.83303   0.03104   0.00000   0.09901   0.10005  -2.73298
   D30       -0.03633   0.01001   0.00000   0.03678   0.03723   0.00089
   D31       -0.03158   0.01766   0.00000   0.06448   0.06515   0.03357
   D32        2.76512  -0.00336   0.00000   0.00225   0.00233   2.76744
   D33        2.58444  -0.02998   0.00000  -0.09178  -0.09140   2.49305
   D34        0.16120  -0.02510   0.00000  -0.10308  -0.10274   0.05846
   D35       -0.19240  -0.01025   0.00000  -0.03245  -0.03224  -0.22464
   D36       -2.61564  -0.00537   0.00000  -0.04375  -0.04358  -2.65922
   D37       -1.96650   0.00495   0.00000  -0.01766  -0.01728  -1.98378
   D38        0.68078   0.00120   0.00000  -0.00041   0.00055   0.68133
   D39        0.46006   0.00211   0.00000  -0.00312  -0.00304   0.45702
   D40        3.10734  -0.00164   0.00000   0.01414   0.01479   3.12213
   D41        1.07501   0.00167   0.00000   0.04053   0.04071   1.11573
   D42       -1.52397  -0.00302   0.00000  -0.00240  -0.00096  -1.52493
   D43       -1.31672  -0.00599   0.00000  -0.00862  -0.00708  -1.32380
   D44        2.44253   0.00543   0.00000   0.00679   0.00546   2.44799
   D45       -0.87889   0.00170   0.00000   0.00320   0.00314  -0.87575
   D46        2.09195  -0.01765   0.00000  -0.06962  -0.06813   2.02382
   D47       -2.24250  -0.00898   0.00000  -0.03565  -0.03453  -2.27703
   D48       -0.84939  -0.01270   0.00000  -0.06359  -0.06342  -0.91281
   D49        1.09935  -0.00403   0.00000  -0.02961  -0.02982   1.06952
         Item               Value     Threshold  Converged?
 Maximum Force            0.056585     0.000450     NO 
 RMS     Force            0.017172     0.000300     NO 
 Maximum Displacement     0.379390     0.001800     NO 
 RMS     Displacement     0.109945     0.001200     NO 
 Predicted change in Energy=-5.477434D-02
 GradGradGradGradGradGradGradGradGradGradGradGradGradGradGradGradGradGrad

                          Input orientation:                          
 ---------------------------------------------------------------------
 Center     Atomic      Atomic             Coordinates (Angstroms)
 Number     Number       Type             X           Y           Z
 ---------------------------------------------------------------------
      1          8           0        0.808102   -0.516958   -0.339566
      2          6           0        1.974861   -0.488197   -0.677508
      3          6           0        2.731012    0.829163   -0.436881
      4          6           0        4.017777    1.113885   -0.189717
      5         16           0        5.283481   -0.012826    0.040419
      6         16           0        4.304016   -1.793727   -0.051400
      7          6           0        5.274206   -2.373632   -1.387033
      8          6           0        5.149205   -3.757437   -1.493314
      9          6           0        5.337556   -4.361666   -2.712037
     10          6           0        4.687593   -5.616230   -2.796459
     11          6           0        4.121306   -5.955508   -3.992024
     12         16           0        2.378232   -6.026639   -3.783981
     13         16           0        1.851135   -3.797483   -3.252564
     14          6           0        2.188408   -3.033101   -1.543659
     15          6           0        2.660330   -1.723478   -1.366889
     16          1           0        2.064655    1.684696   -0.341187
     17          1           0        4.352056    2.140158   -0.030811
     18          1           0        5.737509   -1.736161   -2.139532
     19          1           0        4.583919   -4.257769   -0.718166
     20          1           0        5.581471   -3.761553   -3.577253
     21          1           0        4.094573   -5.892883   -1.923312
     22          1           0        4.622006   -5.708649   -4.928779
     23          1           0        1.801572   -3.660143   -0.737817
 ---------------------------------------------------------------------
                    Distance matrix (angstroms):
                    1          2          3          4          5
     1  O    0.000000
     2  C    1.215055   0.000000
     3  C    2.349275   1.537889   0.000000
     4  C    3.603348   2.641611   1.340865   0.000000
     5  S    4.519686   3.418825   2.729810   1.710102   0.000000
     6  S    3.732907   2.742514   3.082611   2.924940   2.034549
     7  C    4.948789   3.865742   4.198633   3.895504   2.758824
     8  C    5.538683   4.629246   5.291559   5.168101   4.048762
     9  C    6.397370   5.518223   6.238197   6.171350   5.146974
    10  C    6.862168   6.176212   7.137150   7.248324   6.308811
    11  C    7.341362   6.744237   7.784839   8.027738   7.275075
    12  S    6.684750   6.362957   7.637378   8.160509   7.696262
    13  S    4.509469   4.194948   5.487085   6.180363   6.078516
    14  C    3.112243   2.696731   4.054190   4.730459   4.605523
    15  C    2.437587   1.571952   2.717699   3.358426   3.433332
    16  H    2.534997   2.200600   1.088635   2.040454   3.658968
    17  H    4.440181   3.602433   2.124002   1.090977   2.346907
    18  H    5.387522   4.225216   4.303363   3.857722   2.815708
    19  H    5.328583   4.584594   5.421186   5.427194   4.368567
    20  H    6.617784   5.668422   6.249938   6.139253   5.218170
    21  H    6.496900   5.937662   7.018167   7.218451   6.312274
    22  H    7.909512   7.234210   8.154507   8.328911   7.587679
    23  H    3.320421   3.177248   4.594375   5.291816   5.102182
                    6          7          8          9         10
     6  S    0.000000
     7  C    1.749706   0.000000
     8  C    2.578685   1.393497   0.000000
     9  C    3.839466   2.389964   1.373264   0.000000
    10  C    4.721653   3.583998   2.316546   1.415454   0.000000
    11  C    5.734311   4.576570   3.483051   2.378648   1.365711
    12  S    5.963082   5.241801   4.251438   3.560730   2.544952
    13  S    4.503234   4.150297   3.738158   3.572898   3.400201
    14  C    2.870311   3.159364   3.048526   3.612108   3.806309
    15  C    2.106455   2.693595   3.216748   3.992117   4.615949
    16  H    4.147065   5.278734   6.360711   7.272641   8.137056
    17  H    3.934233   4.802500   6.128294   7.101683   8.241539
    18  H    2.533479   1.089622   2.202103   2.716800   4.072937
    19  H    2.567961   2.115148   1.082006   2.134078   2.485049
    20  H    4.235076   2.611092   2.128303   1.080846   2.201928
    21  H    4.511208   3.750234   2.420181   2.124081   1.091144
    22  H    6.262312   4.908326   3.985924   2.690784   2.135329
    23  H    3.196389   3.759757   3.433203   4.110092   4.048876
                   11         12         13         14         15
    11  C    0.000000
    12  S    1.756887   0.000000
    13  S    3.218315   2.351462   0.000000
    14  C    4.274465   3.743841   1.902206   0.000000
    15  C    5.189977   4.943592   2.917543   1.403236   0.000000
    16  H    8.713848   8.450790   6.210957   4.870202   3.608676
    17  H    9.015779   9.202111   7.203463   5.807986   4.424334
    18  H    4.883312   5.691850   4.537818   3.825342   3.172723
    19  H    3.716783   4.170513   3.755415   2.814200   3.247102
    20  H    2.667875   3.928625   3.744612   4.022316   4.191960
    21  H    2.069833   2.534918   3.345239   3.457738   4.444164
    22  H    1.090481   2.538937   3.760316   4.953786   5.693577
    23  H    4.608658   3.900250   2.518982   1.091881   2.209947
                   16         17         18         19         20
    16  H    0.000000
    17  H    2.352867   0.000000
    18  H    5.331619   4.625153   0.000000
    19  H    6.465423   6.438920   3.116017   0.000000
    20  H    7.245809   6.994205   2.488695   3.068505   0.000000
    21  H    8.002711   8.256973   4.474855   2.089362   3.080415
    22  H    9.069046   9.255633   4.980453   4.453736   2.557026
    23  H    5.365988   6.375603   4.599795   2.845873   4.728670
                   21         22         23
    21  H    0.000000
    22  H    3.056953   0.000000
    23  H    3.412972   5.451182   0.000000
 Stoichiometry    C10H8OS4
 Framework group  C1[X(C10H8OS4)]
 Deg. of freedom    63
 Full point group                 C1      NOp   1
 Largest Abelian subgroup         C1      NOp   1
 Largest concise Abelian subgroup C1      NOp   1
                         Standard orientation:                         
 ---------------------------------------------------------------------
 Center     Atomic      Atomic             Coordinates (Angstroms)
 Number     Number       Type             X           Y           Z
 ---------------------------------------------------------------------
      1          8           0        2.183259    2.861139    0.528931
      2          6           0        2.144399    1.755708    0.026069
      3          6           0        3.460885    1.216225   -0.557818
      4          6           0        3.954577   -0.020830   -0.712358
      5         16           0        3.238504   -1.477185   -0.173177
      6         16           0        1.584041   -0.812850    0.807027
      7          6           0        0.491588   -1.731224   -0.205203
      8          6           0       -0.751006   -1.835087    0.416896
      9          6           0       -1.878551   -2.002761   -0.348860
     10          6           0       -3.050444   -1.572053    0.317973
     11          6           0       -4.013397   -0.956907   -0.430013
     12         16           0       -4.133283    0.719050    0.083257
     13         16           0       -2.014657    1.564863   -0.487178
     14          6           0       -0.446239    1.196274    0.524055
     15          6           0        0.803241    0.940397   -0.061093
     16          1           0        4.173250    2.006443   -0.788506
     17          1           0        4.940883   -0.188523   -1.147458
     18          1           0        0.687105   -2.001916   -1.242398
     19          1           0       -0.828077   -1.443185    1.422486
     20          1           0       -1.794326   -2.053653   -1.425218
     21          1           0       -2.889328   -1.124354    1.299911
     22          1           0       -4.241693   -1.312924   -1.435141
     23          1           0       -0.597873    1.388522    1.588128
 ---------------------------------------------------------------------
 Rotational constants (GHZ):           0.7750618           0.2448842           0.1959843
 Standard basis: 6-31G(2df,p) (6D, 7F)
 There are   521 symmetry adapted cartesian basis functions of A   symmetry.
 There are   476 symmetry adapted basis functions of A   symmetry.
   476 basis functions,   812 primitive gaussians,   521 cartesian basis functions
    70 alpha electrons       70 beta electrons
       nuclear repulsion energy      1398.1057073235 Hartrees.
 NAtoms=   23 NActive=   23 NUniq=   23 SFac= 1.00D+00 NAtFMM=   60 NAOKFM=F Big=F
 Integral buffers will be    131072 words long.
 Raffenetti 2 integral format.
 Two-electron integral symmetry is turned on.
 One-electron integrals computed using PRISM.
 PrsmSu:  requested number of processors reduced to:  12 ShMem   1 Linda.
 NBasis=   476 RedAO= T EigKep=  5.59D-04  NBF=   476
 NBsUse=   476 1.00D-06 EigRej= -1.00D+00 NBFU=   476
 Initial guess from the checkpoint file:  "OdC1CdCSS2dCCdCCdCSSCdC12.chk"
 B after Tr=     0.000000   -0.000000   -0.000000
         Rot=    0.999927   -0.011124    0.000972   -0.004712 Ang=  -1.39 deg.
 ExpMin= 1.17D-01 ExpMax= 2.19D+04 ExpMxC= 3.30D+03 IAcc=2 IRadAn=         4 AccDes= 0.00D+00
 Harris functional with IExCor=  402 and IRadAn=       4 diagonalized for initial guess.
 HarFok:  IExCor=  402 AccDes= 0.00D+00 IRadAn=         4 IDoV= 1 UseB2=F ITyADJ=14
 ICtDFT=  3500011 ScaDFX=  1.000000  1.000000  1.000000  1.000000
 FoFCou: FMM=F IPFlag=           0 FMFlag=      100000 FMFlg1=           0
         NFxFlg=           0 DoJE=T BraDBF=F KetDBF=T FulRan=T
         wScrn=  0.000000 ICntrl=       500 IOpCl=  0 I1Cent=   200000004 NGrid=           0
         NMat0=    1 NMatS0=      1 NMatT0=    0 NMatD0=    1 NMtDS0=    0 NMtDT0=    0
 Petite list used in FoFCou.
 Requested convergence on RMS density matrix=1.00D-08 within 128 cycles.
 Requested convergence on MAX density matrix=1.00D-06.
 Requested convergence on             energy=1.00D-06.
 No special actions if energy rises.
 Integral accuracy reduced to 1.0D-05 until final iterations.
 Initial convergence to 1.0D-05 achieved.  Increase integral accuracy.
 SCF Done:  E(RB3LYP) =  -2053.59457819     A.U. after   16 cycles
            NFock= 16  Conv=0.92D-08     -V/T= 2.0041
 PrsmSu:  requested number of processors reduced to:  13 ShMem   1 Linda.
 Calling FoFJK, ICntrl=      2127 FMM=F ISym2X=0 I1Cent= 0 IOpClX= 0 NMat=1 NMatS=1 NMatT=0.
 ***** Axes restored to original set *****
 -------------------------------------------------------------------
 Center     Atomic                   Forces (Hartrees/Bohr)
 Number     Number              X              Y              Z
 -------------------------------------------------------------------
      1        8           0.004319448   -0.000100377   -0.008306339
      2        6           0.012888026   -0.008579998   -0.011227845
      3        6          -0.003448238   -0.003775074   -0.001221460
      4        6          -0.022638779    0.003512194   -0.001100267
      5       16           0.027502144    0.014175694    0.009020173
      6       16           0.016970607   -0.018226145   -0.015386161
      7        6          -0.003478643   -0.029900591    0.021495533
      8        6           0.004720045    0.050720449   -0.001997166
      9        6          -0.006864101   -0.041778858    0.006823290
     10        6           0.007093322    0.028034824    0.002805903
     11        6          -0.032678975   -0.000915218   -0.011454384
     12       16           0.015076717   -0.002688824   -0.005747244
     13       16           0.004695476    0.027936925    0.033698941
     14        6          -0.013164641    0.013572802   -0.023141702
     15        6          -0.033526372   -0.002144437    0.000972306
     16        1          -0.004508917   -0.004592438   -0.005577309
     17        1          -0.001670733   -0.002657737    0.000391862
     18        1          -0.005911507    0.002041904    0.008299817
     19        1           0.008403164   -0.006485798    0.003389153
     20        1           0.010154089   -0.004938531   -0.002807011
     21        1           0.011759512   -0.006784335    0.001935198
     22        1          -0.006648987   -0.001460580   -0.001526225
     23        1           0.010957342   -0.004965852    0.000660936
 -------------------------------------------------------------------
 Cartesian Forces:  Max     0.050720449 RMS     0.015138648

 GradGradGradGradGradGradGradGradGradGradGradGradGradGradGradGradGradGrad
 Berny optimization.
 Using GEDIIS/GDIIS optimizer.
 FormGI is forming the generalized inverse of G from B-inverse, IUseBI=4.
 Internal  Forces:  Max     0.041243914 RMS     0.011212219
 Search for a local minimum.
 Step number   2 out of a maximum of  119
 All quantities printed in internal units (Hartrees-Bohrs-Radians)
 Mixed Optimization -- RFO/linear search
 Update second derivatives using D2CorX and points    1    2
 DE= -5.60D-02 DEPred=-5.48D-02 R= 1.02D+00
 TightC=F SS=  1.41D+00  RLast= 4.18D-01 DXNew= 5.0454D-01 1.2536D+00
 Trust test= 1.02D+00 RLast= 4.18D-01 DXMaxT set to 5.05D-01
 ITU=  1  0
 Use linear search instead of GDIIS.
 Linear search step of   0.568 exceeds DXMaxT=   0.505 but not scaled.
 Quartic linear search produced a step of  1.89193.
 Iteration  1 RMS(Cart)=  0.19612591 RMS(Int)=  0.01014753
 Iteration  2 RMS(Cart)=  0.01792697 RMS(Int)=  0.00360781
 Iteration  3 RMS(Cart)=  0.00008843 RMS(Int)=  0.00360733
 Iteration  4 RMS(Cart)=  0.00000036 RMS(Int)=  0.00360733
 Variable       Old X    -DE/DX   Delta X   Delta X   Delta X     New X
                                 (Linear)    (Quad)   (Total)
    R1        2.29612  -0.00646  -0.03928   0.00000  -0.03928   2.25684
    R2        2.90619  -0.01965  -0.11369   0.00000  -0.11541   2.79078
    R3        2.97056  -0.03458  -0.16838   0.00000  -0.17041   2.80015
    R4        2.53387  -0.00221   0.00217   0.00000   0.00216   2.53603
    R5        2.05722  -0.00134  -0.00619   0.00000  -0.00619   2.05103
    R6        3.23162   0.02408   0.10048   0.00000   0.10224   3.33387
    R7        2.06165  -0.00295  -0.01634   0.00000  -0.01634   2.04531
    R8        3.84474   0.02296   0.11103   0.00000   0.11280   3.95755
    R9        3.30647  -0.01078  -0.01298   0.00000  -0.01227   3.29420
   R10        3.98062   0.02568   0.16726   0.00000   0.16442   4.14505
   R11        2.63333  -0.01773  -0.02861   0.00000  -0.02855   2.60478
   R12        2.05909  -0.00705  -0.04510   0.00000  -0.04510   2.01399
   R13        2.59509   0.02107   0.08896   0.00000   0.09066   2.68575
   R14        2.04469   0.00104  -0.00720   0.00000  -0.00720   2.03750
   R15        2.67482  -0.01480  -0.00535   0.00000  -0.00464   2.67018
   R16        2.04250   0.00180   0.00273   0.00000   0.00273   2.04523
   R17        2.58082   0.02694   0.10751   0.00000   0.10992   2.69074
   R18        2.06196  -0.00312  -0.02092   0.00000  -0.02092   2.04105
   R19        3.32003  -0.01676  -0.03738   0.00000  -0.03659   3.28344
   R20        2.06071  -0.00207  -0.01069   0.00000  -0.01069   2.05002
   R21        4.44362   0.00320  -0.00277   0.00000  -0.00288   4.44074
   R22        3.59465  -0.04124  -0.22165   0.00000  -0.22381   3.37084
   R23        2.65173  -0.03258  -0.15227   0.00000  -0.15265   2.49909
   R24        2.06336  -0.00054  -0.00744   0.00000  -0.00744   2.05592
    A1        2.03633   0.00023   0.00119   0.00000   0.00243   2.03875
    A2        2.12011  -0.00564  -0.04029   0.00000  -0.03901   2.08110
    A3        2.12628   0.00529   0.03824   0.00000   0.03425   2.16053
    A4        2.32208   0.00100  -0.00215   0.00000  -0.00660   2.31548
    A5        1.96706  -0.00804  -0.05820   0.00000  -0.05628   1.91078
    A6        1.98704   0.00721   0.06144   0.00000   0.06379   2.05083
    A7        2.20828   0.01018   0.06602   0.00000   0.06529   2.27357
    A8        2.11839  -0.00562  -0.04350   0.00000  -0.04367   2.07472
    A9        1.95347  -0.00430  -0.01955   0.00000  -0.01954   1.93393
   A10        1.78680  -0.01220  -0.05142   0.00000  -0.04667   1.74013
   A11        1.62845   0.01173   0.10082   0.00000   0.10531   1.73376
   A12        1.95481  -0.00635  -0.02766   0.00000  -0.03533   1.91948
   A13        1.53780   0.00935   0.09583   0.00000   0.08972   1.62752
   A14        1.91517   0.00974   0.08970   0.00000   0.08328   1.99845
   A15        2.17613  -0.01436  -0.10046   0.00000  -0.09965   2.07649
   A16        2.17297   0.00237  -0.00625   0.00000  -0.00861   2.16436
   A17        2.08555   0.00976   0.09096   0.00000   0.09037   2.17591
   A18        2.03915  -0.00259  -0.03974   0.00000  -0.04105   1.99811
   A19        2.09899  -0.00936  -0.06988   0.00000  -0.06969   2.02930
   A20        1.96052   0.00724   0.08861   0.00000   0.08361   2.04413
   A21        2.09101  -0.00285  -0.04411   0.00000  -0.04455   2.04646
   A22        2.15076  -0.00860  -0.08432   0.00000  -0.08611   2.06466
   A23        2.05195   0.00173   0.05156   0.00000   0.05217   2.10412
   A24        2.01148   0.00122  -0.00680   0.00000  -0.00900   2.00249
   A25        1.99564  -0.00227  -0.02150   0.00000  -0.02150   1.97414
   A26        1.89418   0.00888   0.08209   0.00000   0.07923   1.97342
   A27        2.10062   0.00329   0.02860   0.00000   0.02980   2.13043
   A28        2.17297  -0.01063  -0.07904   0.00000  -0.08186   2.09111
   A29        1.78316   0.00329   0.02061   0.00000   0.01072   1.79389
   A30        2.14626   0.00033  -0.00850   0.00000  -0.01702   2.12924
   A31        2.15057  -0.01323  -0.07120   0.00000  -0.07011   2.08046
   A32        1.94921   0.00525   0.02527   0.00000   0.02526   1.97447
   A33        2.16777   0.00743   0.04416   0.00000   0.04414   2.21191
   A34        1.66352   0.01076   0.06819   0.00000   0.07147   1.73499
   A35        2.26789  -0.01253  -0.09795   0.00000  -0.09607   2.17183
   A36        1.88596   0.00013   0.02775   0.00000   0.02802   1.91398
    D1        2.62822   0.00309   0.02741   0.00000   0.02697   2.65518
    D2       -0.37556   0.00108   0.01301   0.00000   0.01402  -0.36154
    D3       -0.54577  -0.00114  -0.02338   0.00000  -0.02178  -0.56755
    D4        2.73364  -0.00315  -0.03778   0.00000  -0.03473   2.69891
    D5       -2.23947  -0.00609  -0.08205   0.00000  -0.07858  -2.31805
    D6       -0.16357  -0.00219  -0.02545   0.00000  -0.02845  -0.19201
    D7        0.93607  -0.00178  -0.02898   0.00000  -0.02953   0.90654
    D8        3.01197   0.00212   0.02762   0.00000   0.02061   3.03258
    D9       -0.07416   0.00359   0.04427   0.00000   0.04719  -0.02698
   D10       -3.12503   0.00005   0.00624   0.00000   0.00853  -3.11650
   D11        2.92841   0.00471   0.05131   0.00000   0.05343   2.98185
   D12       -0.12245   0.00117   0.01327   0.00000   0.01477  -0.10767
   D13       -0.05478  -0.00324  -0.01365   0.00000  -0.01128  -0.06606
   D14        3.00333  -0.00013   0.01937   0.00000   0.02343   3.02676
   D15        2.12560   0.00307   0.04457   0.00000   0.03656   2.16216
   D16        0.56712  -0.01142  -0.10039   0.00000  -0.09697   0.47016
   D17        2.83681   0.01215   0.09508   0.00000   0.09207   2.92888
   D18       -0.50512   0.00111  -0.00635   0.00000  -0.00875  -0.51387
   D19       -1.49273   0.00610   0.06317   0.00000   0.07336  -1.41936
   D20        1.44852  -0.00493  -0.03826   0.00000  -0.02746   1.42107
   D21       -0.95610   0.00820   0.09371   0.00000   0.09272  -0.86338
   D22        2.96894   0.01654   0.15641   0.00000   0.14868   3.11762
   D23       -2.57576  -0.00830  -0.05657   0.00000  -0.05320  -2.62896
   D24        1.34928   0.00004   0.00614   0.00000   0.00277   1.35204
   D25        2.67876  -0.01931  -0.17245   0.00000  -0.17726   2.50150
   D26       -0.10037  -0.01085  -0.10140   0.00000  -0.10339  -0.20377
   D27       -0.26293  -0.00595  -0.06123   0.00000  -0.05876  -0.32169
   D28       -3.04207   0.00250   0.00983   0.00000   0.01511  -3.02696
   D29       -2.73298   0.01943   0.18929   0.00000   0.19482  -2.53815
   D30        0.00089   0.00746   0.07043   0.00000   0.07276   0.07366
   D31        0.03357   0.01229   0.12326   0.00000   0.12658   0.16015
   D32        2.76744   0.00031   0.00440   0.00000   0.00452   2.77196
   D33        2.49305  -0.01765  -0.17291   0.00000  -0.17178   2.32127
   D34        0.05846  -0.01764  -0.19438   0.00000  -0.19282  -0.13436
   D35       -0.22464  -0.00694  -0.06099   0.00000  -0.06025  -0.28489
   D36       -2.65922  -0.00694  -0.08245   0.00000  -0.08130  -2.74052
   D37       -1.98378  -0.00044  -0.03270   0.00000  -0.03004  -2.01382
   D38        0.68133  -0.00053   0.00104   0.00000   0.00565   0.68699
   D39        0.45702   0.00091  -0.00575   0.00000  -0.00502   0.45200
   D40        3.12213   0.00082   0.02799   0.00000   0.03067  -3.13038
   D41        1.11573   0.00368   0.07703   0.00000   0.07642   1.19215
   D42       -1.52493  -0.00128  -0.00182   0.00000   0.00531  -1.51962
[...]
     Eigenvalues ---    0.15089   0.15229   0.15419   0.15730   0.15921
     Eigenvalues ---    0.15990   0.16090   0.17221   0.17400   0.18206
     Eigenvalues ---    0.19378   0.21275   0.21958   0.22237   0.22438
     Eigenvalues ---    0.23073   0.24076   0.25850   0.26255   0.26729
     Eigenvalues ---    0.28765   0.33689   0.34069   0.34147   0.34422
     Eigenvalues ---    0.34696   0.34804   0.34966   0.35635   0.36085
     Eigenvalues ---    0.36582   0.42534   0.43839   0.45398   0.49213
     Eigenvalues ---    0.55113   0.57034   0.94314
 RFO step:  Lambda=-1.32512198D-03 EMin= 9.58851977D-04
 Quartic linear search produced a step of  0.49844.
 Iteration  1 RMS(Cart)=  0.09108474 RMS(Int)=  0.01375263
 Iteration  2 RMS(Cart)=  0.01922006 RMS(Int)=  0.00079445
 Iteration  3 RMS(Cart)=  0.00010089 RMS(Int)=  0.00079286
 Iteration  4 RMS(Cart)=  0.00000013 RMS(Int)=  0.00079286
 Variable       Old X    -DE/DX   Delta X   Delta X   Delta X     New X
                                 (Linear)    (Quad)   (Total)
    R1        2.30314  -0.00085  -0.00104  -0.00085  -0.00189   2.30125
    R2        2.83704  -0.00121  -0.00231  -0.00834  -0.01061   2.82643
    R3        2.78688  -0.00277   0.00419  -0.00180   0.00249   2.78938
    R4        2.53174   0.00107   0.00157   0.00168   0.00320   2.53494
    R5        2.05330  -0.00010  -0.00014  -0.00049  -0.00064   2.05266
    R6        3.32279   0.00285  -0.00452   0.00105  -0.00357   3.31922
    R7        2.05446  -0.00026   0.00031   0.00001   0.00032   2.05478
    R8        4.03904   0.00174   0.02539   0.02897   0.05437   4.09341
    R9        3.41998  -0.00419  -0.00272  -0.02002  -0.02219   3.39778
   R10        3.23194   0.00124  -0.00114   0.00129   0.00067   3.23261
   R11        2.53232   0.00058  -0.00063   0.00044   0.00001   2.53233
   R12        2.04883  -0.00035   0.00088   0.00027   0.00116   2.04999
   R13        2.72174   0.00097   0.00208   0.00154   0.00421   2.72595
   R14        2.05866  -0.00086  -0.00096  -0.00266  -0.00362   2.05504
   R15        2.55512   0.00215  -0.00322   0.00165  -0.00130   2.55382
   R16        2.05730  -0.00019   0.00050  -0.00020   0.00030   2.05760
   R17        2.72758  -0.00195   0.00539  -0.00337   0.00263   2.73021
   R18        2.05433  -0.00012   0.00029  -0.00024   0.00005   2.05438
   R19        3.07619   0.00291  -0.00274   0.00040  -0.00198   3.07421
   R20        2.06703   0.00008   0.00043  -0.00012   0.00031   2.06734
   R21       17.30385   0.00027   0.33111   0.01333   0.34380  17.64765
   R22        3.09598   0.00215  -0.00220   0.00909   0.00741   3.10339
   R23        2.70220  -0.00272  -0.00479  -0.00584  -0.01037   2.69183
   R24        2.07656  -0.00096   0.00159  -0.00127   0.00032   2.07688
    A1        2.03968   0.00240   0.00259   0.00803   0.01057   2.05025
    A2        2.15583  -0.00275  -0.00707  -0.01286  -0.01997   2.13586
    A3        2.08400   0.00036   0.00462   0.00440   0.00910   2.09310
    A4        2.28704  -0.00116  -0.00280  -0.00593  -0.00885   2.27820
    A5        1.93404   0.00081   0.00180   0.00757   0.00942   1.94345
    A6        2.04851   0.00035   0.00026   0.00028   0.00056   2.04908
    A7        2.23240   0.00066   0.00161   0.01163   0.01302   2.24543
    A8        2.10804   0.00006  -0.00479  -0.00369  -0.00841   2.09963
    A9        1.94265  -0.00072   0.00324  -0.00783  -0.00452   1.93813
   A10        1.68573  -0.00040  -0.00532   0.00261  -0.00276   1.68297
   A11        1.70933   0.00034  -0.00391  -0.00673  -0.01157   1.69776
   A12        1.91185  -0.00171  -0.00526  -0.00816  -0.01362   1.89823
   A13        1.85625   0.00094  -0.01019  -0.00280  -0.01123   1.84502
   A14        2.08205   0.00065   0.01002   0.00692   0.01850   2.10055
   A15        2.00110   0.00023  -0.01087   0.00106  -0.01074   1.99036
   A16        2.19205  -0.00079  -0.00079  -0.00672  -0.00834   2.18371
   A17        2.16037  -0.00051  -0.01063  -0.00325  -0.01453   2.14583
   A18        2.08270  -0.00022   0.00443  -0.00228   0.00238   2.08507
   A19        2.04011   0.00073   0.00625   0.00550   0.01197   2.05208
   A20        2.15436  -0.00076   0.00232  -0.00048   0.00227   2.15663
   A21        2.05237  -0.00002  -0.00307  -0.00321  -0.00658   2.04579
   A22        2.07561   0.00080   0.00043   0.00383   0.00400   2.07962
   A23        2.13026   0.00071  -0.00124   0.00283   0.00217   2.13242
   A24        2.10549  -0.00022   0.00155  -0.00041   0.00087   2.10637
   A25        2.04666  -0.00048  -0.00029  -0.00226  -0.00286   2.04381
   A26        2.19137  -0.00113  -0.00045   0.00008  -0.00080   2.19057
   A27        2.00527   0.00038  -0.00294  -0.00099  -0.00380   2.00147
   A28        2.08644   0.00075   0.00338   0.00065   0.00418   2.09062
   A29        0.90787   0.00141  -0.00692   0.00926  -0.00042   0.90745
   A30        1.06646   0.00016  -0.06743   0.00896  -0.05890   1.00757
   A31        2.26434  -0.00196   0.00694  -0.00602   0.00368   2.26802
   A32        2.06609  -0.00021  -0.00676  -0.00836  -0.01653   2.04956
   A33        1.95254   0.00218  -0.00002   0.01440   0.01297   1.96552
   A34        2.04220   0.00212  -0.00526   0.01141   0.00579   2.04798
   A35        2.26465  -0.00257   0.00068  -0.01336  -0.01281   2.25184
   A36        1.97627   0.00044   0.00546   0.00157   0.00390   1.98017
    D1        2.82887  -0.00011  -0.01813   0.02648   0.00829   2.83715
    D2       -0.12777  -0.00016  -0.01314   0.01321   0.00004  -0.12773
    D3       -0.22396   0.00001  -0.01938   0.03247   0.01294  -0.21102
    D4        3.10259  -0.00004  -0.01439   0.01920   0.00469   3.10728
    D5        2.84861  -0.00058   0.00530  -0.01644  -0.01137   2.83724
    D6       -0.30669  -0.00079  -0.03680  -0.05313  -0.08980  -0.39649
    D7       -0.38798  -0.00041   0.00724  -0.02166  -0.01453  -0.40251
    D8        2.73990  -0.00062  -0.03486  -0.05835  -0.09296   2.64695
    D9        0.22143  -0.00051   0.00623  -0.01209  -0.00600   0.21543
   D10       -2.90422  -0.00036   0.00244  -0.02204  -0.01952  -2.92374
   D11       -3.11497  -0.00043   0.00107   0.00244   0.00333  -3.11164
   D12        0.04256  -0.00028  -0.00272  -0.00751  -0.01019   0.03237
   D13        0.25736   0.00063   0.00994  -0.01437  -0.00416   0.25320
   D14       -2.89893   0.00050   0.01334  -0.00518   0.00830  -2.89063
   D15        1.23954   0.00129  -0.03103   0.01868  -0.01078   1.22876
   D16       -0.69009   0.00060  -0.01649   0.02696   0.00997  -0.68012
   D17       -2.85699   0.00223   0.07144   0.05069   0.12225  -2.73474
   D18        0.41255   0.00154   0.08636   0.04118   0.12758   0.54012
   D19       -0.88244   0.00077   0.06123   0.03857   0.10043  -0.78201
   D20        2.38710   0.00008   0.07614   0.02906   0.10576   2.49286
   D21        0.81733   0.00038   0.00713  -0.00885  -0.00149   0.81584
   D22       -2.31279   0.00057   0.04224   0.02198   0.06503  -2.24775
   D23       -1.01325   0.00026   0.01847   0.00326   0.02162  -0.99163
   D24        2.13982   0.00046   0.05358   0.03409   0.08815   2.22796
   D25       -3.02761  -0.00032   0.01887   0.00126   0.02031  -3.00730
   D26        0.10924  -0.00008   0.00785  -0.00524   0.00311   0.11235
   D27       -0.02912   0.00056   0.00167   0.01268   0.01451  -0.01461
   D28        3.10773   0.00079  -0.00935   0.00618  -0.00270   3.10504
   D29        2.96487   0.00123  -0.04771   0.00483  -0.04191   2.92297
   D30       -0.13209   0.00070  -0.03620   0.00124  -0.03449  -0.16658
   D31       -0.17208   0.00100  -0.03694   0.01121  -0.02499  -0.19707
   D32        3.01414   0.00047  -0.02544   0.00762  -0.01757   2.99657
   D33       -3.07603  -0.00015   0.01344  -0.00650   0.00654  -3.06949
   D34        0.02209   0.00007   0.01384  -0.00219   0.01193   0.03402
   D35        0.02037   0.00036   0.00175  -0.00304  -0.00127   0.01910
   D36        3.11849   0.00058   0.00215   0.00127   0.00412   3.12261
   D37        2.91254   0.00147   0.00452   0.03546   0.04168   2.95422
   D38       -0.21359   0.00155   0.00569   0.05513   0.06140  -0.15219
   D39       -0.18698   0.00125   0.00408   0.03125   0.03640  -0.15058
   D40        2.97008   0.00133   0.00526   0.05093   0.05612   3.02619
   D41        0.19155  -0.00031  -0.04087  -0.01669  -0.05816   0.13339
   D42       -2.96616  -0.00039  -0.04214  -0.03721  -0.07887  -3.04504
   D43       -0.65709   0.00050   0.00072   0.04687   0.04379  -0.61329
   D44        1.39510  -0.00128  -0.01299  -0.05763  -0.07090   1.32420
   D45       -1.72215  -0.00154  -0.01989  -0.05926  -0.07926  -1.80141
   D46        0.06433   0.00005  -0.04506   0.03700  -0.00813   0.05620
   D47       -3.09055  -0.00014  -0.08553   0.00150  -0.08405   3.10859
   D48       -3.10034   0.00027  -0.03865   0.03831  -0.00042  -3.10076
   D49        0.02796   0.00008  -0.07912   0.00280  -0.07634  -0.04838
         Item               Value     Threshold  Converged?
 Maximum Force            0.004194     0.000450     NO 
 RMS     Force            0.001184     0.000300     NO 
 Maximum Displacement     0.311437     0.001800     NO 
 RMS     Displacement     0.095839     0.001200     NO 
 Predicted change in Energy=-9.852031D-04
 GradGradGradGradGradGradGradGradGradGradGradGradGradGradGradGradGradGrad

                          Input orientation:                          
 ---------------------------------------------------------------------
 Center     Atomic      Atomic             Coordinates (Angstroms)
 Number     Number       Type             X           Y           Z
 ---------------------------------------------------------------------
      1          8           0        1.005053   -0.832804   -1.426714
      2          6           0        2.110687   -0.861261   -0.917083
      3          6           0        3.067759    0.227991   -1.283977
      4          6           0        4.194309    0.637903   -0.682069
      5         16           0        5.104702   -0.150925    0.596241
      6         16           0        4.145965   -2.085202    0.418589
      7          6           0        4.864477   -2.551090   -1.162421
      8          6           0        4.254644   -3.452768   -1.943970
      9          6           0        4.855571   -3.987118   -3.141546
     10          6           0        4.373620   -5.062086   -3.803749
     11          6           0        5.048227   -5.625472   -4.950417
     12         16           0        4.687298   -7.046614   -5.655093
     13         16           0       -0.005301   -2.620745    1.097917
     14          6           0        1.633447   -2.581416    0.998326
     15          6           0        2.478891   -1.847378    0.117711
     16          1           0        2.671285    0.851124   -2.080465
     17          1           0        4.661293    1.575981   -0.972329
     18          1           0        5.855892   -2.145523   -1.333937
     19          1           0        3.270598   -3.823027   -1.666170
     20          1           0        5.773116   -3.516399   -3.490972
     21          1           0        3.469254   -5.562078   -3.466132
     22          1           0        5.885800   -5.030088   -5.325644
     23          1           0        2.198393   -3.217145    1.694433
 ---------------------------------------------------------------------
                    Distance matrix (angstroms):
                    1          2          3          4          5
     1  O    0.000000
     2  C    1.217768   0.000000
     3  C    2.323880   1.495683   0.000000
     4  C    3.590101   2.577635   1.341430   0.000000
     5  S    4.622167   3.429119   2.797844   1.756457   0.000000
     6  S    3.852138   2.724776   3.067917   2.937530   2.166140
     7  C    4.232908   3.240227   3.311535   3.293865   2.985196
     8  C    4.206139   3.516668   3.923298   4.281311   4.251757
     9  C    5.264678   4.717373   4.941050   5.279878   5.361856
    10  C    5.906298   5.576795   6.003286   6.501301   6.634297
    11  C    7.192593   6.898886   7.185267   7.627440   7.793541
    12  S    8.369560   8.206476   8.639990   9.166559   9.316863
    13  S    3.254429   3.410779   4.820001   5.605698   5.697703
    14  C    3.055052   2.618298   3.893447   4.443620   4.256592
    15  C    2.363643   1.476076   2.572674   3.123929   3.162567
    16  H    2.457506   2.144759   1.086223   2.078599   3.753715
    17  H    4.401909   3.528285   2.110344   1.087343   2.374705
    18  H    5.026179   3.981163   3.661932   3.306547   2.875464
    19  H    3.759184   3.267811   4.074060   4.660643   4.686873
    20  H    5.847842   5.204618   5.119593   5.257451   5.336525
    21  H    5.709425   5.517339   6.200637   6.834945   6.961188
    22  H    7.525990   7.146048   7.205818   7.519977   7.712656
    23  H    4.104961   3.518224   4.636344   4.949024   4.365131
                    6          7          8          9         10
     6  S    0.000000
     7  C    1.798028   0.000000
     8  C    2.731983   1.340051   0.000000
     9  C    4.098217   2.445238   1.442509   0.000000
    10  C    5.171248   3.677316   2.462283   1.351423   0.000000
    11  C    6.494137   4.882059   3.793303   2.448129   1.444765
    12  S    7.861187   6.358083   5.184144   3.963174   2.732072
    13  S    4.240436   5.369238   5.300233   6.593034   7.011521
    14  C    2.625847   3.887069   4.035720   5.431080   6.059884
    15  C    1.710621   2.797315   3.159289   4.566164   5.413150
    16  H    4.128191   4.150657   4.587934   5.413463   6.390126
    17  H    3.950250   4.136440   5.137876   5.974221   7.222439
    18  H    2.449252   1.084807   2.155232   2.767592   4.099200
    19  H    2.851759   2.100485   1.087479   2.171589   2.705765
    20  H    4.469968   2.679476   2.168645   1.088835   2.108451
    21  H    5.257153   4.039774   2.717168   2.123141   1.087132
    22  H    6.685476   4.951863   4.072386   2.630483   2.145664
    23  H    2.588843   3.963994   4.185888   5.571368   6.193983
                   11         12         13         14         15
    11  C    0.000000
    12  S    1.626801   0.000000
    13  S    8.434979   9.338733   0.000000
    14  C    7.504302   8.575079   1.642242   0.000000
    15  C    6.823592   8.076781   2.780307   1.424454   0.000000
    16  H    7.472133   8.900367   5.414803   4.726351   3.485815
    17  H    8.236251   9.812140   6.608746   5.507748   4.203624
    18  H    5.083434   6.637673   6.363437   4.843397   3.687860
    19  H    4.146691   5.320719   4.451649   3.364730   2.777089
    20  H    2.665264   4.280752   7.433047   6.177770   5.163346
    21  H    2.168012   2.911877   6.446279   5.673264   5.255830
    22  H    1.093987   2.368823   9.042795   8.004442   7.167063
    23  H    7.620737   8.653035   2.359617   1.099036   2.107366
                   16         17         18         19         20
    16  H    0.000000
    17  H    2.390296   0.000000
    18  H    4.436093   3.925228   0.000000
    19  H    4.730593   5.618251   3.099701   0.000000
    20  H    5.539507   5.788959   2.557138   3.112317   0.000000
    21  H    6.609538   7.654534   4.681362   2.510702   3.081103
    22  H    7.446673   8.005680   4.924970   4.657040   2.381170
    23  H    5.569946   6.012616   4.867925   3.579158   6.305285
                   21         22         23
    21  H    0.000000
    22  H    3.095237   0.000000
    23  H    5.809064   8.134200   0.000000
 Stoichiometry    C10H8OS4
 Framework group  C1[X(C10H8OS4)]
 Deg. of freedom    63
 Full point group                 C1      NOp   1
 Largest Abelian subgroup         C1      NOp   1
 Largest concise Abelian subgroup C1      NOp   1
                         Standard orientation:                         
 ---------------------------------------------------------------------
 Center     Atomic      Atomic             Coordinates (Angstroms)
 Number     Number       Type             X           Y           Z
 ---------------------------------------------------------------------
      1          8           0        1.818609    1.290481   -2.088655
      2          6           0        1.840771    0.387425   -1.271980
      3          6           0        2.037705   -1.003197   -1.786234
      4          6           0        2.408456   -2.123916   -1.149079
      5         16           0        2.515003   -2.419327    0.579076
      6         16           0        1.380887   -0.678895    1.192949
      7          6           0       -0.227375   -1.240658    0.617780
      8          6           0       -1.194614   -0.355479    0.340934
      9          6           0       -2.549093   -0.744271    0.032616
     10          6           0       -3.584536    0.123213   -0.008302
     11          6           0       -4.943770   -0.311191   -0.234399
     12         16           0       -6.272274    0.610919   -0.057561
     13         16           0        2.670184    3.271605    0.348818
     14          6           0        2.164102    1.810472    0.901928
     15          6           0        1.800900    0.635930    0.182481
     16          1           0        2.010292   -1.031016   -2.871755
     17          1           0        2.696846   -3.006684   -1.714648
     18          1           0       -0.357714   -2.317060    0.652101
     19          1           0       -0.969248    0.708121    0.364950
     20          1           0       -2.738769   -1.804526   -0.126898
     21          1           0       -3.426172    1.184707    0.164924
     22          1           0       -5.046128   -1.363339   -0.516029
     23          1           0        2.065944    1.687146    1.989602
 ---------------------------------------------------------------------
 Rotational constants (GHZ):           0.5132287           0.1743747           0.1481833
 Standard basis: 6-31G(2df,p) (6D, 7F)
 There are   521 symmetry adapted cartesian basis functions of A   symmetry.
 There are   476 symmetry adapted basis functions of A   symmetry.
   476 basis functions,   812 primitive gaussians,   521 cartesian basis functions
    70 alpha electrons       70 beta electrons
       nuclear repulsion energy      1306.4991660787 Hartrees.
 NAtoms=   23 NActive=   23 NUniq=   23 SFac= 1.00D+00 NAtFMM=   60 NAOKFM=F Big=F
 Integral buffers will be    131072 words long.
 Raffenetti 2 integral format.
 Two-electron integral symmetry is turned on.
 One-electron integrals computed using PRISM.
 PrsmSu:  requested number of processors reduced to:  12 ShMem   1 Linda.
 NBasis=   476 RedAO= T EigKep=  4.78D-04  NBF=   476
 NBsUse=   476 1.00D-06 EigRej= -1.00D+00 NBFU=   476
 Initial guess from the checkpoint file:  "OdC1CdCSS2dCCdCCdCSSCdC12.chk"
 B after Tr=    -0.000000    0.000000   -0.000000
         Rot=    0.999909   -0.004169   -0.005809    0.011433 Ang=  -1.55 deg.
 ExpMin= 1.17D-01 ExpMax= 2.19D+04 ExpMxC= 3.30D+03 IAcc=2 IRadAn=         4 AccDes= 0.00D+00
 Harris functional with IExCor=  402 and IRadAn=       4 diagonalized for initial guess.
 HarFok:  IExCor=  402 AccDes= 0.00D+00 IRadAn=         4 IDoV= 1 UseB2=F ITyADJ=14
 ICtDFT=  3500011 ScaDFX=  1.000000  1.000000  1.000000  1.000000
 FoFCou: FMM=F IPFlag=           0 FMFlag=      100000 FMFlg1=           0
         NFxFlg=           0 DoJE=T BraDBF=F KetDBF=T FulRan=T
         wScrn=  0.000000 ICntrl=       500 IOpCl=  0 I1Cent=   200000004 NGrid=           0
         NMat0=    1 NMatS0=      1 NMatT0=    0 NMatD0=    1 NMtDS0=    0 NMtDT0=    0
 Petite list used in FoFCou.
 Requested convergence on RMS density matrix=1.00D-08 within 128 cycles.
 Requested convergence on MAX density matrix=1.00D-06.
 Requested convergence on             energy=1.00D-06.
 No special actions if energy rises.
 Integral accuracy reduced to 1.0D-05 until final iterations.
 Initial convergence to 1.0D-05 achieved.  Increase integral accuracy.
slurmstepd: error: *** JOB 27446991 ON lewis4-r630-hpc4-node538 CANCELLED AT 2023-05-17T16:19:42 DUE TO TIME LIMIT ***
