### Starting Gaussian ###
 Entering Gaussian System, Link 0=g16
 Initial command:
 /cluster/software/gaussian/gaussian-16-A.03/avx2/g16/l1.exe "/local/scratch/linjian/Gau-13404.inp" -scrdir="/local/scratch/linjian/"
 Entering Link 1 = /cluster/software/gaussian/gaussian-16-A.03/avx2/g16/l1.exe PID=     13405.
  
 Copyright (c) 1988,1990,1992,1993,1995,1998,2003,2009,2016,
            Gaussian, Inc.  All Rights Reserved.
  
 This is part of the Gaussian(R) 16 program.  It is based on
 the Gaussian(R) 09 system (copyright 2009, Gaussian, Inc.),
 the Gaussian(R) 03 system (copyright 2003, Gaussian, Inc.),
 the Gaussian(R) 98 system (copyright 1998, Gaussian, Inc.),
 the Gaussian(R) 94 system (copyright 1995, Gaussian, Inc.),
 the Gaussian 92(TM) system (copyright 1992, Gaussian, Inc.),
 the Gaussian 90(TM) system (copyright 1990, Gaussian, Inc.),
 the Gaussian 88(TM) system (copyright 1988, Gaussian, Inc.),
 the Gaussian 86(TM) system (copyright 1986, Carnegie Mellon
 University), and the Gaussian 82(TM) system (copyright 1983,
 Carnegie Mellon University). Gaussian is a federally registered
 trademark of Gaussian, Inc.
  
 This software contains proprietary and confidential information,
 including trade secrets, belonging to Gaussian, Inc.
  
 This software is provided under written license and may be
 used, copied, transmitted, or stored only in accord with that
 written license.
  
 The following legend is applicable only to US Government
 contracts under FAR:
  
                    RESTRICTED RIGHTS LEGEND
  
 Use, reproduction and disclosure by the US Government is
 subject to restrictions as set forth in subparagraphs (a)
 and (c) of the Commercial Computer Software - Restricted
 Rights clause in FAR 52.227-19.
  
 Gaussian, Inc.
 340 Quinnipiac St., Bldg. 40, Wallingford CT 06492
  
  
 ---------------------------------------------------------------
 Warning -- This program may not be used in any manner that
 competes with the business of Gaussian, Inc. or will provide
 assistance to any competitor of Gaussian, Inc.  The licensee
 of this program is prohibited from giving any competitor of
 Gaussian, Inc. access to this program.  By using this program,
 the user acknowledges that Gaussian, Inc. is engaged in the
 business of creating and licensing software in the field of
 computational chemistry and represents and warrants to the
 licensee that it is not a competitor of Gaussian, Inc. and that
 it will not use this program in any manner prohibited above.
 ---------------------------------------------------------------
  

 Cite this work as:
 Gaussian 16, Revision A.03,
 M. J. Frisch, G. W. Trucks, H. B. Schlegel, G. E. Scuseria, 
 M. A. Robb, J. R. Cheeseman, G. Scalmani, V. Barone, 
 G. A. Petersson, H. Nakatsuji, X. Li, M. Caricato, A. V. Marenich, 
 J. Bloino, B. G. Janesko, R. Gomperts, B. Mennucci, H. P. Hratchian, 
 J. V. Ortiz, A. F. Izmaylov, J. L. Sonnenberg, D. Williams-Young, 
 F. Ding, F. Lipparini, F. Egidi, J. Goings, B. Peng, A. Petrone, 
 T. Henderson, D. Ranasinghe, V. G. Zakrzewski, J. Gao, N. Rega, 
 G. Zheng, W. Liang, M. Hada, M. Ehara, K. Toyota, R. Fukuda, 
 J. Hasegawa, M. Ishida, T. Nakajima, Y. Honda, O. Kitao, H. Nakai, 
 T. Vreven, K. Throssell, J. A. Montgomery, Jr., J. E. Peralta, 
 F. Ogliaro, M. J. Bearpark, J. J. Heyd, E. N. Brothers, K. N. Kudin, 
 V. N. Staroverov, T. A. Keith, R. Kobayashi, J. Normand, 
 K. Raghavachari, A. P. Rendell, J. C. Burant, S. S. Iyengar, 
 J. Tomasi, M. Cossi, J. M. Millam, M. Klene, C. Adamo, R. Cammi, 
 J. W. Ochterski, R. L. Martin, K. Morokuma, O. Farkas, 
 J. B. Foresman, and D. J. Fox, Gaussian, Inc., Wallingford CT, 2016.
 
 ******************************************
 Gaussian 16:  ES64L-G16RevA.03 25-Dec-2016
                17-May-2023 
 ******************************************
 %chk=OdC1CdCCdC2CdCCdC2C1dS.chk
 %NProcShared=20
 Will use up to   20 processors via shared memory.
 -----------------------------
 # opt freq b3lyp/6-31g(2df,p)
 -----------------------------
 1/18=20,19=15,26=3,38=1/1,3;
 2/9=110,12=2,17=6,18=5,40=1/2;
 3/5=1,6=6,7=104,11=2,25=1,30=1,71=1,74=-5/1,2,3;
 4//1;
 5/5=2,38=5/2;
 6/7=2,8=2,9=2,10=2,28=1/1;
 7//1,2,3,16;
 1/18=20,19=15,26=3/3(2);
 2/9=110/2;
 99//99;
 2/9=110/2;
 3/5=1,6=6,7=104,11=2,25=1,30=1,71=1,74=-5/1,2,3;
 4/5=5,16=3,69=1/1;
 5/5=2,38=5/2;
 7//1,2,3,16;
 1/18=20,19=15,26=3/3(-5);
 2/9=110/2;
 6/7=2,8=2,9=2,10=2,19=2,28=1/1;
 99/9=1/99;
 -------------------
 Title Card Required
 -------------------
 Symbolic Z-matrix:
 Charge =  0 Multiplicity = 1
 O                     1.57041   0.21191   0.04064 
 C                     2.78013   0.12934  -0.03636 
 C                     3.48391  -1.15922   0.18561 
 C                     4.56778  -1.56197  -0.48587 
 C                     5.04619  -1.02768  -1.73574 
 C                     4.87765   0.195    -2.24195 
 C                     5.29202   0.54388  -3.57967 
 C                     5.12746   1.87034  -3.6956 
 C                     4.64019   2.40626  -2.42596 
 C                     4.32987   1.37903  -1.61076 
 C                     3.64053   1.35693  -0.31 
 S                     3.68955   2.49464   0.91573 
 H                     3.03083  -1.80771   0.92769 
 H                     5.03725  -2.50165  -0.19798 
 H                     5.58099  -1.75431  -2.34605 
 H                     5.55923  -0.16397  -4.34782 
 H                     5.21952   2.41902  -4.62122 
 H                     4.50595   3.46267  -2.24351 
 

 GradGradGradGradGradGradGradGradGradGradGradGradGradGradGradGradGradGrad
 Berny optimization.
 Initialization pass.
                           ----------------------------
                           !    Initial Parameters    !
                           ! (Angstroms and Degrees)  !
 --------------------------                            --------------------------
 ! Name  Definition              Value          Derivative Info.                !
 --------------------------------------------------------------------------------
 ! R1    R(1,2)                  1.215          estimate D2E/DX2                !
 ! R2    R(2,3)                  1.4849         estimate D2E/DX2                !
 ! R3    R(2,11)                 1.5239         estimate D2E/DX2                !
 ! R4    R(3,4)                  1.3371         estimate D2E/DX2                !
 ! R5    R(3,13)                 1.0847         estimate D2E/DX2                !
 ! R6    R(4,5)                  1.441          estimate D2E/DX2                !
 ! R7    R(4,14)                 1.0892         estimate D2E/DX2                !
 ! R8    R(5,6)                  1.334          estimate D2E/DX2                !
 ! R9    R(5,15)                 1.0893         estimate D2E/DX2                !
 ! R10   R(6,7)                  1.4432         estimate D2E/DX2                !
 ! R11   R(6,10)                 1.4493         estimate D2E/DX2                !
 ! R12   R(7,8)                  1.3416         estimate D2E/DX2                !
 ! R13   R(7,16)                 1.0782         estimate D2E/DX2                !
 ! R14   R(8,9)                  1.4617         estimate D2E/DX2                !
 ! R15   R(8,17)                 1.08           estimate D2E/DX2                !
 ! R16   R(9,10)                 1.3476         estimate D2E/DX2                !
 ! R17   R(9,18)                 1.0804         estimate D2E/DX2                !
 ! R18   R(10,11)                1.4723         estimate D2E/DX2                !
 ! R19   R(11,12)                1.6731         estimate D2E/DX2                !
 ! A1    A(1,2,3)              121.4264         estimate D2E/DX2                !
 ! A2    A(1,2,11)             121.2524         estimate D2E/DX2                !
 ! A3    A(3,2,11)             117.2772         estimate D2E/DX2                !
 ! A4    A(2,3,4)              124.7851         estimate D2E/DX2                !
 ! A5    A(2,3,13)             115.0308         estimate D2E/DX2                !
 ! A6    A(4,3,13)             120.1384         estimate D2E/DX2                !
 ! A7    A(3,4,5)              126.371          estimate D2E/DX2                !
 ! A8    A(3,4,14)             118.459          estimate D2E/DX2                !
 ! A9    A(5,4,14)             113.9566         estimate D2E/DX2                !
 ! A10   A(4,5,6)              128.8302         estimate D2E/DX2                !
 ! A11   A(4,5,15)             113.6809         estimate D2E/DX2                !
 ! A12   A(6,5,15)             117.4407         estimate D2E/DX2                !
 ! A13   A(5,6,7)              122.4802         estimate D2E/DX2                !
 ! A14   A(5,6,10)             129.145          estimate D2E/DX2                !
 ! A15   A(7,6,10)             108.3432         estimate D2E/DX2                !
 ! A16   A(6,7,8)              106.4916         estimate D2E/DX2                !
 ! A17   A(6,7,16)             124.9463         estimate D2E/DX2                !
 ! A18   A(8,7,16)             128.1643         estimate D2E/DX2                !
 ! A19   A(7,8,9)              109.1668         estimate D2E/DX2                !
 ! A20   A(7,8,17)             124.4657         estimate D2E/DX2                !
 ! A21   A(9,8,17)             125.9167         estimate D2E/DX2                !
 ! A22   A(8,9,10)             108.8276         estimate D2E/DX2                !
 ! A23   A(8,9,18)             123.1331         estimate D2E/DX2                !
 ! A24   A(10,9,18)            127.9197         estimate D2E/DX2                !
 ! A25   A(6,10,9)             105.7988         estimate D2E/DX2                !
 ! A26   A(6,10,11)            123.3316         estimate D2E/DX2                !
 ! A27   A(9,10,11)            130.8213         estimate D2E/DX2                !
 ! A28   A(2,11,10)            115.7917         estimate D2E/DX2                !
 ! A29   A(2,11,12)            115.6446         estimate D2E/DX2                !
 ! A30   A(10,11,12)           128.5602         estimate D2E/DX2                !
 ! D1    D(1,2,3,4)            143.3044         estimate D2E/DX2                !
 ! D2    D(1,2,3,13)           -34.2303         estimate D2E/DX2                !
 ! D3    D(11,2,3,4)           -39.0773         estimate D2E/DX2                !
 ! D4    D(11,2,3,13)          143.388          estimate D2E/DX2                !
 ! D5    D(1,2,11,10)         -112.5691         estimate D2E/DX2                !
 ! D6    D(1,2,11,12)           68.0558         estimate D2E/DX2                !
 ! D7    D(3,2,11,10)           69.8082         estimate D2E/DX2                !
 ! D8    D(3,2,11,12)         -109.5669         estimate D2E/DX2                !
 ! D9    D(2,3,4,5)            -17.0128         estimate D2E/DX2                !
 ! D10   D(2,3,4,14)           176.383          estimate D2E/DX2                !
 ! D11   D(13,3,4,5)           160.4042         estimate D2E/DX2                !
 ! D12   D(13,3,4,14)           -6.2            estimate D2E/DX2                !
 ! D13   D(3,4,5,6)             26.8261         estimate D2E/DX2                !
 ! D14   D(3,4,5,15)          -150.551          estimate D2E/DX2                !
 ! D15   D(14,4,5,6)          -166.0522         estimate D2E/DX2                !
 ! D16   D(14,4,5,15)           16.5707         estimate D2E/DX2                !
 ! D17   D(4,5,6,7)           -172.949          estimate D2E/DX2                !
 ! D18   D(4,5,6,10)             9.3429         estimate D2E/DX2                !
 ! D19   D(15,5,6,7)             4.3444         estimate D2E/DX2                !
 ! D20   D(15,5,6,10)         -173.3637         estimate D2E/DX2                !
 ! D21   D(5,6,7,8)           -172.5294         estimate D2E/DX2                !
 ! D22   D(5,6,7,16)            14.2183         estimate D2E/DX2                !
 ! D23   D(10,6,7,8)             5.5981         estimate D2E/DX2                !
 ! D24   D(10,6,7,16)         -167.6542         estimate D2E/DX2                !
 ! D25   D(5,6,10,9)           167.0326         estimate D2E/DX2                !
 ! D26   D(5,6,10,11)          -10.6863         estimate D2E/DX2                !
 ! D27   D(7,6,10,9)           -10.9306         estimate D2E/DX2                !
 ! D28   D(7,6,10,11)          171.3504         estimate D2E/DX2                !
 ! D29   D(6,7,8,9)              1.5546         estimate D2E/DX2                !
 ! D30   D(6,7,8,17)          -171.1219         estimate D2E/DX2                !
 ! D31   D(16,7,8,9)           174.5184         estimate D2E/DX2                !
 ! D32   D(16,7,8,17)            1.842          estimate D2E/DX2                !
 ! D33   D(7,8,9,10)            -8.7527         estimate D2E/DX2                !
 ! D34   D(7,8,9,18)           174.9402         estimate D2E/DX2                !
 ! D35   D(17,8,9,10)          163.791          estimate D2E/DX2                !
 ! D36   D(17,8,9,18)          -12.516          estimate D2E/DX2                !
 ! D37   D(8,9,10,6)            11.7397         estimate D2E/DX2                !
 ! D38   D(8,9,10,11)         -170.7789         estimate D2E/DX2                !
 ! D39   D(18,9,10,6)         -172.1808         estimate D2E/DX2                !
 ! D40   D(18,9,10,11)           5.3006         estimate D2E/DX2                !
 ! D41   D(6,10,11,2)          -36.3859         estimate D2E/DX2                !
 ! D42   D(6,10,11,12)         142.8937         estimate D2E/DX2                !
 ! D43   D(9,10,11,2)          146.5151         estimate D2E/DX2                !
 ! D44   D(9,10,11,12)         -34.2054         estimate D2E/DX2                !
 --------------------------------------------------------------------------------
 Trust Radius=3.00D-01 FncErr=1.00D-07 GrdErr=1.00D-06 EigMax=2.50D+02 EigMin=1.00D-04
 Number of steps in this run=    103 maximum allowed number of steps=    108.
 GradGradGradGradGradGradGradGradGradGradGradGradGradGradGradGradGradGrad

                          Input orientation:                          
 ---------------------------------------------------------------------
 Center     Atomic      Atomic             Coordinates (Angstroms)
 Number     Number       Type             X           Y           Z
 ---------------------------------------------------------------------
      1          8           0        1.570410    0.211910    0.040640
      2          6           0        2.780130    0.129340   -0.036360
      3          6           0        3.483910   -1.159220    0.185610
      4          6           0        4.567780   -1.561970   -0.485870
      5          6           0        5.046190   -1.027680   -1.735740
      6          6           0        4.877650    0.195000   -2.241950
      7          6           0        5.292020    0.543880   -3.579670
      8          6           0        5.127460    1.870340   -3.695600
      9          6           0        4.640190    2.406260   -2.425960
     10          6           0        4.329870    1.379030   -1.610760
     11          6           0        3.640530    1.356930   -0.310000
     12         16           0        3.689550    2.494640    0.915730
     13          1           0        3.030830   -1.807710    0.927690
     14          1           0        5.037250   -2.501650   -0.197980
     15          1           0        5.580990   -1.754310   -2.346050
     16          1           0        5.559230   -0.163970   -4.347820
     17          1           0        5.219520    2.419020   -4.621220
     18          1           0        4.505950    3.462670   -2.243510
 ---------------------------------------------------------------------
                    Distance matrix (angstroms):
                    1          2          3          4          5
     1  O    0.000000
     2  C    1.214977   0.000000
     3  C    2.358494   1.484912   0.000000
     4  C    3.522512   2.501656   1.337111   0.000000
     5  C    4.095504   3.059676   2.479840   1.441012   0.000000
     6  C    4.018500   3.044426   3.109577   2.503354   1.334017
     7  C    5.202618   4.363082   4.510781   3.811919   2.435223
     8  C    5.418716   4.683063   5.190692   4.732479   3.499454
     9  C    4.508086   3.788717   4.568362   4.417696   3.526072
    10  C    3.421098   2.538140   3.222624   3.157762   2.514157
    11  C    2.391530   1.523858   2.569274   3.067686   3.113676
    12  S    3.235335   2.707058   3.731763   4.380851   4.612754
    13  H    2.645477   2.178166   1.084667   2.102559   3.429866
    14  H    4.409005   3.470277   2.088570   1.089165   2.130111
    15  H    5.064293   4.089942   3.340835   2.126936   1.089257
    16  H    5.942268   5.137910   5.084237   4.225167   2.798601
    17  H    6.318250   5.675755   6.238730   5.777038   4.498420
    18  H    4.939856   4.354429   5.320438   5.323545   4.551146
                    6          7          8          9         10
     6  C    0.000000
     7  C    1.443231   0.000000
     8  C    2.232099   1.341647   0.000000
     9  C    2.231573   2.285692   1.461721   0.000000
    10  C    1.449273   2.345168   2.285628   1.347609   0.000000
    11  C    2.571571   3.752228   3.733207   2.564703   1.472296
    12  S    4.082998   5.155773   4.870493   3.475402   2.835092
    13  H    4.179499   5.564104   6.268869   5.620903   4.276277
    14  H    3.387507   4.558068   5.599623   5.404547   4.189989
    15  H    2.074930   2.624309   3.894234   4.266361   3.453082
    16  H    2.242342   1.078196   2.179503   3.338302   3.373970
    17  H    3.274762   2.146214   1.079952   2.270452   3.306951
    18  H    3.288743   3.304930   2.242845   1.080421   2.184704
                   11         12         13         14         15
    11  C    0.000000
    12  S    1.673081   0.000000
    13  H    3.452326   4.352502   0.000000
    14  H    4.105121   5.293350   2.403000   0.000000
    15  H    4.194127   5.680698   4.150125   2.338456   0.000000
    16  H    4.722133   6.186184   6.076652   4.791491   2.556705
    17  H    4.712522   5.744941   7.310678   6.619008   4.766943
    18  H    2.986897   3.403585   6.325298   6.327684   5.327580
                   16         17         18
    16  H    0.000000
    17  H    2.619540   0.000000
    18  H    4.323198   2.692934   0.000000
 Stoichiometry    C10H6OS
 Framework group  C1[X(C10H6OS)]
 Deg. of freedom    48
 Full point group                 C1      NOp   1
 Largest Abelian subgroup         C1      NOp   1
 Largest concise Abelian subgroup C1      NOp   1
                         Standard orientation:                         
 ---------------------------------------------------------------------
 Center     Atomic      Atomic             Coordinates (Angstroms)
 Number     Number       Type             X           Y           Z
 ---------------------------------------------------------------------
      1          8           0       -2.180874    0.455431    1.597785
      2          6           0       -1.510063    0.564045    0.590618
      3          6           0       -1.378909    1.863515   -0.115879
      4          6           0       -0.264148    2.298186   -0.712735
      5          6           0        1.069048    1.791965   -0.505745
      6          6           0        1.450457    0.573496   -0.119140
      7          6           0        2.823340    0.252572    0.189267
      8          6           0        2.871464   -1.075191    0.375671
      9          6           0        1.541150   -1.639308    0.155066
     10          6           0        0.656970   -0.630565    0.025790
     11          6           0       -0.814241   -0.641457   -0.029657
     12         16           0       -1.824146   -1.795475   -0.698639
     13          1           0       -2.262710    2.491748   -0.089006
     14          1           0       -0.299452    3.243102   -1.253261
     15          1           0        1.848408    2.538202   -0.654772
     16          1           0        3.605617    0.976790    0.350687
     17          1           0        3.730902   -1.608447    0.754223
     18          1           0        1.340161   -2.700785    0.168521
 ---------------------------------------------------------------------
 Rotational constants (GHZ):           1.1934914           0.8133510           0.5648932
 Standard basis: 6-31G(2df,p) (6D, 7F)
 There are   406 symmetry adapted cartesian basis functions of A   symmetry.
 There are   370 symmetry adapted basis functions of A   symmetry.
   370 basis functions,   594 primitive gaussians,   406 cartesian basis functions
    45 alpha electrons       45 beta electrons
       nuclear repulsion energy       702.4972026300 Hartrees.
 NAtoms=   18 NActive=   18 NUniq=   18 SFac= 1.00D+00 NAtFMM=   60 NAOKFM=F Big=F
 Integral buffers will be    131072 words long.
 Raffenetti 2 integral format.
 Two-electron integral symmetry is turned on.
 One-electron integrals computed using PRISM.
 PrsmSu:  requested number of processors reduced to:  13 ShMem   1 Linda.
 NBasis=   370 RedAO= T EigKep=  2.23D-04  NBF=   370
 NBsUse=   370 1.00D-06 EigRej= -1.00D+00 NBFU=   370
 ExpMin= 1.17D-01 ExpMax= 2.19D+04 ExpMxC= 3.30D+03 IAcc=3 IRadAn=         5 AccDes= 0.00D+00
 Harris functional with IExCor=  402 and IRadAn=       5 diagonalized for initial guess.
 HarFok:  IExCor=  402 AccDes= 0.00D+00 IRadAn=         5 IDoV= 1 UseB2=F ITyADJ=14
 ICtDFT=  3500011 ScaDFX=  1.000000  1.000000  1.000000  1.000000
 FoFCou: FMM=F IPFlag=           0 FMFlag=      100000 FMFlg1=           0
         NFxFlg=           0 DoJE=T BraDBF=F KetDBF=T FulRan=T
         wScrn=  0.000000 ICntrl=       500 IOpCl=  0 I1Cent=   200000004 NGrid=           0
         NMat0=    1 NMatS0=      1 NMatT0=    0 NMatD0=    1 NMtDS0=    0 NMtDT0=    0
 Petite list used in FoFCou.
 Requested convergence on RMS density matrix=1.00D-08 within 128 cycles.
 Requested convergence on MAX density matrix=1.00D-06.
 Requested convergence on             energy=1.00D-06.
 No special actions if energy rises.
 Integral accuracy reduced to 1.0D-05 until final iterations.
 Initial convergence to 1.0D-05 achieved.  Increase integral accuracy.
 SCF Done:  E(RB3LYP) =  -858.021405679     A.U. after   17 cycles
            NFock= 17  Conv=0.58D-08     -V/T= 2.0053

 **********************************************************************

            Population analysis using the SCF density.

 **********************************************************************

 Orbital symmetries:
       Occupied  (A) (A) (A) (A) (A) (A) (A) (A) (A) (A) (A) (A)
                 (A) (A) (A) (A) (A) (A) (A) (A) (A) (A) (A) (A)
                 (A) (A) (A) (A) (A) (A) (A) (A) (A) (A) (A) (A)
                 (A) (A) (A) (A) (A) (A) (A) (A) (A)
       Virtual   (A) (A) (A) (A) (A) (A) (A) (A) (A) (A) (A) (A)
                 (A) (A) (A) (A) (A) (A) (A) (A) (A) (A) (A) (A)
                 (A) (A) (A) (A) (A) (A) (A) (A) (A) (A) (A) (A)
                 (A) (A) (A) (A) (A) (A) (A) (A) (A) (A) (A) (A)
                 (A) (A) (A) (A) (A) (A) (A) (A) (A) (A) (A) (A)
                 (A) (A) (A) (A) (A) (A) (A) (A) (A) (A) (A) (A)
                 (A) (A) (A) (A) (A) (A) (A) (A) (A) (A) (A) (A)
                 (A) (A) (A) (A) (A) (A) (A) (A) (A) (A) (A) (A)
                 (A) (A) (A) (A) (A) (A) (A) (A) (A) (A) (A) (A)
                 (A) (A) (A) (A) (A) (A) (A) (A) (A) (A) (A) (A)
                 (A) (A) (A) (A) (A) (A) (A) (A) (A) (A) (A) (A)
                 (A) (A) (A) (A) (A) (A) (A) (A) (A) (A) (A) (A)
                 (A) (A) (A) (A) (A) (A) (A) (A) (A) (A) (A) (A)
                 (A) (A) (A) (A) (A) (A) (A) (A) (A) (A) (A) (A)
                 (A) (A) (A) (A) (A) (A) (A) (A) (A) (A) (A) (A)
                 (A) (A) (A) (A) (A) (A) (A) (A) (A) (A) (A) (A)
                 (A) (A) (A) (A) (A) (A) (A) (A) (A) (A) (A) (A)
                 (A) (A) (A) (A) (A) (A) (A) (A) (A) (A) (A) (A)
                 (A) (A) (A) (A) (A) (A) (A) (A) (A) (A) (A) (A)
                 (A) (A) (A) (A) (A) (A) (A) (A) (A) (A) (A) (A)
                 (A) (A) (A) (A) (A) (A) (A) (A) (A) (A) (A) (A)
                 (A) (A) (A) (A) (A) (A) (A) (A) (A) (A) (A) (A)
                 (A) (A) (A) (A) (A) (A) (A) (A) (A) (A) (A) (A)
                 (A) (A) (A) (A) (A) (A) (A) (A) (A) (A) (A) (A)
                 (A) (A) (A) (A) (A) (A) (A) (A) (A) (A) (A) (A)
                 (A) (A) (A) (A) (A) (A) (A) (A) (A) (A) (A) (A)
                 (A) (A) (A) (A) (A) (A) (A) (A) (A) (A) (A) (A)
                 (A)
 The electronic state is 1-A.
 Alpha  occ. eigenvalues --  -88.86203 -19.14567 -10.28801 -10.26645 -10.22971
 Alpha  occ. eigenvalues --  -10.22682 -10.22084 -10.21666 -10.21568 -10.21164
 Alpha  occ. eigenvalues --  -10.20345 -10.20190  -7.92562  -5.88886  -5.88864
 Alpha  occ. eigenvalues --   -5.88070  -1.05249  -0.90850  -0.84418  -0.81068
 Alpha  occ. eigenvalues --   -0.76731  -0.72847  -0.69451  -0.63520  -0.62105
 Alpha  occ. eigenvalues --   -0.56931  -0.55498  -0.53212  -0.51049  -0.46864
 Alpha  occ. eigenvalues --   -0.45052  -0.44266  -0.43512  -0.42126  -0.40514
 Alpha  occ. eigenvalues --   -0.39849  -0.39293  -0.37671  -0.36160  -0.33107
 Alpha  occ. eigenvalues --   -0.30686  -0.27571  -0.25448  -0.23472  -0.22056
 Alpha virt. eigenvalues --   -0.12614  -0.07493  -0.03727   0.03255   0.05732
 Alpha virt. eigenvalues --    0.07866   0.09420   0.10037   0.11752   0.13343
 Alpha virt. eigenvalues --    0.15153   0.15373   0.17576   0.18873   0.21193
 Alpha virt. eigenvalues --    0.22730   0.24410   0.25357   0.27370   0.28077
 Alpha virt. eigenvalues --    0.29922   0.33199   0.33707   0.35737   0.37187
 Alpha virt. eigenvalues --    0.37737   0.38943   0.40948   0.41127   0.41789
 Alpha virt. eigenvalues --    0.42033   0.43970   0.45141   0.45940   0.46518
 Alpha virt. eigenvalues --    0.47073   0.48584   0.49712   0.51179   0.51236
 Alpha virt. eigenvalues --    0.52959   0.53123   0.54448   0.55414   0.55940
 Alpha virt. eigenvalues --    0.57892   0.59352   0.60483   0.61922   0.62381
 Alpha virt. eigenvalues --    0.64284   0.66255   0.67428   0.70047   0.71562
 Alpha virt. eigenvalues --    0.72246   0.72465   0.73877   0.74080   0.74830
 Alpha virt. eigenvalues --    0.75009   0.76426   0.77858   0.78886   0.79292
 Alpha virt. eigenvalues --    0.80920   0.81021   0.83069   0.84674   0.85020
 Alpha virt. eigenvalues --    0.86008   0.87434   0.89686   0.91758   0.93391
 Alpha virt. eigenvalues --    0.93976   0.94919   0.95759   0.96309   1.00354
 Alpha virt. eigenvalues --    1.02799   1.04433   1.04663   1.06851   1.09253
 Alpha virt. eigenvalues --    1.10494   1.12527   1.14933   1.15184   1.16730
 Alpha virt. eigenvalues --    1.21327   1.23556   1.24257   1.25699   1.27061
 Alpha virt. eigenvalues --    1.29025   1.30605   1.31266   1.32633   1.33494
 Alpha virt. eigenvalues --    1.34255   1.36328   1.37422   1.42014   1.42161
 Alpha virt. eigenvalues --    1.43527   1.44666   1.45051   1.47213   1.50827
 Alpha virt. eigenvalues --    1.52592   1.54134   1.56909   1.57519   1.58645
 Alpha virt. eigenvalues --    1.60728   1.62549   1.64880   1.65427   1.68275
 Alpha virt. eigenvalues --    1.69031   1.70115   1.71056   1.74221   1.75280
 Alpha virt. eigenvalues --    1.75865   1.78361   1.79849   1.81919   1.83851
 Alpha virt. eigenvalues --    1.85885   1.88793   1.89671   1.90885   1.91949
 Alpha virt. eigenvalues --    1.93869   1.98310   1.99910   2.03204   2.04479
 Alpha virt. eigenvalues --    2.05388   2.08003   2.11329   2.14052   2.16005
 Alpha virt. eigenvalues --    2.17542   2.19044   2.20915   2.22408   2.26396
 Alpha virt. eigenvalues --    2.30914   2.31950   2.33234   2.34637   2.38807
 Alpha virt. eigenvalues --    2.39543   2.41385   2.45418   2.48420   2.49893
 Alpha virt. eigenvalues --    2.54184   2.56610   2.58580   2.63970   2.68692
 Alpha virt. eigenvalues --    2.70124   2.74578   2.77486   2.78762   2.83028
 Alpha virt. eigenvalues --    2.84042   2.85817   2.88712   2.89438   2.91241
 Alpha virt. eigenvalues --    2.91414   2.92303   2.95591   2.97373   2.97972
 Alpha virt. eigenvalues --    3.01549   3.02456   3.04873   3.06509   3.08478
 Alpha virt. eigenvalues --    3.10199   3.11039   3.11891   3.14550   3.15478
 Alpha virt. eigenvalues --    3.16677   3.17632   3.18618   3.19489   3.20179
 Alpha virt. eigenvalues --    3.21964   3.23139   3.24929   3.26238   3.28892
 Alpha virt. eigenvalues --    3.29264   3.32134   3.34426   3.35552   3.37435
 Alpha virt. eigenvalues --    3.38219   3.41932   3.43507   3.44072   3.45964
 Alpha virt. eigenvalues --    3.46834   3.49501   3.50128   3.53068   3.55540
 Alpha virt. eigenvalues --    3.57965   3.61250   3.62305   3.66036   3.67806
 Alpha virt. eigenvalues --    3.69253   3.72218   3.75134   3.77251   3.80090
 Alpha virt. eigenvalues --    3.82701   3.83956   3.87063   3.88942   3.92656
 Alpha virt. eigenvalues --    3.95228   3.99243   4.01835   4.03111   4.05574
 Alpha virt. eigenvalues --    4.06967   4.10068   4.10475   4.14877   4.17430
 Alpha virt. eigenvalues --    4.21347   4.25079   4.27024   4.28855   4.30026
 Alpha virt. eigenvalues --    4.32984   4.34214   4.37843   4.38850   4.40759
 Alpha virt. eigenvalues --    4.42585   4.44257   4.45803   4.47229   4.50381
 Alpha virt. eigenvalues --    4.51160   4.54374   4.54612   4.55187   4.56920
 Alpha virt. eigenvalues --    4.58258   4.59323   4.60640   4.62164   4.63554
 Alpha virt. eigenvalues --    4.64349   4.66788   4.67696   4.68708   4.73854
 Alpha virt. eigenvalues --    4.75981   4.77431   4.79883   4.82934   4.85969
 Alpha virt. eigenvalues --    4.88232   4.90739   4.96044   4.97982   4.98832
 Alpha virt. eigenvalues --    5.00053   5.04893   5.07112   5.09416   5.10220
 Alpha virt. eigenvalues --    5.11595   5.13989   5.15128   5.19526   5.24597
 Alpha virt. eigenvalues --    5.28192   5.31971   5.33614   5.35224   5.38066
 Alpha virt. eigenvalues --    5.41109   5.49447   5.53087   5.54869   5.55472
 Alpha virt. eigenvalues --    5.61706   5.65959   5.73355   5.81431   5.89870
 Alpha virt. eigenvalues --    5.91627   5.99882   6.02454   6.08969   6.34813
 Alpha virt. eigenvalues --    6.38723   6.46735   6.69639   6.85556   9.71571
 Alpha virt. eigenvalues --   10.08021  10.58915  10.65606  11.01215  11.48414
 Alpha virt. eigenvalues --   11.60719  12.00007  12.03306  12.36249  13.13119
          Condensed to atoms (all electrons):
               1          2          3          4          5          6
     1  O    7.679125   0.740554  -0.056523   0.002863   0.000518  -0.000737
     2  C    0.740554   4.366295   0.353709  -0.006945  -0.001661  -0.013900
     3  C   -0.056523   0.353709   5.095304   0.556765  -0.000580  -0.018734
     4  C    0.002863  -0.006945   0.556765   4.818895   0.400027   0.026444
     5  C    0.000518  -0.001661  -0.000580   0.400027   5.102821   0.493441
     6  C   -0.000737  -0.013900  -0.018734   0.026444   0.493441   4.625951
     7  C   -0.000006  -0.000736   0.000273   0.007296  -0.093912   0.369285
     8  C    0.000001   0.000023  -0.000034  -0.000220   0.004403  -0.012412
     9  C   -0.000091   0.002144   0.000128  -0.000570   0.018622   0.019593
    10  C   -0.000208  -0.000986  -0.007040  -0.023412  -0.032595   0.354999
    11  C   -0.066839   0.298676  -0.082988   0.012758  -0.035025  -0.046428
    12  S    0.001066  -0.024855   0.011380  -0.000771   0.000623   0.004411
    13  H    0.000482  -0.029831   0.355576  -0.032560   0.004005   0.000304
    14  H   -0.000081   0.004117  -0.038023   0.365422  -0.042907   0.003916
    15  H    0.000002   0.000187   0.004028  -0.056411   0.365369  -0.027431
    16  H   -0.000000   0.000000   0.000001   0.000016  -0.005138  -0.043133
    17  H   -0.000000  -0.000001   0.000000   0.000003  -0.000178   0.004482
    18  H   -0.000004   0.000070  -0.000002  -0.000004  -0.000241   0.006652
               7          8          9         10         11         12
     1  O   -0.000006   0.000001  -0.000091  -0.000208  -0.066839   0.001066
     2  C   -0.000736   0.000023   0.002144  -0.000986   0.298676  -0.024855
     3  C    0.000273  -0.000034   0.000128  -0.007040  -0.082988   0.011380
     4  C    0.007296  -0.000220  -0.000570  -0.023412   0.012758  -0.000771
     5  C   -0.093912   0.004403   0.018622  -0.032595  -0.035025   0.000623
     6  C    0.369285  -0.012412   0.019593   0.354999  -0.046428   0.004411
     7  C    5.024653   0.592264  -0.053704  -0.009715   0.013176  -0.000408
     8  C    0.592264   4.814508   0.437259  -0.010017   0.004470   0.000196
     9  C   -0.053704   0.437259   5.096461   0.453585  -0.092463  -0.005179
    10  C   -0.009715  -0.010017   0.453585   4.758247   0.420412  -0.028892
    11  C    0.013176   0.004470  -0.092463   0.420412   5.119123   0.405822
    12  S   -0.000408   0.000196  -0.005179  -0.028892   0.405822  15.924282
    13  H    0.000004  -0.000000   0.000007   0.000097   0.004601  -0.001093
    14  H   -0.000212   0.000005  -0.000003   0.000286  -0.000490   0.000021
    15  H   -0.017216   0.000423  -0.000267   0.006170  -0.000096   0.000013
    16  H    0.375025  -0.041593   0.003261   0.006914  -0.000002   0.000003
    17  H   -0.040084   0.371428  -0.044029   0.004838  -0.000078   0.000008
    18  H    0.004013  -0.046997   0.365817  -0.028338  -0.007348   0.006349
              13         14         15         16         17         18
     1  O    0.000482  -0.000081   0.000002  -0.000000  -0.000000  -0.000004
     2  C   -0.029831   0.004117   0.000187   0.000000  -0.000001   0.000070
     3  C    0.355576  -0.038023   0.004028   0.000001   0.000000  -0.000002
     4  C   -0.032560   0.365422  -0.056411   0.000016   0.000003  -0.000004
     5  C    0.004005  -0.042907   0.365369  -0.005138  -0.000178  -0.000241
     6  C    0.000304   0.003916  -0.027431  -0.043133   0.004482   0.006652
     7  C    0.000004  -0.000212  -0.017216   0.375025  -0.040084   0.004013
     8  C   -0.000000   0.000005   0.000423  -0.041593   0.371428  -0.046997
     9  C    0.000007  -0.000003  -0.000267   0.003261  -0.044029   0.365817
    10  C    0.000097   0.000286   0.006170   0.006914   0.004838  -0.028338
    11  C    0.004601  -0.000490  -0.000096  -0.000002  -0.000078  -0.007348
    12  S   -0.001093   0.000021   0.000013   0.000003   0.000008   0.006349
    13  H    0.567878  -0.009429  -0.000237   0.000000   0.000000   0.000000
    14  H   -0.009429   0.609506  -0.007098  -0.000001  -0.000000  -0.000000
    15  H   -0.000237  -0.007098   0.613587   0.003638  -0.000009   0.000005
    16  H    0.000000  -0.000001   0.003638   0.584120  -0.002632  -0.000134
    17  H    0.000000  -0.000000  -0.000009  -0.002632   0.592963  -0.001270
    18  H    0.000000  -0.000000   0.000005  -0.000134  -0.001270   0.563163
 Mulliken charges:
               1
     1  O   -0.300121
     2  C    0.313142
     3  C   -0.173243
     4  C   -0.069595
     5  C   -0.177593
     6  C    0.253297
     7  C   -0.169996
     8  C   -0.113708
     9  C   -0.200570
    10  C    0.135656
    11  C    0.052718
    12  S   -0.292977
    13  H    0.140196
    14  H    0.114972
    15  H    0.115342
    16  H    0.119653
    17  H    0.114559
    18  H    0.138269
 Sum of Mulliken charges =  -0.00000
 Mulliken charges with hydrogens summed into heavy atoms:
               1
     1  O   -0.300121
     2  C    0.313142
     3  C   -0.033047
     4  C    0.045377
     5  C   -0.062252
     6  C    0.253297
     7  C   -0.050343
     8  C    0.000850
     9  C   -0.062300
    10  C    0.135656
    11  C    0.052718
    12  S   -0.292977
 Electronic spatial extent (au):  <R**2>=           2027.5767
 Charge=             -0.0000 electrons
 Dipole moment (field-independent basis, Debye):
    X=              4.1921    Y=              2.8849    Z=             -1.1101  Tot=              5.2085
 Quadrupole moment (field-independent basis, Debye-Ang):
   XX=            -74.0912   YY=            -66.4768   ZZ=            -79.4547
   XY=             -3.8442   XZ=              4.8670   YZ=             -4.8591
 Traceless Quadrupole moment (field-independent basis, Debye-Ang):
   XX=             -0.7503   YY=              6.8641   ZZ=             -6.1138
   XY=             -3.8442   XZ=              4.8670   YZ=             -4.8591
 Octapole moment (field-independent basis, Debye-Ang**2):
  XXX=             27.4968  YYY=             18.6341  ZZZ=              0.0517  XYY=              6.3294
  XXY=              8.9989  XXZ=             -1.6529  XZZ=              4.0779  YZZ=              1.5420
  YYZ=             -1.0768  XYZ=              0.3090
 Hexadecapole moment (field-independent basis, Debye-Ang**3):
 XXXX=          -1433.2696 YYYY=           -938.5812 ZZZZ=           -262.4713 XXXY=            -20.0472
 XXXZ=             37.1740 YYYX=            -25.2315 YYYZ=            -32.1095 ZZZX=              1.5795
 ZZZY=             -1.6259 XXYY=           -372.3922 XXZZ=           -314.7613 YYZZ=           -210.0168
 XXYZ=            -12.2590 YYXZ=             -1.1325 ZZXY=              4.4327
 N-N= 7.024972026300D+02 E-N=-3.420172554949D+03  KE= 8.534693664447D+02
 PrsmSu:  requested number of processors reduced to:  13 ShMem   1 Linda.
 Calling FoFJK, ICntrl=      2127 FMM=F ISym2X=0 I1Cent= 0 IOpClX= 0 NMat=1 NMatS=1 NMatT=0.
 ***** Axes restored to original set *****
 -------------------------------------------------------------------
 Center     Atomic                   Forces (Hartrees/Bohr)
 Number     Number              X              Y              Z
 -------------------------------------------------------------------
      1        8           0.006677599    0.000650978    0.001359535
      2        6          -0.008265431   -0.000778558   -0.003321821
      3        6          -0.002388950    0.007274136    0.007624542
      4        6           0.003282190   -0.014669344   -0.003242003
      5        6           0.005983650   -0.015705968    0.007907412
      6        6          -0.011115552   -0.014388776   -0.010462760
      7        6           0.001041763   -0.001361473   -0.002039114
      8        6          -0.000600654    0.015184752   -0.007563082
      9        6          -0.001245732    0.022805207   -0.022768854
     10        6          -0.003720530   -0.007857580    0.041445681
     11        6           0.008355434    0.013196341    0.003185259
     12       16          -0.000413564   -0.011853901   -0.020429401
     13        1           0.001228368    0.001760015    0.003690587
     14        1          -0.004036367   -0.001083330   -0.000230738
     15        1           0.001047277    0.001691962    0.000013553
     16        1           0.004731188   -0.001046487    0.000446095
     17        1           0.004208595    0.006101632    0.002040606
     18        1          -0.004769284    0.000080395    0.002344502
 -------------------------------------------------------------------
 Cartesian Forces:  Max     0.041445681 RMS     0.009959752

 GradGradGradGradGradGradGradGradGradGradGradGradGradGradGradGradGradGrad
 Berny optimization.
 FormGI is forming the generalized inverse of G from B-inverse, IUseBI=4.
 Internal  Forces:  Max     0.025980163 RMS     0.007197945
 Search for a local minimum.
 Step number   1 out of a maximum of  103
 All quantities printed in internal units (Hartrees-Bohrs-Radians)
 Mixed Optimization -- RFO/linear search
 Second derivative matrix not updated -- first step.
 ITU=  0
     Eigenvalues ---    0.00684   0.00881   0.01467   0.01617   0.01819
     Eigenvalues ---    0.01950   0.01975   0.02087   0.02138   0.02200
     Eigenvalues ---    0.02299   0.02392   0.02465   0.02614   0.03372
     Eigenvalues ---    0.15680   0.15742   0.15859   0.15950   0.15987
     Eigenvalues ---    0.15990   0.20073   0.20451   0.22151   0.22302
     Eigenvalues ---    0.23922   0.24622   0.24984   0.24999   0.28994
     Eigenvalues ---    0.32814   0.33783   0.34480   0.34899   0.34909
     Eigenvalues ---    0.35436   0.35943   0.36000   0.36213   0.36543
     Eigenvalues ---    0.37962   0.38607   0.39335   0.51132   0.55584
     Eigenvalues ---    0.55862   0.56895   0.97644
 RFO step:  Lambda=-2.11131214D-02 EMin= 6.84215850D-03
 Linear search not attempted -- first point.
 Iteration  1 RMS(Cart)=  0.09835983 RMS(Int)=  0.00410521
 Iteration  2 RMS(Cart)=  0.00565363 RMS(Int)=  0.00135178
 Iteration  3 RMS(Cart)=  0.00001216 RMS(Int)=  0.00135175
 Iteration  4 RMS(Cart)=  0.00000001 RMS(Int)=  0.00135175
 Variable       Old X    -DE/DX   Delta X   Delta X   Delta X     New X
                                 (Linear)    (Quad)   (Total)
    R1        2.29597  -0.00652   0.00000  -0.00653  -0.00653   2.28944
    R2        2.80608   0.00201   0.00000   0.00316   0.00303   2.80910
    R3        2.87967  -0.00002   0.00000  -0.00453  -0.00476   2.87491
    R4        2.52677   0.01097   0.00000   0.01872   0.01877   2.54554
    R5        2.04972   0.00096   0.00000   0.00256   0.00256   2.05228
    R6        2.72312   0.00938   0.00000   0.02481   0.02498   2.74810
    R7        2.05822  -0.00087   0.00000  -0.00234  -0.00234   2.05588
    R8        2.52093   0.02417   0.00000   0.04184   0.04203   2.56296
    R9        2.05840  -0.00062   0.00000  -0.00168  -0.00168   2.05672
   R10        2.72731   0.01683   0.00000   0.04098   0.04157   2.76888
   R11        2.73873   0.01468   0.00000   0.04049   0.04000   2.77873
   R12        2.53534   0.02239   0.00000   0.03600   0.03687   2.57222
   R13        2.03750   0.00154   0.00000   0.00402   0.00402   2.04152
   R14        2.76225  -0.00219   0.00000  -0.00778  -0.00784   2.75441
   R15        2.04081   0.00171   0.00000   0.00449   0.00449   2.04530
   R16        2.54661   0.02598   0.00000   0.04665   0.04584   2.59245
   R17        2.04170   0.00107   0.00000   0.00280   0.00280   2.04450
   R18        2.78224  -0.01999   0.00000  -0.05468  -0.05478   2.72745
   R19        3.16167  -0.02304   0.00000  -0.05559  -0.05559   3.10608
    A1        2.11929  -0.00048   0.00000  -0.00246  -0.00222   2.11707
    A2        2.11625  -0.00227   0.00000  -0.00919  -0.00903   2.10722
    A3        2.04687   0.00272   0.00000   0.01041   0.00954   2.05642
    A4        2.17791   0.00168   0.00000   0.01270   0.01128   2.18919
    A5        2.00767  -0.00190   0.00000  -0.01256  -0.01194   1.99572
    A6        2.09681   0.00022   0.00000  -0.00092  -0.00032   2.09649
    A7        2.20559  -0.00094   0.00000   0.00859   0.00661   2.21220
    A8        2.06750  -0.00156   0.00000  -0.01188  -0.01207   2.05543
    A9        1.98892   0.00324   0.00000   0.01665   0.01663   2.00555
   A10        2.24851  -0.00458   0.00000  -0.00086  -0.00175   2.24676
   A11        1.98411   0.00381   0.00000   0.00886   0.00915   1.99326
   A12        2.04973   0.00080   0.00000  -0.00702  -0.00671   2.04302
   A13        2.13768   0.01442   0.00000   0.04060   0.04126   2.17894
   A14        2.25401  -0.00364   0.00000  -0.00540  -0.00616   2.24784
   A15        1.89095  -0.01090   0.00000  -0.03797  -0.04123   1.84972
   A16        1.85863   0.00842   0.00000   0.03933   0.03783   1.89645
   A17        2.18072  -0.00449   0.00000  -0.01894  -0.01875   2.16197
   A18        2.23689  -0.00368   0.00000  -0.01479  -0.01460   2.22229
   A19        1.90532  -0.00263   0.00000  -0.00995  -0.01178   1.89354
   A20        2.17234   0.00592   0.00000   0.03319   0.03416   2.20649
   A21        2.19766  -0.00325   0.00000  -0.01954  -0.01894   2.17872
   A22        1.89940   0.00069   0.00000   0.01376   0.00907   1.90847
   A23        2.14908   0.00355   0.00000   0.01764   0.01766   2.16673
   A24        2.23262  -0.00403   0.00000  -0.02538  -0.02508   2.20754
   A25        1.84654   0.00587   0.00000   0.03256   0.02894   1.87548
   A26        2.15254   0.00414   0.00000   0.01760   0.01796   2.17050
   A27        2.28326  -0.00993   0.00000  -0.04811  -0.04611   2.23715
   A28        2.02095   0.00566   0.00000   0.02370   0.02294   2.04388
   A29        2.01838   0.00391   0.00000   0.01327   0.01302   2.03140
   A30        2.24380  -0.00956   0.00000  -0.03643  -0.03660   2.20720
    D1        2.50113   0.00003   0.00000  -0.01927  -0.01989   2.48124
    D2       -0.59743   0.00012   0.00000   0.00173   0.00147  -0.59596
    D3       -0.68203  -0.00098   0.00000  -0.05305  -0.05335  -0.73538
    D4        2.50259  -0.00089   0.00000  -0.03205  -0.03199   2.47060
    D5       -1.96470  -0.00112   0.00000  -0.06025  -0.06048  -2.02518
    D6        1.18780  -0.00251   0.00000  -0.10849  -0.10917   1.07862
    D7        1.21838  -0.00016   0.00000  -0.02670  -0.02739   1.19100
    D8       -1.91230  -0.00155   0.00000  -0.07494  -0.07608  -1.98838
    D9       -0.29693   0.00561   0.00000   0.12243   0.12241  -0.17452
   D10        3.07846   0.00114   0.00000   0.04781   0.04859   3.12706
   D11        2.79958   0.00547   0.00000   0.10019   0.09967   2.89925
   D12       -0.10821   0.00100   0.00000   0.02556   0.02585  -0.08236
   D13        0.46820  -0.00531   0.00000  -0.08924  -0.08895   0.37925
   D14       -2.62761  -0.00639   0.00000  -0.11569  -0.11534  -2.74295
   D15       -2.89816  -0.00154   0.00000  -0.02076  -0.02023  -2.91838
   D16        0.28921  -0.00262   0.00000  -0.04721  -0.04662   0.24260
   D17       -3.01853  -0.00652   0.00000  -0.11050  -0.11002  -3.12855
   D18        0.16306  -0.00214   0.00000  -0.00923  -0.00826   0.15480
   D19        0.07582  -0.00534   0.00000  -0.08285  -0.08264  -0.00681
   D20       -3.02577  -0.00097   0.00000   0.01843   0.01912  -3.00665
   D21       -3.01121   0.00075   0.00000   0.00133   0.00139  -3.00981
   D22        0.24816  -0.00126   0.00000  -0.04554  -0.04569   0.20246
   D23        0.09771  -0.00280   0.00000  -0.08113  -0.08073   0.01698
   D24       -2.92612  -0.00481   0.00000  -0.12800  -0.12781  -3.05393
   D25        2.91527   0.00295   0.00000   0.06520   0.06671   2.98197
   D26       -0.18651   0.00125   0.00000   0.01802   0.01714  -0.16937
   D27       -0.19078   0.00638   0.00000   0.15382   0.15207  -0.03871
   D28        2.99063   0.00468   0.00000   0.10665   0.10250   3.09313
   D29        0.02713  -0.00108   0.00000  -0.01803  -0.01715   0.00999
   D30       -2.98664  -0.00105   0.00000  -0.04590  -0.04737  -3.03401
   D31        3.04592   0.00099   0.00000   0.03067   0.03185   3.07777
   D32        0.03215   0.00101   0.00000   0.00279   0.00163   0.03378
   D33       -0.15276   0.00536   0.00000   0.11834   0.11706  -0.03571
   D34        3.05328   0.00222   0.00000   0.02666   0.02270   3.07598
   D35        2.85869   0.00618   0.00000   0.15156   0.15152   3.01022
   D36       -0.21845   0.00303   0.00000   0.05988   0.05717  -0.16128
   D37        0.20490  -0.00528   0.00000  -0.15654  -0.15938   0.04551
   D38       -2.98065  -0.00291   0.00000  -0.10212  -0.10519  -3.08584
   D39       -3.00512  -0.00157   0.00000  -0.05705  -0.06018  -3.06530
   D40        0.09251   0.00081   0.00000  -0.00263  -0.00598   0.08653
   D41       -0.63505   0.00160   0.00000   0.02763   0.02815  -0.60690
   D42        2.49397   0.00332   0.00000   0.08369   0.08281   2.57678
   D43        2.55717  -0.00109   0.00000  -0.03495  -0.03431   2.52286
   D44       -0.59700   0.00063   0.00000   0.02111   0.02035  -0.57665
         Item               Value     Threshold  Converged?
 Maximum Force            0.025980     0.000450     NO 
 RMS     Force            0.007198     0.000300     NO 
 Maximum Displacement     0.334867     0.001800     NO 
 RMS     Displacement     0.097576     0.001200     NO 
 Predicted change in Energy=-1.355748D-02
 GradGradGradGradGradGradGradGradGradGradGradGradGradGradGradGradGradGrad

                          Input orientation:                          
 ---------------------------------------------------------------------
 Center     Atomic      Atomic             Coordinates (Angstroms)
 Number     Number       Type             X           Y           Z
 ---------------------------------------------------------------------
      1          8           0        1.613168    0.243450    0.178744
      2          6           0        2.808269    0.135480    0.011844
      3          6           0        3.505828   -1.157647    0.237584
      4          6           0        4.520619   -1.637885   -0.506790
      5          6           0        4.997503   -1.106844   -1.773819
      6          6           0        4.842861    0.140619   -2.283094
      7          6           0        5.349465    0.582009   -3.585175
      8          6           0        5.160112    1.925579   -3.693436
      9          6           0        4.538875    2.405334   -2.465263
     10          6           0        4.308722    1.343595   -1.627553
     11          6           0        3.656907    1.348168   -0.339823
     12         16           0        3.693604    2.560654    0.769305
     13          1           0        3.090886   -1.755420    1.043766
     14          1           0        4.950052   -2.595643   -0.220657
     15          1           0        5.533541   -1.828909   -2.386867
     16          1           0        5.736434   -0.087870   -4.339244
     17          1           0        5.343158    2.531677   -4.571257
     18          1           0        4.329456    3.446163   -2.257086
 ---------------------------------------------------------------------
                    Distance matrix (angstroms):
                    1          2          3          4          5
     1  O    0.000000
     2  C    1.211519   0.000000
     3  C    2.355567   1.486514   0.000000
     4  C    3.530248   2.519116   1.347042   0.000000
     5  C    4.133947   3.086212   2.504679   1.454230   0.000000
     6  C    4.062282   3.066975   3.134800   2.534201   1.356260
     7  C    5.314284   4.426693   4.586817   3.884761   2.501423
     8  C    5.513995   4.739696   5.262685   4.823063   3.592626
     9  C    4.497141   3.779325   4.589925   4.492613   3.608855
    10  C    3.426228   2.529530   3.221737   3.192215   2.549601
    11  C    2.380374   1.521338   2.575914   3.112938   3.143346
    12  S    3.169607   2.690545   3.760818   4.465434   4.649534
    13  H    2.631995   2.172611   1.086020   2.112387   3.463326
    14  H    4.399405   3.478552   2.088923   1.087927   2.151996
    15  H    5.123120   4.127923   3.383778   2.144106   1.088367
    16  H    6.125627   5.249381   5.202632   4.309113   2.857575
    17  H    6.458429   5.759534   6.333391   5.880621   4.602605
    18  H    4.854777   4.292165   5.300643   5.380300   4.627063
                    6          7          8          9         10
     6  C    0.000000
     7  C    1.465226   0.000000
     8  C    2.296909   1.361159   0.000000
     9  C    2.292275   2.288181   1.457570   0.000000
    10  C    1.470439   2.344236   2.308992   1.371867   0.000000
    11  C    2.577006   3.739527   3.720181   2.532383   1.443306
    12  S    4.061342   5.061463   4.740255   3.346795   2.757631
    13  H    4.210984   5.656134   6.346064   5.632214   4.268837
    14  H    3.428158   4.645103   5.704890   5.497008   4.231815
    15  H    2.089701   2.698584   3.992838   4.350210   3.484469
    16  H    2.253537   1.080325   2.191618   3.340961   3.382414
    17  H    3.347109   2.184857   1.082326   2.257885   3.338711
    18  H    3.345277   3.317773   2.250615   1.081905   2.194888
                   11         12         13         14         15
    11  C    0.000000
    12  S    1.643665   0.000000
    13  H    3.444845   4.366588   0.000000
    14  H    4.152116   5.398711   2.400258   0.000000
    15  H    4.219711   5.710959   4.212032   2.370824   0.000000
    16  H    4.730962   6.106153   6.225468   4.885702   2.623768
    17  H    4.706290   5.589586   7.414878   6.735849   4.880831
    18  H    2.920583   3.216749   6.283801   6.405904   5.412306
                   16         17         18
    16  H    0.000000
    17  H    2.659045   0.000000
    18  H    4.336399   2.686869   0.000000
 Stoichiometry    C10H6OS
 Framework group  C1[X(C10H6OS)]
 Deg. of freedom    48
 Full point group                 C1      NOp   1
 Largest Abelian subgroup         C1      NOp   1
 Largest concise Abelian subgroup C1      NOp   1
                         Standard orientation:                         
 ---------------------------------------------------------------------
 Center     Atomic      Atomic             Coordinates (Angstroms)
 Number     Number       Type             X           Y           Z
 ---------------------------------------------------------------------
      1          8           0       -2.316745    0.317325    1.472640
      2          6           0       -1.575064    0.497381    0.531753
      3          6           0       -1.491172    1.818973   -0.143584
      4          6           0       -0.364964    2.380074   -0.624564
      5          6           0        0.997443    1.919825   -0.408228
      6          6           0        1.429495    0.683710   -0.054966
      7          6           0        2.831941    0.315769    0.156341
      8          6           0        2.906762   -1.031811    0.332926
      9          6           0        1.563018   -1.586930    0.229449
     10          6           0        0.664380   -0.568764    0.035011
     11          6           0       -0.773452   -0.653443   -0.057731
     12         16           0       -1.639887   -1.898993   -0.689815
     13          1           0       -2.429383    2.364930   -0.177216
     14          1           0       -0.449313    3.350009   -1.110050
     15          1           0        1.754627    2.691077   -0.536235
     16          1           0        3.638162    1.031427    0.226668
     17          1           0        3.789880   -1.596572    0.602330
     18          1           0        1.337856   -2.644290    0.271981
 ---------------------------------------------------------------------
 Rotational constants (GHZ):           1.1763348           0.8296853           0.5554369
 Standard basis: 6-31G(2df,p) (6D, 7F)
 There are   406 symmetry adapted cartesian basis functions of A   symmetry.
 There are   370 symmetry adapted basis functions of A   symmetry.
   370 basis functions,   594 primitive gaussians,   406 cartesian basis functions
    45 alpha electrons       45 beta electrons
       nuclear repulsion energy       701.1887772411 Hartrees.
 NAtoms=   18 NActive=   18 NUniq=   18 SFac= 1.00D+00 NAtFMM=   60 NAOKFM=F Big=F
 Integral buffers will be    131072 words long.
 Raffenetti 2 integral format.
 Two-electron integral symmetry is turned on.
 One-electron integrals computed using PRISM.
 PrsmSu:  requested number of processors reduced to:  13 ShMem   1 Linda.
 NBasis=   370 RedAO= T EigKep=  2.46D-04  NBF=   370
 NBsUse=   370 1.00D-06 EigRej= -1.00D+00 NBFU=   370
 Initial guess from the checkpoint file:  "OdC1CdCCdC2CdCCdC2C1dS.chk"
 B after Tr=     0.000000    0.000000   -0.000000
         Rot=    0.999669   -0.006057    0.008656   -0.023437 Ang=  -2.95 deg.
 ExpMin= 1.17D-01 ExpMax= 2.19D+04 ExpMxC= 3.30D+03 IAcc=2 IRadAn=         4 AccDes= 0.00D+00
 Harris functional with IExCor=  402 and IRadAn=       4 diagonalized for initial guess.
 HarFok:  IExCor=  402 AccDes= 0.00D+00 IRadAn=         4 IDoV= 1 UseB2=F ITyADJ=14
 ICtDFT=  3500011 ScaDFX=  1.000000  1.000000  1.000000  1.000000
 FoFCou: FMM=F IPFlag=           0 FMFlag=      100000 FMFlg1=           0
         NFxFlg=           0 DoJE=T BraDBF=F KetDBF=T FulRan=T
         wScrn=  0.000000 ICntrl=       500 IOpCl=  0 I1Cent=   200000004 NGrid=           0
         NMat0=    1 NMatS0=      1 NMatT0=    0 NMatD0=    1 NMtDS0=    0 NMtDT0=    0
 Petite list used in FoFCou.
 Requested convergence on RMS density matrix=1.00D-08 within 128 cycles.
 Requested convergence on MAX density matrix=1.00D-06.
 Requested convergence on             energy=1.00D-06.
 No special actions if energy rises.
 Integral accuracy reduced to 1.0D-05 until final iterations.
 Initial convergence to 1.0D-05 achieved.  Increase integral accuracy.
 SCF Done:  E(RB3LYP) =  -858.033768484     A.U. after   14 cycles
            NFock= 14  Conv=0.93D-08     -V/T= 2.0056
 PrsmSu:  requested number of processors reduced to:  13 ShMem   1 Linda.
 Calling FoFJK, ICntrl=      2127 FMM=F ISym2X=0 I1Cent= 0 IOpClX= 0 NMat=1 NMatS=1 NMatT=0.
 ***** Axes restored to original set *****
 -------------------------------------------------------------------
 Center     Atomic                   Forces (Hartrees/Bohr)
 Number     Number              X              Y              Z
 -------------------------------------------------------------------
      1        8           0.001293317   -0.001440541    0.000104845
      2        6          -0.000847369    0.000178821    0.002083415
      3        6           0.003110206    0.002299246   -0.000296678
      4        6          -0.002710381   -0.002486355   -0.003888232
      5        6           0.000803007    0.000486554    0.002625771
      6        6           0.000670844    0.000765079   -0.004618714
      7        6          -0.002756982    0.000734607   -0.000468996
      8        6          -0.005428188   -0.003461120    0.002034953
      9        6           0.007789054    0.001632506   -0.005197960
     10        6          -0.002015249   -0.003402408    0.008463077
     11        6          -0.001713329    0.003219382   -0.002834235
     12       16           0.000070544    0.001205018   -0.001399074
     13        1           0.001400202    0.000870398    0.001377893
     14        1          -0.002135271   -0.000633482   -0.001445851
     15        1           0.000604045    0.000975744   -0.000283407
     16        1           0.002982516   -0.000189187    0.000389055
     17        1           0.002713325    0.000675072    0.002015049
     18        1          -0.003830292   -0.001429333    0.001339090
 -------------------------------------------------------------------
 Cartesian Forces:  Max     0.008463077 RMS     0.002692683

 GradGradGradGradGradGradGradGradGradGradGradGradGradGradGradGradGradGrad
 Berny optimization.
 Using GEDIIS/GDIIS optimizer.
 FormGI is forming the generalized inverse of G from B-inverse, IUseBI=4.
 Internal  Forces:  Max     0.004077408 RMS     0.001516019
 Search for a local minimum.
 Step number   2 out of a maximum of  103
 All quantities printed in internal units (Hartrees-Bohrs-Radians)
 Mixed Optimization -- RFO/linear search
 Update second derivatives using D2CorX and points    1    2
 DE= -1.24D-02 DEPred=-1.36D-02 R= 9.12D-01
 TightC=F SS=  1.41D+00  RLast= 5.33D-01 DXNew= 5.0454D-01 1.6001D+00
 Trust test= 9.12D-01 RLast= 5.33D-01 DXMaxT set to 5.05D-01
 ITU=  1  0
 Use linear search instead of GDIIS.
     Eigenvalues ---    0.00704   0.00886   0.01483   0.01659   0.01771
     Eigenvalues ---    0.01901   0.01972   0.02116   0.02180   0.02223
     Eigenvalues ---    0.02335   0.02404   0.02527   0.02693   0.02964
     Eigenvalues ---    0.15538   0.15849   0.15922   0.15971   0.15989
     Eigenvalues ---    0.15998   0.19942   0.20754   0.22168   0.22461
     Eigenvalues ---    0.23929   0.24547   0.24885   0.25158   0.29023
     Eigenvalues ---    0.32848   0.33386   0.33915   0.34899   0.34911
     Eigenvalues ---    0.35436   0.35946   0.36013   0.36202   0.36560
     Eigenvalues ---    0.38316   0.38787   0.39630   0.51167   0.55669
     Eigenvalues ---    0.56146   0.57098   0.97536
 RFO step:  Lambda=-4.28450041D-03 EMin= 7.04449467D-03
 Quartic linear search produced a step of  0.22054.
 Iteration  1 RMS(Cart)=  0.07789209 RMS(Int)=  0.00276152
 Iteration  2 RMS(Cart)=  0.00376071 RMS(Int)=  0.00090779
 Iteration  3 RMS(Cart)=  0.00000467 RMS(Int)=  0.00090778
 Iteration  4 RMS(Cart)=  0.00000000 RMS(Int)=  0.00090778
 Variable       Old X    -DE/DX   Delta X   Delta X   Delta X     New X
                                 (Linear)    (Quad)   (Total)
    R1        2.28944  -0.00139  -0.00144  -0.00105  -0.00249   2.28695
    R2        2.80910   0.00019   0.00067   0.00235   0.00290   2.81201
    R3        2.87491  -0.00009  -0.00105   0.00361   0.00193   2.87684
    R4        2.54554   0.00032   0.00414  -0.00282   0.00124   2.54678
    R5        2.05228   0.00001   0.00056  -0.00024   0.00032   2.05260
    R6        2.74810  -0.00148   0.00551  -0.01161  -0.00612   2.74198
    R7        2.05588  -0.00067  -0.00052  -0.00201  -0.00252   2.05336
    R8        2.56296  -0.00127   0.00927  -0.00887   0.00067   2.56363
    R9        2.05672  -0.00019  -0.00037  -0.00047  -0.00084   2.05588
   R10        2.76888  -0.00154   0.00917  -0.00867   0.00059   2.76947
   R11        2.77873   0.00107   0.00882   0.00314   0.01174   2.79046
   R12        2.57222  -0.00195   0.00813  -0.00984  -0.00099   2.57123
   R13        2.04152   0.00091   0.00089   0.00256   0.00345   2.04497
   R14        2.75441  -0.00304  -0.00173  -0.01136  -0.01273   2.74167
   R15        2.04530  -0.00080   0.00099  -0.00310  -0.00211   2.04319
   R16        2.59245   0.00043   0.01011  -0.00267   0.00697   2.59942
   R17        2.04450  -0.00038   0.00062  -0.00153  -0.00092   2.04359
   R18        2.72745  -0.00354  -0.01208  -0.00144  -0.01336   2.71409
   R19        3.10608  -0.00005  -0.01226   0.00566  -0.00660   3.09948
    A1        2.11707  -0.00132  -0.00049  -0.01616  -0.01592   2.10115
    A2        2.10722   0.00148  -0.00199  -0.00135  -0.00256   2.10467
    A3        2.05642  -0.00005   0.00210   0.02115   0.02064   2.07706
    A4        2.18919   0.00099   0.00249   0.02376   0.02373   2.21292
    A5        1.99572  -0.00050  -0.00263  -0.01222  -0.01406   1.98166
    A6        2.09649  -0.00053  -0.00007  -0.01350  -0.01255   2.08394
    A7        2.21220   0.00114   0.00146   0.01485   0.01355   2.22575
    A8        2.05543  -0.00064  -0.00266  -0.00447  -0.00679   2.04864
    A9        2.00555  -0.00033   0.00367  -0.00475  -0.00057   2.00498
   A10        2.24676  -0.00080  -0.00039   0.00147  -0.00098   2.24577
   A11        1.99326   0.00141   0.00202   0.00572   0.00867   2.00193
   A12        2.04302  -0.00061  -0.00148  -0.00700  -0.00754   2.03548
   A13        2.17894  -0.00019   0.00910  -0.01689  -0.00669   2.17225
   A14        2.24784  -0.00109  -0.00136   0.00451   0.00185   2.24970
   A15        1.84972   0.00125  -0.00909   0.01254   0.00277   1.85249
   A16        1.89645  -0.00110   0.00834  -0.00965  -0.00189   1.89456
   A17        2.16197   0.00066  -0.00414   0.00739   0.00230   2.16428
   A18        2.22229   0.00053  -0.00322   0.00623   0.00206   2.22434
   A19        1.89354   0.00149  -0.00260   0.00627   0.00305   1.89659
   A20        2.20649  -0.00018   0.00753   0.00122   0.00743   2.21392
   A21        2.17872  -0.00116  -0.00418  -0.00063  -0.00615   2.17257
   A22        1.90847   0.00065   0.00200   0.00657   0.00750   1.91597
   A23        2.16673   0.00272   0.00389   0.01707   0.02089   2.18763
   A24        2.20754  -0.00336  -0.00553  -0.02240  -0.02799   2.17955
   A25        1.87548  -0.00226   0.00638  -0.01603  -0.01053   1.86495
   A26        2.17050   0.00377   0.00396   0.03712   0.04010   2.21060
   A27        2.23715  -0.00150  -0.01017  -0.02093  -0.02953   2.20763
   A28        2.04388  -0.00063   0.00506   0.01710   0.01900   2.06288
   A29        2.03140   0.00269   0.00287   0.00089   0.00479   2.03618
   A30        2.20720  -0.00198  -0.00807  -0.01604  -0.02308   2.18412
    D1        2.48124  -0.00208  -0.00439  -0.07183  -0.07536   2.40589
    D2       -0.59596  -0.00124   0.00032  -0.03569  -0.03460  -0.63056
    D3       -0.73538  -0.00048  -0.01177  -0.01666  -0.02691  -0.76229
    D4        2.47060   0.00036  -0.00706   0.01949   0.01385   2.48445
    D5       -2.02518  -0.00261  -0.01334  -0.06473  -0.07758  -2.10276
    D6        1.07862  -0.00073  -0.02408  -0.01331  -0.03627   1.04235
    D7        1.19100  -0.00408  -0.00604  -0.11890  -0.12553   1.06547
    D8       -1.98838  -0.00220  -0.01678  -0.06748  -0.08422  -2.07260
    D9       -0.17452   0.00303   0.02700   0.11209   0.14013  -0.03439
   D10        3.12706   0.00172   0.01072   0.06793   0.07943  -3.07670
   D11        2.89925   0.00215   0.02198   0.07417   0.09728   2.99654
   D12       -0.08236   0.00085   0.00570   0.03001   0.03658  -0.04578
   D13        0.37925  -0.00228  -0.01962  -0.07276  -0.09212   0.28713
   D14       -2.74295  -0.00232  -0.02544  -0.08509  -0.11050  -2.85345
   D15       -2.91838  -0.00104  -0.00446  -0.02973  -0.03324  -2.95163
   D16        0.24260  -0.00107  -0.01028  -0.04206  -0.05163   0.19097
   D17       -3.12855  -0.00121  -0.02426  -0.03229  -0.05630   3.09834
   D18        0.15480  -0.00099  -0.00182  -0.03471  -0.03616   0.11864
   D19       -0.00681  -0.00115  -0.01822  -0.01954  -0.03746  -0.04428
   D20       -3.00665  -0.00094   0.00422  -0.02196  -0.01733  -3.02397
   D21       -3.00981  -0.00019   0.00031  -0.00741  -0.00731  -3.01712
   D22        0.20246  -0.00150  -0.01008  -0.06416  -0.07438   0.12809
   D23        0.01698  -0.00050  -0.01780  -0.00545  -0.02348  -0.00650
   D24       -3.05393  -0.00182  -0.02819  -0.06221  -0.09055   3.13871
   D25        2.98197   0.00050   0.01471  -0.00067   0.01461   2.99658
   D26       -0.16937   0.00075   0.00378   0.01554   0.01942  -0.14995
   D27       -0.03871   0.00074   0.03354  -0.00087   0.03250  -0.00621
   D28        3.09313   0.00100   0.02261   0.01535   0.03731   3.13044
   D29        0.00999   0.00015  -0.00378   0.00969   0.00620   0.01619
   D30       -3.03401  -0.00144  -0.01045  -0.06566  -0.07656  -3.11056
   D31        3.07777   0.00152   0.00702   0.06898   0.07624  -3.12918
   D32        0.03378  -0.00007   0.00036  -0.00637  -0.00652   0.02725
   D33       -0.03571   0.00029   0.02582  -0.01080   0.01494  -0.02077
   D34        3.07598   0.00054   0.00501   0.03161   0.03635   3.11233
   D35        3.01022   0.00191   0.03342   0.06317   0.09620   3.10642
   D36       -0.16128   0.00217   0.01261   0.10558   0.11761  -0.04367
   D37        0.04551  -0.00069  -0.03515   0.00653  -0.02945   0.01606
   D38       -3.08584  -0.00099  -0.02320  -0.01093  -0.03476  -3.12060
   D39       -3.06530  -0.00108  -0.01327  -0.03799  -0.05179  -3.11709
   D40        0.08653  -0.00138  -0.00132  -0.05545  -0.05710   0.02943
   D41       -0.60690   0.00205   0.00621   0.08540   0.09236  -0.51454
   D42        2.57678  -0.00017   0.01826   0.02760   0.04643   2.62321
   D43        2.52286   0.00236  -0.00757   0.10521   0.09831   2.62117
   D44       -0.57665   0.00015   0.00449   0.04741   0.05237  -0.52427
         Item               Value     Threshold  Converged?
 Maximum Force            0.004077     0.000450     NO 
 RMS     Force            0.001516     0.000300     NO 
 Maximum Displacement     0.260181     0.001800     NO 
 RMS     Displacement     0.077583     0.001200     NO 
 Predicted change in Energy=-2.891197D-03
 GradGradGradGradGradGradGradGradGradGradGradGradGradGradGradGradGradGrad

                          Input orientation:                          
 ---------------------------------------------------------------------
 Center     Atomic      Atomic             Coordinates (Angstroms)
 Number     Number       Type             X           Y           Z
 ---------------------------------------------------------------------
      1          8           0        1.644232    0.218453    0.316425
      2          6           0        2.829487    0.144868    0.083301
      3          6           0        3.554426   -1.141519    0.267597
      4          6           0        4.481338   -1.670714   -0.555249
      5          6           0        4.952644   -1.132907   -1.817790
      6          6           0        4.815315    0.124726   -2.307594
      7          6           0        5.376473    0.584610   -3.580942
      8          6           0        5.183172    1.927857   -3.679205
      9          6           0        4.516212    2.390215   -2.476583
     10          6           0        4.271448    1.325050   -1.641318
     11          6           0        3.607844    1.372728   -0.368476
     12         16           0        3.621745    2.653478    0.656051
     13          1           0        3.200846   -1.721150    1.115429
     14          1           0        4.870465   -2.653455   -0.303290
     15          1           0        5.484572   -1.845044   -2.445079
     16          1           0        5.855047   -0.065700   -4.301439
     17          1           0        5.457917    2.563447   -4.509602
     18          1           0        4.256276    3.417567   -2.261055
 ---------------------------------------------------------------------
                    Distance matrix (angstroms):
                    1          2          3          4          5
     1  O    0.000000
     2  C    1.210203   0.000000
     3  C    2.345367   1.488050   0.000000
     4  C    3.518229   2.536276   1.347697   0.000000
     5  C    4.162527   3.123243   2.510761   1.450991   0.000000
     6  C    4.117041   3.108102   3.134457   2.530980   1.356616
     7  C    5.408619   4.484104   4.594631   3.878476   2.497639
     8  C    5.604571   4.782817   5.258434   4.816782   3.589748
     9  C    4.556941   3.799951   4.574790   4.492648   3.610661
    10  C    3.458262   2.538974   3.200319   3.193463   2.556702
    11  C    2.378489   1.522360   2.594009   3.171816   3.191739
    12  S    3.155194   2.692367   3.815421   4.572175   4.714647
    13  H    2.612186   2.164537   1.086191   2.105556   3.466785
    14  H    4.363539   3.485061   2.084183   1.086592   2.147680
    15  H    5.160633   4.171562   3.402796   2.146702   1.087924
    16  H    6.255907   5.331444   5.227460   4.300824   2.849873
    17  H    6.582836   5.818327   6.338114   5.875265   4.600456
    18  H    4.868316   4.271099   5.260413   5.371316   4.624740
                    6          7          8          9         10
     6  C    0.000000
     7  C    1.465540   0.000000
     8  C    2.295195   1.360637   0.000000
     9  C    2.291389   2.284703   1.450831   0.000000
    10  C    1.476650   2.351909   2.312488   1.375556   0.000000
    11  C    2.603012   3.750882   3.708201   2.510882   1.436234
    12  S    4.074603   5.031043   4.664657   3.268451   2.732167
    13  H    4.210802   5.666197   6.342979   5.615698   4.245607
    14  H    3.426159   4.635096   5.699387   5.503390   4.240005
    15  H    2.084898   2.684229   3.981041   4.344667   3.488151
    16  H    2.256706   1.082151   2.193823   3.339774   3.393850
    17  H    3.348006   2.187428   1.081212   2.247217   3.341915
    18  H    3.340283   3.320028   2.255997   1.081421   2.182414
                   11         12         13         14         15
    11  C    0.000000
    12  S    1.640174   0.000000
    13  H    3.455387   4.418773   0.000000
    14  H    4.220024   5.535628   2.381088   0.000000
    15  H    4.264791   5.772680   4.231781   2.370215   0.000000
    16  H    4.752598   6.079332   6.255218   4.863238   2.597959
    17  H    4.689297   5.483029   7.422474   6.727127   4.868035
    18  H    2.860714   3.081553   6.238669   6.408383   5.407185
                   16         17         18
    16  H    0.000000
    17  H    2.667107   0.000000
    18  H    4.341933   2.688759   0.000000
 Stoichiometry    C10H6OS
 Framework group  C1[X(C10H6OS)]
 Deg. of freedom    48
 Full point group                 C1      NOp   1
 Largest Abelian subgroup         C1      NOp   1
 Largest concise Abelian subgroup C1      NOp   1
                         Standard orientation:                         
 ---------------------------------------------------------------------
 Center     Atomic      Atomic             Coordinates (Angstroms)
 Number     Number       Type             X           Y           Z
 ---------------------------------------------------------------------
      1          8           0       -2.434433    0.360666    1.335841
      2          6           0       -1.627106    0.510338    0.446790
      3          6           0       -1.471041    1.834900   -0.213113
      4          6           0       -0.313822    2.434144   -0.556681
      5          6           0        1.034464    1.948726   -0.328929
      6          6           0        1.441482    0.694063   -0.011808
      7          6           0        2.841711    0.292067    0.148085
      8          6           0        2.888929   -1.058466    0.306715
      9          6           0        1.537791   -1.582020    0.234423
     10          6           0        0.647179   -0.548866    0.056780
     11          6           0       -0.781703   -0.659629   -0.037001
     12         16           0       -1.591008   -1.955346   -0.633924
     13          1           0       -2.405806    2.376657   -0.325026
     14          1           0       -0.374639    3.434042   -0.977617
     15          1           0        1.812106    2.703023   -0.428363
     16          1           0        3.674459    0.983091    0.139847
     17          1           0        3.770736   -1.661175    0.474578
     18          1           0        1.267427   -2.626976    0.301079
 ---------------------------------------------------------------------
 Rotational constants (GHZ):           1.1703466           0.8395414           0.5445822
 Standard basis: 6-31G(2df,p) (6D, 7F)
 There are   406 symmetry adapted cartesian basis functions of A   symmetry.
 There are   370 symmetry adapted basis functions of A   symmetry.
   370 basis functions,   594 primitive gaussians,   406 cartesian basis functions
    45 alpha electrons       45 beta electrons
       nuclear repulsion energy       700.6587336728 Hartrees.
 NAtoms=   18 NActive=   18 NUniq=   18 SFac= 1.00D+00 NAtFMM=   60 NAOKFM=F Big=F
 Integral buffers will be    131072 words long.
 Raffenetti 2 integral format.
 Two-electron integral symmetry is turned on.
 One-electron integrals computed using PRISM.
 PrsmSu:  requested number of processors reduced to:  13 ShMem   1 Linda.
 NBasis=   370 RedAO= T EigKep=  2.42D-04  NBF=   370
 NBsUse=   370 1.00D-06 EigRej= -1.00D+00 NBFU=   370
 Initial guess from the checkpoint file:  "OdC1CdCCdC2CdCCdC2C1dS.chk"
 B after Tr=    -0.000000   -0.000000    0.000000
         Rot=    0.999966    0.002795    0.007680    0.001274 Ang=   0.95 deg.
 ExpMin= 1.17D-01 ExpMax= 2.19D+04 ExpMxC= 3.30D+03 IAcc=2 IRadAn=         4 AccDes= 0.00D+00
 Harris functional with IExCor=  402 and IRadAn=       4 diagonalized for initial guess.
 HarFok:  IExCor=  402 AccDes= 0.00D+00 IRadAn=         4 IDoV= 1 UseB2=F ITyADJ=14
 ICtDFT=  3500011 ScaDFX=  1.000000  1.000000  1.000000  1.000000
 FoFCou: FMM=F IPFlag=           0 FMFlag=      100000 FMFlg1=           0
         NFxFlg=           0 DoJE=T BraDBF=F KetDBF=T FulRan=T
         wScrn=  0.000000 ICntrl=       500 IOpCl=  0 I1Cent=   200000004 NGrid=           0
         NMat0=    1 NMatS0=      1 NMatT0=    0 NMatD0=    1 NMtDS0=    0 NMtDT0=    0
 Petite list used in FoFCou.
 Requested convergence on RMS density matrix=1.00D-08 within 128 cycles.
 Requested convergence on MAX density matrix=1.00D-06.
 Requested convergence on             energy=1.00D-06.
 No special actions if energy rises.
 Integral accuracy reduced to 1.0D-05 until final iterations.
 Initial convergence to 1.0D-05 achieved.  Increase integral accuracy.
 SCF Done:  E(RB3LYP) =  -858.036984278     A.U. after   14 cycles
            NFock= 14  Conv=0.58D-08     -V/T= 2.0056
 PrsmSu:  requested number of processors reduced to:  13 ShMem   1 Linda.
 Calling FoFJK, ICntrl=      2127 FMM=F ISym2X=0 I1Cent= 0 IOpClX= 0 NMat=1 NMatS=1 NMatT=0.
 ***** Axes restored to original set *****
 -------------------------------------------------------------------
 Center     Atomic                   Forces (Hartrees/Bohr)
 Number     Number              X              Y              Z
 -------------------------------------------------------------------
      1        8          -0.000675605   -0.001368998    0.002452481
      2        6           0.001589954    0.001781275   -0.003901140
      3        6           0.001887906    0.000587932    0.000544027
      4        6          -0.001898147    0.001152059   -0.001925145
      5        6          -0.000135109    0.000160759    0.000737388
      6        6           0.001494860    0.002347696   -0.000027553
      7        6          -0.002095438   -0.000699464    0.000555226
      8        6          -0.001595603   -0.000595473    0.001825053
      9        6           0.004098738    0.000042666   -0.001923754
     10        6          -0.000807743   -0.003051752   -0.000967528
     11        6           0.000512678   -0.004002645   -0.000396486
     12       16          -0.001577363    0.004189581    0.002602084
     13        1           0.000191746    0.000134893    0.000276557
     14        1          -0.000995678   -0.000709665   -0.000538444
     15        1           0.000422876    0.000219320   -0.000038159
     16        1           0.000270075    0.000272207    0.000617935
     17        1           0.000753446   -0.000097334    0.000174901
     18        1          -0.001441591   -0.000363056   -0.000067443
 -------------------------------------------------------------------
 Cartesian Forces:  Max     0.004189581 RMS     0.001621696

 GradGradGradGradGradGradGradGradGradGradGradGradGradGradGradGradGradGrad
 Berny optimization.
 Using GEDIIS/GDIIS optimizer.
 FormGI is forming the generalized inverse of G from B-inverse, IUseBI=4.
 Internal  Forces:  Max     0.004883261 RMS     0.000967268
 Search for a local minimum.
 Step number   3 out of a maximum of  103
 All quantities printed in internal units (Hartrees-Bohrs-Radians)
 Mixed Optimization -- En-DIIS/RFO-DIIS
 Update second derivatives using D2CorX and points    2    3
 DE= -3.22D-03 DEPred=-2.89D-03 R= 1.11D+00
 TightC=F SS=  1.41D+00  RLast= 4.45D-01 DXNew= 8.4853D-01 1.3343D+00
 Trust test= 1.11D+00 RLast= 4.45D-01 DXMaxT set to 8.49D-01
 ITU=  1  1  0
 Use linear search instead of GDIIS.
     Eigenvalues ---    0.00585   0.00855   0.01472   0.01635   0.01663
     Eigenvalues ---    0.01850   0.01942   0.02134   0.02176   0.02204
     Eigenvalues ---    0.02285   0.02394   0.02526   0.02702   0.02857
     Eigenvalues ---    0.15519   0.15929   0.15968   0.16000   0.16003
     Eigenvalues ---    0.16041   0.20240   0.21222   0.22111   0.22475
     Eigenvalues ---    0.24027   0.24530   0.24914   0.25347   0.29199
     Eigenvalues ---    0.32944   0.33868   0.34024   0.34899   0.34916
     Eigenvalues ---    0.35437   0.35947   0.36022   0.36237   0.36688
     Eigenvalues ---    0.38222   0.38780   0.40126   0.51179   0.55649
     Eigenvalues ---    0.56306   0.57127   0.97654
 RFO step:  Lambda=-1.91693907D-03 EMin= 5.84522746D-03
 Quartic linear search produced a step of  0.42521.
 Iteration  1 RMS(Cart)=  0.07569392 RMS(Int)=  0.00598820
 Iteration  2 RMS(Cart)=  0.00561137 RMS(Int)=  0.00078015
 Iteration  3 RMS(Cart)=  0.00004651 RMS(Int)=  0.00077875
 Iteration  4 RMS(Cart)=  0.00000001 RMS(Int)=  0.00077875
 Variable       Old X    -DE/DX   Delta X   Delta X   Delta X     New X
                                 (Linear)    (Quad)   (Total)
    R1        2.28695   0.00105  -0.00106   0.00163   0.00058   2.28753
    R2        2.81201  -0.00058   0.00123  -0.00240  -0.00120   2.81080
    R3        2.87684  -0.00146   0.00082  -0.00657  -0.00582   2.87103
    R4        2.54678  -0.00128   0.00053  -0.00400  -0.00372   2.54306
    R5        2.05260   0.00008   0.00014   0.00029   0.00043   2.05303
    R6        2.74198  -0.00179  -0.00260  -0.00754  -0.01038   2.73159
    R7        2.05336   0.00016  -0.00107   0.00078  -0.00030   2.05306
    R8        2.56363  -0.00140   0.00029  -0.00370  -0.00340   2.56023
[...]
 40746,0.0612891,-0.0744091,-0.0111601,0.4780249,-0.1235503,-0.0597366,
 -0.4099706,0.0254195,-0.0913878,0.3419683,-0.093943,0.1309194,-0.68916
 58,-0.1754877,-0.0728862,-0.4324123,0.1277238,0.114617,-0.4152089,-0.1
 965342,0.0085785,-0.0983657,-0.0635367,-0.190866,0.7402681,0.207947,-0
 .2460071,0.0736059,0.4562549,-0.2641883,0.4636859,0.3519929,0.4198099,
 -0.3372926,-0.8701248,0.1407707,-0.1927694,-0.4126178,-0.1578053,0.244
 1419,0.4673241,-0.3905496,0.560126,0.9042142,-0.1925563,0.0446177,0.06
 13279,0.2350674,-0.5598554,-0.5277669,0.1285904,-0.2101417,-0.478914,0
 .0488778,0.014416,0.0798157,0.0001213,0.0257179,0.0514756,0.0118699,0.
 0492915,0.0581107,0.0762592,0.0566366,0.0035833,0.0521993,-0.0748337,0
 .038329,0.0236857,0.0340627,0.0521896,0.0481663,0.0573472,0.0648816,0.
 0382819,0.0167991,-0.0310036,0.0630413,-0.0431917,0.0023817,0.0834042,
 0.0220283,0.0540843,0.0544843,0.0288002,-0.0638672,0.0450418,-0.020551
 5,0.0359019,0.091148,-0.0040131,0.0657805,-0.019839,0.0439566,0.065815
 7,0.0564806,0.058882,-0.0048933,0.0785692,0.0434223,0.0258371,0.027964
 5,0.0309359,-0.0223013,0.0226544,-0.0423252,0.0810538\Polar=92.1258911
 ,-11.2103943,161.9829043,-55.5011529,-2.3836793,159.9324206\Quadrupole
 =-5.3452543,4.7268318,0.6184224,-1.4911803,0.8681868,-4.0996405\PG=C01
  [X(C10H6O1S1)]\NImag=0\\0.72324560,-0.04214948,0.08869123,-0.26099176
 ,0.00057936,0.12543679,-0.62813193,0.03075423,0.22002211,0.76283831,0.
 02939676,-0.08210781,0.00061766,-0.04760217,0.44351818,0.21238888,-0.0
 0583141,-0.14873217,-0.24435315,-0.04779924,0.33211430,-0.06019650,0.0
 5053575,0.01807860,-0.06970607,0.02454123,-0.00083877,0.42314871,0.037
 76805,-0.00179053,-0.01098451,0.02859092,-0.18406932,0.02740685,-0.151
 97743,0.50574539,0.02661079,-0.01207764,0.01551062,-0.01046293,0.03039
 950,-0.09400988,-0.29277473,-0.05607010,0.55274748,0.00754598,0.001103
 68,-0.00374324,-0.01710865,0.01377343,0.01027385,-0.21693305,0.1021262
 5,0.17644893,0.37651245,0.00679102,-0.00630805,0.00105778,0.01557839,0
 .00221694,-0.02182109,0.12557510,-0.17826531,-0.10528750,-0.19539108,0
 .60386444,-0.01018970,0.00083905,0.00496092,0.01108321,-0.00651752,0.0
 0407743,0.17111721,-0.07537673,-0.24715702,-0.25173579,-0.02849324,0.5
 4822963,-0.00089877,-0.00008028,0.00110879,-0.00218266,-0.00220970,-0.
 00326546,-0.00837109,-0.00462214,0.02295020,-0.09238090,-0.01719004,0.
 06393108,0.26925492,-0.00290864,-0.00062247,0.00184118,0.00302874,-0.0
 0127674,-0.00261523,-0.00915045,0.02461225,0.00170046,0.00645110,-0.13
 079714,0.03333575,-0.12013088,0.73338717,0.00159163,0.00367737,-0.0005
 7105,-0.00711992,-0.00645578,-0.00004750,0.02506875,-0.00022505,-0.034
 89196,0.05095746,0.07466884,-0.20555762,-0.18011949,-0.08596512,0.5239
 2968,-0.00026780,0.00005332,0.00050859,-0.00106558,-0.00015285,-0.0017
 5171,-0.00094663,0.00071367,-0.00003561,0.01025603,-0.01238623,0.00174
 433,-0.07211006,0.03386918,0.01247720,0.23225982,0.00096323,0.00188657
 ,-0.00072043,-0.00143721,-0.00198161,0.00078994,0.00958304,-0.00710842
 ,-0.00998528,-0.01687810,-0.00851253,0.03545696,0.04669271,-0.40453733
 ,0.09180598,-0.06778990,0.77401472,0.00036467,-0.00237399,-0.00061336,
 0.00212207,0.00524526,0.00170564,-0.00488923,0.00142618,0.00555827,0.0
 0424983,0.03038806,-0.01689115,0.00634672,0.10793190,-0.12315280,-0.12
 102073,-0.14487269,0.44299341,0.00021673,-0.00151201,-0.00030249,0.001
 24431,0.00368375,0.00040519,-0.00105529,-0.00027473,0.00023319,0.00907
 838,0.00247082,0.00173891,0.00345932,-0.00179143,0.00068557,-0.0982438
 6,-0.01103376,0.06254455,0.26956352,0.00074556,-0.00257288,-0.00069119
 ,0.00301513,0.00653131,0.00074203,-0.00239020,-0.00111185,0.00229905,0
 .00653971,-0.00446176,-0.00333678,-0.01508062,-0.02466263,0.04084225,-
 0.00864910,-0.08188775,0.01561515,-0.15284205,0.73315528,-0.00061498,0
 .00398676,0.00041971,-0.00175188,-0.00876255,0.00054431,0.00256485,0.0
 0060279,-0.00212989,0.00018519,0.00240708,0.00813015,0.00639649,0.0182
 8063,-0.01591879,0.06222174,0.02436009,-0.18550415,-0.22053264,0.07102
 747,0.50417632,0.00094615,-0.00180925,-0.00026316,0.00154156,0.0048235
 3,-0.00060047,-0.00104276,-0.00094260,0.00062877,0.00017487,-0.0023637
 9,-0.00121095,-0.00076056,-0.00183999,0.00605644,0.00588143,-0.0035242
 3,-0.00393975,-0.07398098,0.03675477,0.01999620,0.22928208,-0.00148041
 ,0.00453256,0.00049191,-0.00272336,-0.01022900,0.00209576,0.00277324,0
 .00057340,-0.00110058,-0.00390683,0.00255249,0.00412857,-0.00005929,0.
 01086152,-0.00443784,-0.00591551,-0.05329070,0.04027896,0.05194070,-0.
 41475193,0.02122230,-0.01821218,0.72199755,0.00014337,0.00238831,0.000
 44464,-0.00254397,-0.00614752,-0.00069657,0.00060754,0.00124402,-0.000
 00737,-0.00187216,0.00322566,-0.00055656,0.00505731,0.00111308,-0.0078
 4201,0.00335823,0.02479661,-0.00416833,0.01390016,0.05018826,-0.099504
 85,-0.20039279,-0.16998288,0.55696032,-0.00107106,0.00157292,-0.000465
 62,0.00055325,-0.00304913,0.00438094,0.00168298,-0.00104641,-0.0002073
 1,-0.00148912,0.00159846,0.00258535,-0.00039239,0.00558505,0.00038573,
 0.01005611,-0.00263688,-0.00159215,-0.00406480,0.03772938,0.00799652,-
 0.10141136,0.01380371,0.07673831,0.24334753,0.00090792,0.00278886,-0.0
 0017847,-0.00049558,-0.00513419,-0.00052622,0.00159328,-0.00052319,-0.
 00087976,-0.00223967,0.00146406,0.00349888,0.00463270,0.00432654,-0.01
 041746,0.00706110,-0.06653600,0.01306278,0.02156775,-0.02572323,-0.029
 62987,0.03642747,-0.12154404,-0.04638246,-0.10091215,0.78594088,0.0030
 0202,-0.00303583,-0.00095814,0.00445286,0.00666351,-0.00306221,-0.0027
 5299,0.00042810,0.00011349,0.00410268,-0.00293096,-0.00424823,0.002216
 97,-0.01024365,0.00197107,-0.01374274,0.02665523,0.00994170,0.01559256
 ,-0.05437361,-0.00050395,0.07217209,-0.01059807,-0.19255456,-0.1650393
 0,-0.02632926,0.46273061,0.00074696,0.00027501,-0.00155068,0.00413171,
 -0.00587936,0.01471559,-0.00152558,-0.00050078,-0.00015760,-0.00460370
 ,-0.00182193,-0.00164845,0.00439061,0.00281358,-0.00149255,-0.09740868
 ,0.03199286,0.02606682,-0.00579736,0.00082969,0.03329875,-0.00841093,0
 .00724476,0.03098802,-0.07356527,-0.03234770,0.02754769,0.26683212,-0.
 00655567,-0.01183836,0.00253413,-0.01219998,0.02379610,0.01596836,-0.0
 0276219,0.00100306,-0.00268163,0.00480447,-0.00285265,-0.00859464,0.01
 155454,-0.03566087,-0.00519978,0.02927104,-0.14030847,-0.03595493,0.01
 138889,-0.00767561,-0.01400439,-0.01376477,0.02537147,0.01974778,-0.02
 318148,-0.26881946,0.10947895,-0.02169156,0.53604092,-0.00267914,0.003
 72246,0.00074380,0.01064309,-0.00401544,-0.00719986,-0.00006024,0.0002
 7748,-0.00040966,-0.00291382,-0.00010887,0.00053176,-0.00600379,0.0104
 0252,0.00972048,0.03325717,-0.04013679,-0.10606717,0.02777933,0.002932
 50,-0.04379888,0.03699730,-0.01168277,-0.05303748,0.02267492,0.1205887
 8,-0.16145148,-0.23050258,-0.06466813,0.57812222,-0.04094173,-0.032088
 48,0.03074008,-0.07654569,-0.02052169,0.01250422,0.01215771,0.01058186
 ,-0.00466997,-0.00094779,0.00135827,0.00060979,0.00068153,0.00131558,-
 0.00238314,-0.00413254,-0.00015541,0.01098670,0.00123247,0.00668195,-0
 .00658826,0.00829886,-0.00976857,-0.00325495,-0.01178600,-0.00827419,0
 .02326959,-0.10586439,0.01674690,0.08530362,0.26019470,-0.02391844,0.0
 0729168,0.00857660,-0.00608464,-0.14172123,0.02303828,-0.00727321,-0.0
 1283913,0.01206104,0.00150417,-0.00072174,-0.00297756,-0.00102259,-0.0
 0122891,0.00228984,0.01066405,0.00379900,-0.02579380,0.00133406,-0.011
 37301,0.00246539,-0.00452700,0.00430369,0.01039376,-0.00554412,0.01687
 159,0.00833144,-0.00299393,-0.10432568,0.01718393,0.01659338,0.4585085
 0,0.02783573,0.00833697,0.00336217,0.00948674,0.04128662,-0.09191591,0
 .00166419,0.00627282,0.01804399,0.00147752,0.00013560,-0.00358992,-0.0
 0200686,-0.00145364,0.00487494,0.00561985,-0.00675005,-0.02215473,-0.0
 0292119,-0.01347661,0.01304878,-0.00865005,0.02005088,0.01136986,0.029
 79740,0.01668206,-0.04530986,0.08442747,-0.01328429,-0.19551292,-0.160
 14164,0.05330071,0.41147753,0.00066930,-0.00362894,-0.00203797,0.01009
 126,-0.01057413,-0.00084171,-0.00288457,-0.00056217,0.00103098,0.00074
 252,-0.00053723,-0.00073150,-0.00051740,-0.00100735,0.00114093,0.00257
 669,0.00061335,0.00115006,-0.00133011,-0.00189149,0.00250449,-0.001957
 25,0.00339548,0.00130272,0.00262281,0.00260809,-0.00300865,0.00303081,
 0.00838332,0.01538319,-0.03973515,0.02159239,0.01500528,0.02590122,0.0
 0076024,-0.00215682,0.00062100,-0.00475035,-0.03443722,-0.01637675,-0.
 00233493,-0.00109280,0.00458635,-0.00031016,0.00069248,0.00044837,0.00
 023785,0.00060831,-0.00081849,-0.00031094,0.00318972,0.00146452,0.0010
 3316,0.00434295,-0.00376019,0.00355592,-0.00743737,-0.00455006,-0.0069
 9580,-0.00822949,0.01516728,0.01281075,0.00232839,-0.03291893,0.013791
 51,-0.21805779,-0.10763945,-0.01833521,0.26035146,0.00179758,0.0042746
 1,0.00056725,-0.00073167,-0.00953765,0.00615152,-0.00049202,-0.0002242
 9,0.00013862,-0.00063994,0.00103932,0.00126028,0.00088286,0.00117722,-
 0.00241999,0.00145105,0.00327693,0.00129513,0.00221407,0.00224060,-0.0
 0500702,0.00343512,-0.00657040,-0.00215657,-0.00463891,-0.00753334,0.0
 0428800,0.01435511,-0.02277964,-0.02862504,0.01406132,-0.10846013,-0.1
 0398899,-0.03157765,0.14440137,0.13028300,-0.00019673,-0.00081212,0.00
 025617,0.00753414,0.00914528,-0.00990649,-0.07187799,-0.04169203,0.075
 68024,-0.00106669,-0.01092796,0.01663296,0.00501863,0.00525343,0.00508
 683,0.00011141,0.00007416,-0.00081885,-0.00049880,-0.00040552,-0.00056
 300,0.00018900,-0.00053188,0.00007551,-0.00052832,-0.00017092,0.000640
 65,0.00024417,0.00128919,0.00020810,-0.00182554,0.00089002,0.00100367,
 0.00065410,0.00050482,-0.00019533,0.06691263,-0.00187774,0.00349555,-0
 .00303191,-0.00798664,-0.01889723,0.02456625,-0.04316267,-0.13295246,0
 .12992302,0.00808567,0.00888323,-0.01376411,0.00421406,0.00070666,0.00
 039921,0.00023500,-0.00021196,-0.00084560,-0.00052680,-0.00049710,0.00
 041624,-0.00025999,0.00067185,0.00042271,0.00022733,0.00030153,-0.0006
 4538,-0.00040601,-0.00005504,0.00041306,0.00395738,-0.00144190,-0.0015
 5031,-0.00051246,-0.00104769,-0.00024585,0.04021175,0.14060982,-0.0015
 9666,-0.00138663,0.00031291,0.00552146,-0.00003492,0.00069035,0.072082
 17,0.12443853,-0.21859264,0.00829157,0.01241906,-0.01304154,0.00626787
 ,-0.00060436,0.00246276,0.00005907,-0.00033995,-0.00051464,-0.00045953
 ,-0.00021673,-0.00033080,0.00012551,-0.00026502,0.00009765,-0.00037330
 ,-0.00003002,0.00040359,0.00006503,0.00089750,0.00023094,-0.00032004,0
 .00017155,0.00075590,0.00015524,0.00005750,-0.00029774,-0.08610610,-0.
 13365325,0.22989661,-0.00099073,-0.00190098,-0.00154928,0.00771923,0.0
 0434842,0.00751303,-0.00527257,0.02272039,0.00294271,-0.06739208,0.079
 19236,-0.01236459,0.00541829,-0.01184611,0.00532052,0.00120657,0.00068
 248,0.00230781,-0.00004842,-0.00042490,-0.00003021,-0.00009295,-0.0000
 9466,0.00001823,-0.00003410,-0.00009516,0.00011968,0.00027424,0.000451
 55,-0.00010332,-0.00113543,-0.00006653,-0.00136091,0.00018309,-0.00011
 702,0.00003305,-0.00407872,-0.00222411,-0.00366739,0.06482512,0.001540
 06,-0.00177484,-0.00066770,0.00240235,0.00475741,0.00042110,0.00464699
 ,-0.01187461,0.00520219,0.08065188,-0.29617826,0.05074929,0.00463937,-
 0.01040047,0.00126507,-0.00029079,0.00162421,0.00255048,0.00018427,-0.
 00040666,-0.00029037,-0.00007995,-0.00020549,0.00013755,-0.00006016,-0
 .00000457,0.00013006,0.00008494,0.00026421,-0.00003275,-0.00042615,0.0
 0001523,-0.00025525,0.00004790,-0.00017156,-0.00006203,-0.00225793,0.0
 0038112,-0.00163438,-0.09018296,0.31324768,0.00199198,-0.00250911,-0.0
 0092764,0.00494245,0.00417300,0.00082434,0.00886130,-0.02247129,0.0081
 0168,-0.00982266,0.05108593,-0.06307675,-0.00683714,0.02770188,-0.0045
 9557,0.00330771,0.00084712,-0.00374653,-0.00022016,0.00073016,0.000637
 42,0.00001751,0.00052750,-0.00029191,0.00019884,0.00028012,-0.00033561
 ,-0.00000582,-0.00088595,0.00011275,-0.00002531,-0.00028421,-0.0008837
 4,-0.00008989,0.00000286,0.00026049,-0.00285285,-0.00187010,-0.0014212
 7,0.00149090,-0.05729208,0.06496042,-0.00007515,0.00020298,-0.00007282
 ,0.00017241,-0.00034371,-0.00002248,0.00253813,-0.00124603,0.00188790,
 -0.00193820,0.00834041,0.00894995,-0.11047664,0.09069724,0.08347565,0.
 00300854,0.00220389,0.00476625,-0.00497308,-0.00248760,-0.00351803,0.0
 0125960,-0.00003579,0.00059704,-0.00078353,-0.00015175,0.00038681,0.00
 882476,0.00193031,0.00301656,-0.00040661,0.00007945,0.00012207,-0.0000
 1556,-0.00008793,-0.00010882,-0.00066409,0.00000812,-0.00006600,-0.000
 59945,-0.00087509,-0.00089297,0.10443851,0.00001786,0.00022153,-0.0000
 9587,-0.00007721,-0.00038995,0.00019996,-0.00029069,-0.00045053,0.0018
 7203,-0.00655265,0.00885776,0.01087972,0.08923724,-0.16632022,-0.10197
 043,0.01699204,-0.02082900,-0.01895727,-0.00124277,0.00042171,-0.00209
 059,-0.00009030,0.00089109,0.00081236,0.00095182,-0.00100808,-0.001875
 06,0.00131540,-0.00163440,0.00496267,-0.00016973,-0.00001225,0.0002042
 3,0.00001764,-0.00007282,-0.00024865,-0.00050314,0.00004882,0.00021033
 ,-0.00037610,0.00081570,-0.00019051,-0.09842206,0.17995883,0.00032358,
 -0.00026409,0.00000589,-0.00060205,0.00068646,0.00001316,0.00163692,0.
 00337383,-0.00322010,0.01520735,-0.01789897,-0.01323846,0.08425510,-0.
 10132887,-0.15003531,-0.00349404,0.00739789,0.00902701,-0.00376318,0.0
 0100622,-0.00064950,0.00059419,-0.00012649,0.00046496,-0.00046819,0.00
 031724,0.00019087,0.00420349,0.00288516,0.00170857,0.00005591,0.000160
 44,-0.00023156,-0.00007909,-0.00010363,0.00001706,0.00084378,-0.000542
 22,-0.00068525,-0.00068175,-0.00026815,0.00049371,-0.09783344,0.104991
 65,0.15631215,-0.00012810,-0.00014331,0.00005938,-0.00022773,0.0001953
 9,-0.00017936,0.00021435,0.00002696,-0.00002444,0.00001281,-0.00014531
 ,0.00007664,-0.00102734,0.00015314,-0.00122004,-0.00341249,0.00765901,
 0.00325124,-0.10077872,0.08718919,0.09950716,0.00331697,-0.00162182,0.
 00204443,0.00495336,0.00109314,0.00329493,0.00046346,-0.00101426,0.001
 08481,0.00160741,0.00081041,0.00146833,-0.00041266,0.00006195,-0.00016
 319,-0.00004378,-0.00001489,-0.00005059,-0.00001026,-0.00003010,0.0000
 2992,0.00043866,-0.00040967,0.00021879,0.09787852,0.00001996,-0.000049
 95,-0.00001267,0.00003066,0.00013296,-0.00007222,0.00002450,0.00001783
 ,-0.00001488,0.00013858,-0.00011055,-0.00018826,-0.00058555,0.00146696
 ,-0.00023115,-0.00627221,0.00833322,0.00830552,0.08591192,-0.16172217,
 -0.11026547,0.01351220,-0.00629036,-0.02120926,0.00157446,-0.00562864,
 0.00138441,-0.00113701,-0.00132762,0.00259519,0.00021714,0.00066681,0.
 00027014,-0.00008241,0.00012574,-0.00004385,-0.00000089,-0.00001721,-0
 .00001945,0.00000125,-0.00001375,0.00000349,0.00031561,-0.00014328,-0.
 00036953,-0.09335297,0.16363197,0.00007024,-0.00012496,-0.00000677,-0.
 00037490,0.00014922,-0.00006639,0.00009260,-0.00010708,0.00002609,-0.0
 0019566,0.00036474,0.00030187,-0.00054952,-0.00168373,0.00031578,0.007
 35652,-0.01605392,-0.00771148,0.09948072,-0.11082503,-0.17419693,-0.00
 209565,0.00498199,0.00670328,0.00297944,0.00173184,0.00126031,0.002005
 53,0.00112705,-0.00291246,0.00115000,-0.00089215,0.00077905,-0.0001327
 2,0.00008900,-0.00050828,-0.00003708,0.00001174,0.00001346,0.00001398,
 0.00004875,-0.00006522,-0.00015604,0.00103248,0.00014414,-0.10771173,0
 .12096536,0.17617092,-0.00036226,-0.00006610,0.00013292,-0.00015680,0.
 00009410,-0.00017721,-0.00013616,0.00025657,-0.00004177,-0.00090381,-0
 .00026750,-0.00081389,0.00036220,-0.00046925,0.00018821,0.00671407,0.0
 0308579,0.00386449,0.00508171,0.00332912,-0.00436782,-0.06565998,-0.04
 646328,0.07348281,-0.00110263,-0.00981521,0.00635864,0.00091961,0.0010
 0097,0.00370197,0.00109169,-0.00084373,-0.00013212,-0.00005673,0.00017
 362,0.00017627,0.00015629,0.00006073,0.00011471,0.00002165,0.00001375,
 -0.00007262,0.00049367,0.00012949,0.00025854,-0.00289656,-0.00096375,-
 0.00160834,0.05716366,0.00002229,0.00018516,0.00001938,0.00003590,-0.0
 0043256,-0.00019662,0.00002044,0.00009921,0.00001020,0.00001719,-0.000
 39167,-0.00012070,-0.00078254,0.00005593,0.00147385,0.00245876,-0.0050
 2416,0.00017871,-0.01063450,-0.00728937,0.02366096,-0.04654174,-0.1587
 0632,0.13073700,0.00358524,0.01055616,-0.01029607,0.00193444,-0.001421
 75,-0.00247401,0.00013777,0.00093766,-0.00017227,0.00000797,-0.0000127
 8,0.00003379,-0.00000999,0.00002818,0.00002265,-0.00004880,-0.00006446
 ,0.00011957,0.00005858,0.00002113,0.00002362,-0.00040819,0.00076390,-0
 .00089688,0.05069713,0.16073323,0.00012556,0.00029267,-0.00004158,-0.0
 0015018,-0.00073738,-0.00019695,0.00003157,0.00009530,0.00004503,-0.00
 058244,-0.00014827,-0.00022385,-0.00001076,0.00008281,0.00042400,0.003
 94101,-0.00024320,0.00179654,0.00010734,-0.00343530,0.00415470,0.07313
 286,0.13200964,-0.21835914,0.00257840,0.01553221,-0.00969522,0.0028050
 7,-0.00169195,-0.00213742,0.00045907,0.00133374,-0.00016577,0.00000858
 ,-0.00012476,-0.00003801,0.00004375,0.00004940,0.00002969,-0.00001149,
 -0.00000047,-0.00001471,0.00022857,0.00009915,0.00012537,-0.00172363,0
 .00009816,-0.00071281,-0.08032606,-0.14275455,0.22475915,-0.00010995,-
 0.00030694,0.00007038,-0.00070109,0.00033084,-0.00024490,0.00020638,0.
 00007966,-0.00003935,0.00044096,0.00012625,0.00022545,0.00053229,-0.00
 002297,-0.00009977,0.00551697,-0.00009504,0.00423951,0.00089499,0.0013
 5697,0.00329545,0.00242624,0.01165570,-0.00024981,-0.06698745,0.078610
 87,0.02138651,0.00731747,-0.00565130,0.00221280,-0.00194350,-0.0011937
 5,-0.00269549,0.00043763,0.00031252,0.00014109,-0.00003971,-0.00002871
 ,-0.00004302,0.00000651,-0.00000836,-0.00002119,-0.00124197,-0.0005271
 7,-0.00067591,0.00005207,0.00064850,-0.00028738,-0.00072960,-0.0005499
 6,-0.00065722,0.05392177,-0.00004258,0.00012858,0.00004375,-0.00007918
 ,-0.00027605,0.00001025,0.00004819,0.00002701,0.00004353,0.00008234,0.
 00006828,0.00003293,0.00055514,-0.00051857,-0.00070132,0.00044937,-0.0
 0261951,0.00235075,0.00034272,-0.00031529,0.00037372,-0.00111812,0.000
 69958,0.00306507,0.07679777,-0.31909873,-0.04791109,0.00747687,-0.0128
 8425,-0.00704089,0.00002248,-0.00067252,-0.00195815,0.00046527,0.00107
 730,-0.00073800,-0.00005626,-0.00000618,-0.00003243,-0.00001912,-0.000
 01089,0.00003161,-0.00018665,-0.00037604,0.00005944,-0.00004867,0.0001
 6413,0.00008158,0.00004755,-0.00003749,-0.00045719,-0.08473711,0.33465
 063,-0.00017378,-0.00049389,0.00008600,-0.00018334,0.00078674,-0.00019
 361,0.00000228,-0.00010685,0.00013327,0.00031133,-0.00010319,0.0000890
 6,-0.00062036,0.00032716,0.00133389,0.00474237,0.00371555,-0.00179335,
 0.00351760,-0.00126845,-0.00356662,0.00399681,-0.02102347,0.00313463,0
 .02246892,-0.04978707,-0.06278040,-0.00512089,0.01710640,0.00998183,-0
 .00175699,-0.00089887,0.00004118,0.00081771,-0.00054599,-0.00121972,0.
 00000806,-0.00005288,-0.00000998,0.00000902,-0.00000129,-0.00003187,-0
 .00076020,0.00016381,-0.00044270,0.00003735,-0.00119553,0.00046545,-0.
 00073874,0.00063137,0.00025099,-0.02655715,0.05274645,0.05452194\\0.00
 000459,0.00000147,-0.00000364,-0.00000342,-0.00002125,0.00001757,-0.00
 000054,0.00001607,-0.00001851,0.00000024,0.00000129,0.00000546,0.00000
 682,0.00000780,0.00000149,-0.00001813,-0.00001045,-0.00002347,0.000001
 43,0.00000423,0.00000497,-0.00000018,-0.00000921,0.00000788,0.00001107
 ,-0.00000287,-0.00002052,0.00001207,0.00000005,0.00001250,-0.00001028,
 0.00001083,0.00000234,-0.00000083,0.00000615,0.00000622,0.00000070,-0.
 00000462,0.00000061,0.00000112,0.00000145,0.00000199,0.00000124,-0.000
 00008,0.00000021,-0.00000081,0.00000092,0.00000005,0.00000074,0.000001
 13,0.00000056,-0.00000584,-0.00000290,0.00000431\\\@


 IF NO USE IS MADE OF THE LABOR OF PAST AGES,
 THE WORLD MUST REMAIN ALWAYS IN THE INFANCY OF KNOWLEDGE.

                          -- CICERO
 Job cpu time:       0 days  2 hours 54 minutes 42.4 seconds.
 Elapsed time:       0 days  0 hours 43 minutes 41.7 seconds.
 File lengths (MBytes):  RWF=    206 Int=      0 D2E=      0 Chk=     12 Scr=      1
 Normal termination of Gaussian 16 at Wed May 17 12:02:40 2023.
### All Done ###
