### Starting Gaussian ###
 Entering Gaussian System, Link 0=g16
 Initial command:
 /cluster/software/gaussian/gaussian-16-A.03/avx2/g16/l1.exe "/local/scratch/yxie/Gau-20506.inp" -scrdir="/local/scratch/yxie/"
 Entering Link 1 = /cluster/software/gaussian/gaussian-16-A.03/avx2/g16/l1.exe PID=     20507.
  
 Copyright (c) 1988,1990,1992,1993,1995,1998,2003,2009,2016,
            Gaussian, Inc.  All Rights Reserved.
  
 This is part of the Gaussian(R) 16 program.  It is based on
 the Gaussian(R) 09 system (copyright 2009, Gaussian, Inc.),
 the Gaussian(R) 03 system (copyright 2003, Gaussian, Inc.),
 the Gaussian(R) 98 system (copyright 1998, Gaussian, Inc.),
 the Gaussian(R) 94 system (copyright 1995, Gaussian, Inc.),
 the Gaussian 92(TM) system (copyright 1992, Gaussian, Inc.),
 the Gaussian 90(TM) system (copyright 1990, Gaussian, Inc.),
 the Gaussian 88(TM) system (copyright 1988, Gaussian, Inc.),
 the Gaussian 86(TM) system (copyright 1986, Carnegie Mellon
 University), and the Gaussian 82(TM) system (copyright 1983,
 Carnegie Mellon University). Gaussian is a federally registered
 trademark of Gaussian, Inc.
  
 This software contains proprietary and confidential information,
 including trade secrets, belonging to Gaussian, Inc.
  
 This software is provided under written license and may be
 used, copied, transmitted, or stored only in accord with that
 written license.
  
 The following legend is applicable only to US Government
 contracts under FAR:
  
                    RESTRICTED RIGHTS LEGEND
  
 Use, reproduction and disclosure by the US Government is
 subject to restrictions as set forth in subparagraphs (a)
 and (c) of the Commercial Computer Software - Restricted
 Rights clause in FAR 52.227-19.
  
 Gaussian, Inc.
 340 Quinnipiac St., Bldg. 40, Wallingford CT 06492
  
  
 ---------------------------------------------------------------
 Warning -- This program may not be used in any manner that
 competes with the business of Gaussian, Inc. or will provide
 assistance to any competitor of Gaussian, Inc.  The licensee
 of this program is prohibited from giving any competitor of
 Gaussian, Inc. access to this program.  By using this program,
 the user acknowledges that Gaussian, Inc. is engaged in the
 business of creating and licensing software in the field of
 computational chemistry and represents and warrants to the
 licensee that it is not a competitor of Gaussian, Inc. and that
 it will not use this program in any manner prohibited above.
 ---------------------------------------------------------------
  

 Cite this work as:
 Gaussian 16, Revision A.03,
 M. J. Frisch, G. W. Trucks, H. B. Schlegel, G. E. Scuseria, 
 M. A. Robb, J. R. Cheeseman, G. Scalmani, V. Barone, 
 G. A. Petersson, H. Nakatsuji, X. Li, M. Caricato, A. V. Marenich, 
 J. Bloino, B. G. Janesko, R. Gomperts, B. Mennucci, H. P. Hratchian, 
 J. V. Ortiz, A. F. Izmaylov, J. L. Sonnenberg, D. Williams-Young, 
 F. Ding, F. Lipparini, F. Egidi, J. Goings, B. Peng, A. Petrone, 
 T. Henderson, D. Ranasinghe, V. G. Zakrzewski, J. Gao, N. Rega, 
 G. Zheng, W. Liang, M. Hada, M. Ehara, K. Toyota, R. Fukuda, 
 J. Hasegawa, M. Ishida, T. Nakajima, Y. Honda, O. Kitao, H. Nakai, 
 T. Vreven, K. Throssell, J. A. Montgomery, Jr., J. E. Peralta, 
 F. Ogliaro, M. J. Bearpark, J. J. Heyd, E. N. Brothers, K. N. Kudin, 
 V. N. Staroverov, T. A. Keith, R. Kobayashi, J. Normand, 
 K. Raghavachari, A. P. Rendell, J. C. Burant, S. S. Iyengar, 
 J. Tomasi, M. Cossi, J. M. Millam, M. Klene, C. Adamo, R. Cammi, 
 J. W. Ochterski, R. L. Martin, K. Morokuma, O. Farkas, 
 J. B. Foresman, and D. J. Fox, Gaussian, Inc., Wallingford CT, 2016.
 
 ******************************************
 Gaussian 16:  ES64L-G16RevA.03 25-Dec-2016
                17-May-2023 
 ******************************************
 %chk=OdC1SCdCSSCdC2CdCdC[SH]dS12.chk
 %NProcShared=20
 Will use up to   20 processors via shared memory.
 -----------------------------
 # opt freq b3lyp/6-31g(2df,p)
 -----------------------------
 1/18=20,19=15,26=3,38=1/1,3;
 2/9=110,12=2,17=6,18=5,40=1/2;
 3/5=1,6=6,7=104,11=2,25=1,30=1,71=1,74=-5/1,2,3;
 4//1;
 5/5=2,38=5/2;
 6/7=2,8=2,9=2,10=2,28=1/1;
 7//1,2,3,16;
 1/18=20,19=15,26=3/3(2);
 2/9=110/2;
 99//99;
 2/9=110/2;
 3/5=1,6=6,7=104,11=2,25=1,30=1,71=1,74=-5/1,2,3;
 4/5=5,16=3,69=1/1;
 5/5=2,38=5/2;
 7//1,2,3,16;
 1/18=20,19=15,26=3/3(-5);
 2/9=110/2;
 6/7=2,8=2,9=2,10=2,19=2,28=1/1;
 99/9=1/99;
 -------------------
 Title Card Required
 -------------------
 Symbolic Z-matrix:
 Charge =  0 Multiplicity = 1
 O                     6.54715   1.93388   0.64218 
 C                     6.77081   2.67112  -0.2746 
 S                     4.81508   2.22923  -0.97297 
 C                     5.47764   0.78117  -1.56235 
 C                     6.14697   1.46048  -2.50291 
 S                     7.70019   0.87515  -2.69922 
 S                     8.31716   2.46761  -3.63637 
 C                     10.01774   2.03351  -3.07434 
 C                     10.0227   3.28848  -2.71804 
 C                     10.48694   4.40986  -3.76365 
 C                     11.56391   5.23262  -3.97359 
 C                     12.32663   5.09792  -2.90525 
 S                     11.25182   4.24494  -1.05812 
 S                     9.23768   3.19406  -0.84674 
 H                     5.86248   0.0116   -0.82957 
 H                     5.79826   2.5679   -2.7708 
 H                     10.45461   1.54008  -2.09828 
 H                     9.91594   4.50091  -4.68312 
 H                     13.38837   5.66797  -3.14674 
 H                     12.55305   3.60104  -1.40427 
 

 GradGradGradGradGradGradGradGradGradGradGradGradGradGradGradGradGradGrad
 Berny optimization.
 Initialization pass.
                           ----------------------------
                           !    Initial Parameters    !
                           ! (Angstroms and Degrees)  !
 --------------------------                            --------------------------
 ! Name  Definition              Value          Derivative Info.                !
 --------------------------------------------------------------------------------
 ! R1    R(1,2)                  1.1975         estimate D2E/DX2                !
 ! R2    R(2,3)                  2.1232         estimate D2E/DX2                !
 ! R3    R(3,4)                  1.698          estimate D2E/DX2                !
 ! R4    R(3,5)                  2.1692         estimate D2E/DX2                !
 ! R5    R(4,5)                  1.3394         estimate D2E/DX2                !
 ! R6    R(4,15)                 1.1302         estimate D2E/DX2                !
 ! R7    R(5,6)                  1.6714         estimate D2E/DX2                !
 ! R8    R(5,16)                 1.1915         estimate D2E/DX2                !
 ! R9    R(6,7)                  1.948          estimate D2E/DX2                !
 ! R10   R(7,8)                  1.8429         estimate D2E/DX2                !
 ! R11   R(7,9)                  2.1038         estimate D2E/DX2                !
 ! R12   R(8,9)                  1.3046         estimate D2E/DX2                !
 ! R13   R(8,17)                 1.1777         estimate D2E/DX2                !
 ! R14   R(9,10)                 1.602          estimate D2E/DX2                !
 ! R15   R(9,14)                 2.0315         estimate D2E/DX2                !
 ! R16   R(10,11)                1.3714         estimate D2E/DX2                !
 ! R17   R(10,18)                1.0862         estimate D2E/DX2                !
 ! R18   R(11,12)                1.3196         estimate D2E/DX2                !
 ! R19   R(12,19)                1.2291         estimate D2E/DX2                !
 ! R20   R(13,14)                2.2816         estimate D2E/DX2                !
 ! R21   R(13,20)                1.4925         estimate D2E/DX2                !
 ! A1    A(1,2,3)               87.2283         estimate D2E/DX2                !
 ! A2    A(2,3,4)               86.1144         estimate D2E/DX2                !
 ! A3    A(2,3,5)               74.9406         estimate D2E/DX2                !
 ! A4    A(3,4,15)             119.2427         estimate D2E/DX2                !
 ! A5    A(5,4,15)             129.0848         estimate D2E/DX2                !
 ! A6    A(3,5,6)              141.0332         estimate D2E/DX2                !
 ! A7    A(3,5,16)              69.4827         estimate D2E/DX2                !
 ! A8    A(4,5,6)              111.6685         estimate D2E/DX2                !
 ! A9    A(4,5,16)             118.8808         estimate D2E/DX2                !
 ! A10   A(6,5,16)             124.8224         estimate D2E/DX2                !
 ! A11   A(5,6,7)               93.7006         estimate D2E/DX2                !
 ! A12   A(6,7,8)               87.3052         estimate D2E/DX2                !
 ! A13   A(6,7,9)              111.4523         estimate D2E/DX2                !
 ! A14   A(7,8,17)             133.9268         estimate D2E/DX2                !
 ! A15   A(9,8,17)             100.0949         estimate D2E/DX2                !
 ! A16   A(7,9,10)             102.8941         estimate D2E/DX2                !
 ! A17   A(7,9,14)              94.0531         estimate D2E/DX2                !
 ! A18   A(8,9,10)             119.7503         estimate D2E/DX2                !
 ! A19   A(8,9,14)             101.8529         estimate D2E/DX2                !
 ! A20   A(10,9,14)            138.2239         estimate D2E/DX2                !
 ! A21   A(9,10,11)            138.368          estimate D2E/DX2                !
 ! A22   A(9,10,18)            117.3139         estimate D2E/DX2                !
 ! A23   A(11,10,18)           103.4707         estimate D2E/DX2                !
 ! A24   A(10,11,12)           105.5884         estimate D2E/DX2                !
 ! A25   A(11,12,19)           107.0318         estimate D2E/DX2                !
 ! A26   A(14,13,20)           126.328          estimate D2E/DX2                !
 ! A27   A(9,14,13)             63.3928         estimate D2E/DX2                !
 ! D1    D(1,2,3,4)            -79.0269         estimate D2E/DX2                !
 ! D2    D(1,2,3,5)           -116.0702         estimate D2E/DX2                !
 ! D3    D(2,3,4,15)            66.1427         estimate D2E/DX2                !
 ! D4    D(2,3,5,6)             26.712          estimate D2E/DX2                !
 ! D5    D(2,3,5,16)           -93.7423         estimate D2E/DX2                !
 ! D6    D(15,4,5,6)             9.47           estimate D2E/DX2                !
 ! D7    D(15,4,5,16)         -147.5859         estimate D2E/DX2                !
 ! D8    D(3,5,6,7)           -107.9948         estimate D2E/DX2                !
 ! D9    D(4,5,6,7)           -162.9905         estimate D2E/DX2                !
 ! D10   D(16,5,6,7)            -7.5608         estimate D2E/DX2                !
 ! D11   D(5,6,7,8)            155.5224         estimate D2E/DX2                !
 ! D12   D(5,6,7,9)            125.6896         estimate D2E/DX2                !
 ! D13   D(6,7,8,17)           -34.7528         estimate D2E/DX2                !
 ! D14   D(6,7,9,10)           171.1279         estimate D2E/DX2                !
 ! D15   D(6,7,9,14)           -47.319          estimate D2E/DX2                !
 ! D16   D(17,8,9,10)          138.4567         estimate D2E/DX2                !
 ! D17   D(17,8,9,14)          -45.4826         estimate D2E/DX2                !
 ! D18   D(7,9,10,11)         -169.6662         estimate D2E/DX2                !
 ! D19   D(7,9,10,18)           -2.3292         estimate D2E/DX2                !
 ! D20   D(8,9,10,11)         -106.8714         estimate D2E/DX2                !
 ! D21   D(8,9,10,18)           60.4656         estimate D2E/DX2                !
 ! D22   D(14,9,10,11)          78.9208         estimate D2E/DX2                !
 ! D23   D(14,9,10,18)        -113.7422         estimate D2E/DX2                !
 ! D24   D(7,9,14,13)         -173.7608         estimate D2E/DX2                !
 ! D25   D(8,9,14,13)          125.9017         estimate D2E/DX2                !
 ! D26   D(10,9,14,13)         -59.2348         estimate D2E/DX2                !
 ! D27   D(9,10,11,12)          -8.2753         estimate D2E/DX2                !
 ! D28   D(18,10,11,12)       -176.7217         estimate D2E/DX2                !
 ! D29   D(10,11,12,19)        170.3708         estimate D2E/DX2                !
 ! D30   D(20,13,14,9)         -68.4006         estimate D2E/DX2                !
 --------------------------------------------------------------------------------
 Trust Radius=3.00D-01 FncErr=1.00D-07 GrdErr=1.00D-06 EigMax=2.50D+02 EigMin=1.00D-04
 Number of steps in this run=     88 maximum allowed number of steps=    120.
 GradGradGradGradGradGradGradGradGradGradGradGradGradGradGradGradGradGrad

                          Input orientation:                          
 ---------------------------------------------------------------------
 Center     Atomic      Atomic             Coordinates (Angstroms)
 Number     Number       Type             X           Y           Z
 ---------------------------------------------------------------------
      1          8           0        6.547150    1.933880    0.642180
      2          6           0        6.770810    2.671120   -0.274600
      3         16           0        4.815080    2.229230   -0.972970
      4          6           0        5.477640    0.781170   -1.562350
      5          6           0        6.146970    1.460480   -2.502910
      6         16           0        7.700190    0.875150   -2.699220
      7         16           0        8.317160    2.467610   -3.636370
      8          6           0       10.017740    2.033510   -3.074340
      9          6           0       10.022700    3.288480   -2.718040
     10          6           0       10.486940    4.409860   -3.763650
     11          6           0       11.563910    5.232620   -3.973590
     12          6           0       12.326630    5.097920   -2.905250
     13         16           0       11.251820    4.244940   -1.058120
     14         16           0        9.237680    3.194060   -0.846740
     15          1           0        5.862480    0.011600   -0.829570
     16          1           0        5.798260    2.567900   -2.770800
     17          1           0       10.454610    1.540080   -2.098280
     18          1           0        9.915940    4.500910   -4.683120
     19          1           0       13.388370    5.667970   -3.146740
     20          1           0       12.553050    3.601040   -1.404270
 ---------------------------------------------------------------------
                    Distance matrix (angstroms):
                    1          2          3          4          5
     1  O    0.000000
     2  C    1.197511   0.000000
     3  S    2.386631   2.123174   0.000000
     4  C    2.707867   2.627261   1.698008   0.000000
     5  C    3.205596   2.611550   2.169245   1.339447   0.000000
     6  S    3.689900   3.157220   3.624546   2.498206   1.671419
     7  S    4.660879   3.705956   4.406256   3.899809   2.647408
     8  C    5.086005   4.334472   5.614422   4.946411   3.954460
     9  C    5.020505   4.114161   5.593441   5.317875   4.290588
    10  C    6.408101   5.385751   6.686781   6.565531   5.396633
    11  C    7.573302   6.574011   7.973129   7.916576   6.762779
    12  C    7.483168   6.608844   8.269611   8.206484   7.181994
    13  S    5.510530   4.813550   6.745514   6.752267   5.991672
    14  S    3.323235   2.585780   4.528380   4.524603   3.911609
    15  H    2.515945   2.864629   2.456724   1.130180   2.231648
    16  H    3.551232   2.680955   2.076905   2.180723   1.191530
    17  H    4.788887   4.263267   5.791852   5.062943   4.327335
    18  H    6.804205   5.716207   6.704067   6.578311   5.310618
    19  H    8.666120   7.811683   9.489547   9.432431   8.399724
    20  H    6.560352   5.964495   7.870455   7.618273   6.843016
                    6          7          8          9         10
     6  S    0.000000
     7  S    1.948033   0.000000
     8  C    2.617929   1.842903   0.000000
     9  C    3.349413   2.103812   1.304578   0.000000
    10  C    4.625274   2.914872   2.518400   1.601971   0.000000
    11  C    5.961535   4.277895   3.665187   2.780542   1.371449
    12  C    6.267231   4.850661   3.840595   2.935509   2.143534
    13  S    5.163600   4.291678   3.237054   2.276156   2.816404
    14  S    3.342589   3.026074   2.630128   2.031486   3.398115
    15  H    2.760161   4.464926   5.137441   5.622428   7.024183
    16  H    2.547129   2.665357   4.264003   4.285780   5.134422
    17  H    2.896565   2.791904   1.177719   1.904613   3.318153
    18  H    4.689514   2.790357   2.947304   2.311476   1.086166
    19  H    7.451630   6.016578   4.957387   4.144091   3.222067
    20  H    5.714685   4.920335   3.416735   2.868163   3.238777
                   11         12         13         14         15
    11  C    0.000000
    12  C    1.319559   0.000000
    13  S    3.094007   2.301017   0.000000
    14  S    4.398211   4.171781   2.281620   0.000000
    15  H    8.345670   8.483179   6.856996   4.639000   0.000000
    16  H    6.464531   7.002763   5.957101   3.990450   3.210478
    17  H    4.287445   4.100474   3.005619   2.404770   5.003352
    18  H    1.937689   3.054287   3.871785   4.109222   7.171770
    19  H    2.049845   1.229051   3.309410   5.351491   9.695505
    20  H    3.200290   2.131867   1.492524   3.386466   7.614334
                   16         17         18         19         20
    16  H    0.000000
    17  H    4.815630   0.000000
    18  H    4.934449   3.967125   0.000000
    19  H    8.207407   5.171624   3.972438   0.000000
    20  H    6.968642   3.022029   4.302903   2.829516   0.000000
 Stoichiometry    C8H6OS5
 Framework group  C1[X(C8H6OS5)]
 Deg. of freedom    54
 Full point group                 C1      NOp   1
 Largest Abelian subgroup         C1      NOp   1
 Largest concise Abelian subgroup C1      NOp   1
                         Standard orientation:                         
 ---------------------------------------------------------------------
 Center     Atomic      Atomic             Coordinates (Angstroms)
 Number     Number       Type             X           Y           Z
 ---------------------------------------------------------------------
      1          8           0        2.636308    2.078381   -0.399810
      2          6           0        1.925901    1.460037    0.339788
      3         16           0        3.681107    0.512453    1.067253
      4          6           0        3.600222   -0.451113   -0.328537
      5          6           0        2.519276   -1.076540    0.155730
      6         16           0        1.369307   -1.329287   -1.030581
      7         16           0       -0.059536   -1.667902    0.249489
      8          6           0       -1.241876   -1.144420   -1.063649
      9          6           0       -1.712249   -0.411767   -0.092107
     10          6           0       -2.826937   -1.012869    0.888943
     11          6           0       -4.170869   -0.871087    1.122647
     12          6           0       -4.552621    0.154875    0.385827
     13         16           0       -2.847620    1.552717   -0.272725
     14         16           0       -0.583704    1.269690   -0.253429
     15          1           0        3.752120    0.028919   -1.340369
     16          1           0        2.289120   -1.007616    1.322786
     17          1           0       -1.202870   -0.343334   -1.926065
     18          1           0       -2.562491   -1.897249    1.461391
     19          1           0       -5.780775    0.186082    0.420890
     20          1           0       -3.783522    1.120730   -1.352123
 ---------------------------------------------------------------------
 Rotational constants (GHZ):           0.8821941           0.2569087           0.2223963
 Standard basis: 6-31G(2df,p) (6D, 7F)
 There are   484 symmetry adapted cartesian basis functions of A   symmetry.
 There are   442 symmetry adapted basis functions of A   symmetry.
   442 basis functions,   778 primitive gaussians,   484 cartesian basis functions
    71 alpha electrons       71 beta electrons
       nuclear repulsion energy      1474.6314260682 Hartrees.
 NAtoms=   20 NActive=   20 NUniq=   20 SFac= 1.00D+00 NAtFMM=   60 NAOKFM=F Big=F
 Integral buffers will be    131072 words long.
 Raffenetti 2 integral format.
 Two-electron integral symmetry is turned on.
 One-electron integrals computed using PRISM.
 PrsmSu:  requested number of processors reduced to:  12 ShMem   1 Linda.
 NBasis=   442 RedAO= T EigKep=  6.29D-04  NBF=   442
 NBsUse=   442 1.00D-06 EigRej= -1.00D+00 NBFU=   442
 ExpMin= 1.17D-01 ExpMax= 2.19D+04 ExpMxC= 3.30D+03 IAcc=3 IRadAn=         5 AccDes= 0.00D+00
 Harris functional with IExCor=  402 and IRadAn=       5 diagonalized for initial guess.
 HarFok:  IExCor=  402 AccDes= 0.00D+00 IRadAn=         5 IDoV= 1 UseB2=F ITyADJ=14
 ICtDFT=  3500011 ScaDFX=  1.000000  1.000000  1.000000  1.000000
 FoFCou: FMM=F IPFlag=           0 FMFlag=      100000 FMFlg1=           0
         NFxFlg=           0 DoJE=T BraDBF=F KetDBF=T FulRan=T
         wScrn=  0.000000 ICntrl=       500 IOpCl=  0 I1Cent=   200000004 NGrid=           0
         NMat0=    1 NMatS0=      1 NMatT0=    0 NMatD0=    1 NMtDS0=    0 NMtDT0=    0
 Petite list used in FoFCou.
 Requested convergence on RMS density matrix=1.00D-08 within 128 cycles.
 Requested convergence on MAX density matrix=1.00D-06.
 Requested convergence on             energy=1.00D-06.
 No special actions if energy rises.
 Integral accuracy reduced to 1.0D-05 until final iterations.
 EnCoef did     7 forward-backward iterations
 EnCoef did   100 forward-backward iterations
 EnCoef did     4 forward-backward iterations
 Initial convergence to 1.0D-05 achieved.  Increase integral accuracy.
 SCF Done:  E(RB3LYP) =  -2373.90804318     A.U. after   29 cycles
            NFock= 29  Conv=0.67D-08     -V/T= 2.0032

 **********************************************************************

            Population analysis using the SCF density.

 **********************************************************************

 Orbital symmetries:
       Occupied  (A) (A) (A) (A) (A) (A) (A) (A) (A) (A) (A) (A)
                 (A) (A) (A) (A) (A) (A) (A) (A) (A) (A) (A) (A)
                 (A) (A) (A) (A) (A) (A) (A) (A) (A) (A) (A) (A)
                 (A) (A) (A) (A) (A) (A) (A) (A) (A) (A) (A) (A)
                 (A) (A) (A) (A) (A) (A) (A) (A) (A) (A) (A) (A)
                 (A) (A) (A) (A) (A) (A) (A) (A) (A) (A) (A)
       Virtual   (A) (A) (A) (A) (A) (A) (A) (A) (A) (A) (A) (A)
                 (A) (A) (A) (A) (A) (A) (A) (A) (A) (A) (A) (A)
                 (A) (A) (A) (A) (A) (A) (A) (A) (A) (A) (A) (A)
                 (A) (A) (A) (A) (A) (A) (A) (A) (A) (A) (A) (A)
                 (A) (A) (A) (A) (A) (A) (A) (A) (A) (A) (A) (A)
                 (A) (A) (A) (A) (A) (A) (A) (A) (A) (A) (A) (A)
                 (A) (A) (A) (A) (A) (A) (A) (A) (A) (A) (A) (A)
                 (A) (A) (A) (A) (A) (A) (A) (A) (A) (A) (A) (A)
                 (A) (A) (A) (A) (A) (A) (A) (A) (A) (A) (A) (A)
                 (A) (A) (A) (A) (A) (A) (A) (A) (A) (A) (A) (A)
                 (A) (A) (A) (A) (A) (A) (A) (A) (A) (A) (A) (A)
                 (A) (A) (A) (A) (A) (A) (A) (A) (A) (A) (A) (A)
                 (A) (A) (A) (A) (A) (A) (A) (A) (A) (A) (A) (A)
                 (A) (A) (A) (A) (A) (A) (A) (A) (A) (A) (A) (A)
                 (A) (A) (A) (A) (A) (A) (A) (A) (A) (A) (A) (A)
                 (A) (A) (A) (A) (A) (A) (A) (A) (A) (A) (A) (A)
                 (A) (A) (A) (A) (A) (A) (A) (A) (A) (A) (A) (A)
                 (A) (A) (A) (A) (A) (A) (A) (A) (A) (A) (A) (A)
                 (A) (A) (A) (A) (A) (A) (A) (A) (A) (A) (A) (A)
                 (A) (A) (A) (A) (A) (A) (A) (A) (A) (A) (A) (A)
                 (A) (A) (A) (A) (A) (A) (A) (A) (A) (A) (A) (A)
                 (A) (A) (A) (A) (A) (A) (A) (A) (A) (A) (A) (A)
                 (A) (A) (A) (A) (A) (A) (A) (A) (A) (A) (A) (A)
                 (A) (A) (A) (A) (A) (A) (A) (A) (A) (A) (A) (A)
                 (A) (A) (A) (A) (A) (A) (A) (A) (A) (A) (A) (A)
                 (A) (A) (A) (A) (A) (A) (A) (A) (A) (A) (A) (A)
                 (A) (A) (A) (A) (A) (A) (A) (A) (A) (A) (A) (A)
                 (A) (A) (A) (A) (A) (A) (A) (A) (A) (A) (A) (A)
                 (A) (A) (A) (A) (A) (A) (A) (A) (A) (A) (A) (A)
                 (A) (A) (A) (A) (A) (A) (A) (A) (A) (A) (A) (A)
                 (A) (A) (A) (A) (A) (A) (A) (A) (A) (A) (A)
 The electronic state is 1-A.
 Alpha  occ. eigenvalues --  -88.95260 -88.93738 -88.92666 -88.89180 -88.88941
 Alpha  occ. eigenvalues --  -19.18456 -10.31624 -10.29364 -10.27478 -10.26617
 Alpha  occ. eigenvalues --  -10.26428 -10.24003 -10.23175 -10.18747  -8.01559
 Alpha  occ. eigenvalues --   -8.00331  -7.98850  -7.95640  -7.95242  -5.98085
 Alpha  occ. eigenvalues --   -5.97749  -5.96950  -5.96841  -5.96340  -5.95867
 Alpha  occ. eigenvalues --   -5.95243  -5.94795  -5.94622  -5.92010  -5.91855
 Alpha  occ. eigenvalues --   -5.91680  -5.91235  -5.91120  -5.90899  -1.08835
 Alpha  occ. eigenvalues --   -0.94207  -0.90340  -0.85050  -0.82253  -0.77081
 Alpha  occ. eigenvalues --   -0.71458  -0.68596  -0.66784  -0.62752  -0.60106
 Alpha  occ. eigenvalues --   -0.57957  -0.54555  -0.51143  -0.49933  -0.48945
 Alpha  occ. eigenvalues --   -0.46118  -0.45493  -0.44604  -0.44247  -0.42255
 Alpha  occ. eigenvalues --   -0.41453  -0.39736  -0.38953  -0.37928  -0.37154
 Alpha  occ. eigenvalues --   -0.36250  -0.34711  -0.33225  -0.32439  -0.28834
 Alpha  occ. eigenvalues --   -0.28321  -0.26392  -0.23277  -0.22463  -0.20100
 Alpha  occ. eigenvalues --   -0.18332
 Alpha virt. eigenvalues --   -0.14034  -0.13513  -0.08297  -0.07390  -0.06360
 Alpha virt. eigenvalues --   -0.05420  -0.04599  -0.02354  -0.02290   0.00366
 Alpha virt. eigenvalues --    0.03563   0.05551   0.06354   0.06922   0.08316
 Alpha virt. eigenvalues --    0.09926   0.10517   0.14611   0.15221   0.16281
 Alpha virt. eigenvalues --    0.18097   0.19691   0.20881   0.22624   0.23067
 Alpha virt. eigenvalues --    0.23632   0.24797   0.25711   0.26465   0.28120
 Alpha virt. eigenvalues --    0.28548   0.28844   0.29111   0.30325   0.31496
 Alpha virt. eigenvalues --    0.32495   0.33118   0.34274   0.35064   0.35462
 Alpha virt. eigenvalues --    0.36875   0.37514   0.37687   0.38364   0.39652
 Alpha virt. eigenvalues --    0.40221   0.41380   0.41680   0.42169   0.43326
 Alpha virt. eigenvalues --    0.44482   0.45193   0.46485   0.47336   0.48296
 Alpha virt. eigenvalues --    0.48711   0.50256   0.50669   0.51360   0.51629
 Alpha virt. eigenvalues --    0.52639   0.54045   0.54859   0.55716   0.57201
 Alpha virt. eigenvalues --    0.57640   0.58782   0.59465   0.59826   0.60434
 Alpha virt. eigenvalues --    0.61849   0.62290   0.63025   0.64240   0.64696
 Alpha virt. eigenvalues --    0.65617   0.66228   0.67811   0.68551   0.69165
 Alpha virt. eigenvalues --    0.69623   0.70418   0.70441   0.73223   0.73648
 Alpha virt. eigenvalues --    0.74902   0.75245   0.75485   0.76104   0.77593
 Alpha virt. eigenvalues --    0.78120   0.80023   0.81060   0.82232   0.82875
 Alpha virt. eigenvalues --    0.83854   0.84972   0.85620   0.87857   0.88612
 Alpha virt. eigenvalues --    0.89169   0.91746   0.92245   0.92938   0.94411
 Alpha virt. eigenvalues --    0.95290   0.96558   0.97543   0.98798   1.00909
 Alpha virt. eigenvalues --    1.01863   1.02987   1.04875   1.05765   1.07516
 Alpha virt. eigenvalues --    1.09056   1.11596   1.12407   1.13721   1.15106
 Alpha virt. eigenvalues --    1.15431   1.17644   1.19552   1.20415   1.23366
 Alpha virt. eigenvalues --    1.23665   1.24220   1.25963   1.28389   1.29900
 Alpha virt. eigenvalues --    1.32088   1.32722   1.33506   1.35051   1.36838
 Alpha virt. eigenvalues --    1.38755   1.40294   1.41234   1.42291   1.42993
 Alpha virt. eigenvalues --    1.44425   1.44758   1.45699   1.48642   1.48744
 Alpha virt. eigenvalues --    1.51489   1.52783   1.54063   1.54851   1.55850
 Alpha virt. eigenvalues --    1.56219   1.57907   1.58247   1.59118   1.60485
 Alpha virt. eigenvalues --    1.60747   1.62289   1.62803   1.63741   1.64736
 Alpha virt. eigenvalues --    1.66512   1.68962   1.69531   1.70674   1.71360
 Alpha virt. eigenvalues --    1.72347   1.72540   1.74097   1.76152   1.76859
 Alpha virt. eigenvalues --    1.77584   1.79620   1.80762   1.81960   1.83634
 Alpha virt. eigenvalues --    1.84812   1.85079   1.86256   1.87352   1.87878
 Alpha virt. eigenvalues --    1.88459   1.89652   1.91703   1.93123   1.94008
 Alpha virt. eigenvalues --    1.94728   1.95637   1.98321   1.99933   2.00804
 Alpha virt. eigenvalues --    2.02489   2.03779   2.05033   2.06937   2.08109
 Alpha virt. eigenvalues --    2.09142   2.09917   2.12086   2.15462   2.16593
 Alpha virt. eigenvalues --    2.19623   2.20476   2.23404   2.25224   2.27464
 Alpha virt. eigenvalues --    2.28370   2.29633   2.30055   2.30875   2.31577
 Alpha virt. eigenvalues --    2.32693   2.34218   2.35876   2.37107   2.38912
 Alpha virt. eigenvalues --    2.39974   2.41640   2.43041   2.44789   2.45635
 Alpha virt. eigenvalues --    2.46633   2.47748   2.48539   2.50200   2.51900
 Alpha virt. eigenvalues --    2.53551   2.55154   2.57141   2.59555   2.61914
 Alpha virt. eigenvalues --    2.64128   2.66610   2.68733   2.69708   2.70656
 Alpha virt. eigenvalues --    2.71221   2.72835   2.75590   2.77595   2.81039
 Alpha virt. eigenvalues --    2.83159   2.85056   2.87023   2.87696   2.90449
 Alpha virt. eigenvalues --    2.91420   2.92841   2.94276   2.95279   2.97806
 Alpha virt. eigenvalues --    2.98912   2.99762   3.01593   3.04365   3.05629
 Alpha virt. eigenvalues --    3.07159   3.08988   3.10681   3.11088   3.12835
 Alpha virt. eigenvalues --    3.17037   3.18663   3.19664   3.21808   3.22648
 Alpha virt. eigenvalues --    3.24365   3.28427   3.28782   3.30604   3.32285
 Alpha virt. eigenvalues --    3.34792   3.38194   3.39569   3.40951   3.44153
 Alpha virt. eigenvalues --    3.46021   3.47702   3.48538   3.49664   3.52526
 Alpha virt. eigenvalues --    3.55555   3.58343   3.59795   3.62884   3.64722
 Alpha virt. eigenvalues --    3.66640   3.68006   3.72726   3.73797   3.76540
 Alpha virt. eigenvalues --    3.78061   3.81467   3.87421   3.89544   3.90908
 Alpha virt. eigenvalues --    3.95711   3.97479   4.00489   4.05821   4.07883
 Alpha virt. eigenvalues --    4.11582   4.13974   4.15975   4.18526   4.23462
 Alpha virt. eigenvalues --    4.25353   4.27094   4.28400   4.29169   4.32418
 Alpha virt. eigenvalues --    4.34946   4.36959   4.37888   4.40454   4.45326
 Alpha virt. eigenvalues --    4.48758   4.49560   4.51128   4.54290   4.55473
 Alpha virt. eigenvalues --    4.55591   4.58157   4.58495   4.59812   4.60020
 Alpha virt. eigenvalues --    4.62071   4.63854   4.66659   4.67825   4.69907
 Alpha virt. eigenvalues --    4.70586   4.72437   4.74387   4.75784   4.77607
 Alpha virt. eigenvalues --    4.78807   4.82852   4.86524   4.89434   4.92696
 Alpha virt. eigenvalues --    4.93769   4.99433   5.00805   5.03076   5.06271
 Alpha virt. eigenvalues --    5.06827   5.13603   5.21156   5.22678   5.27931
 Alpha virt. eigenvalues --    5.30738   5.38371   5.40406   5.42396   5.44307
 Alpha virt. eigenvalues --    5.45100   5.52728   5.56727   5.99768   6.07639
 Alpha virt. eigenvalues --    6.29650   6.79552   9.81014  10.64165  10.73105
 Alpha virt. eigenvalues --   10.98005  11.10953  11.71981  11.75185  12.22354
 Alpha virt. eigenvalues --   12.93751
          Condensed to atoms (all electrons):
               1          2          3          4          5          6
     1  O    7.583584   0.636806  -0.078464  -0.020014  -0.002992   0.002672
     2  C    0.636806   5.186790   0.123360  -0.037353  -0.022849   0.017428
     3  S   -0.078464   0.123360  16.032751   0.283051  -0.142405   0.021949
     4  C   -0.020014  -0.037353   0.283051   5.091000   0.618055  -0.115560
     5  C   -0.002992  -0.022849  -0.142405   0.618055   4.910467   0.317228
     6  S    0.002672   0.017428   0.021949  -0.115560   0.317228  15.742814
     7  S    0.000000  -0.004941  -0.002247   0.009228  -0.028095   0.049605
     8  C   -0.000020   0.000642  -0.000165  -0.000037   0.001689   0.001154
     9  C    0.000029  -0.000383   0.000141  -0.000016   0.000033   0.001530
    10  C   -0.000000   0.000041  -0.000006   0.000000   0.000014   0.001434
    11  C   -0.000000   0.000001  -0.000000   0.000000   0.000000  -0.000058
    12  C    0.000000  -0.000001   0.000000  -0.000000  -0.000000   0.000014
    13  S   -0.000038   0.002490  -0.000072   0.000009   0.000028  -0.003586
    14  S   -0.009647   0.087937  -0.009338   0.003118   0.001881  -0.039455
    15  H    0.006315  -0.002331  -0.038590   0.370540  -0.028909  -0.003314
    16  H    0.000308  -0.009008  -0.046336  -0.019390   0.377094  -0.044964
    17  H    0.000005  -0.000133   0.000031  -0.000020   0.000069  -0.001884
    18  H   -0.000000   0.000003  -0.000002   0.000000   0.000003   0.000289
    19  H   -0.000000   0.000000  -0.000000   0.000000   0.000000  -0.000000
    20  H    0.000000  -0.000004   0.000000  -0.000000  -0.000000   0.000062
               7          8          9         10         11         12
     1  O    0.000000  -0.000020   0.000029  -0.000000  -0.000000   0.000000
     2  C   -0.004941   0.000642  -0.000383   0.000041   0.000001  -0.000001
     3  S   -0.002247  -0.000165   0.000141  -0.000006  -0.000000   0.000000
     4  C    0.009228  -0.000037  -0.000016   0.000000   0.000000  -0.000000
     5  C   -0.028095   0.001689   0.000033   0.000014   0.000000  -0.000000
     6  S    0.049605   0.001154   0.001530   0.001434  -0.000058   0.000014
     7  S   15.833196   0.176471  -0.035668  -0.019587  -0.000636   0.000280
     8  C    0.176471   5.417659   0.498371  -0.004781  -0.000400  -0.001697
     9  C   -0.035668   0.498371   4.842044   0.371443  -0.022010  -0.025925
    10  C   -0.019587  -0.004781   0.371443   4.809240   0.606353  -0.049170
    11  C   -0.000636  -0.000400  -0.022010   0.606353   5.013231   0.667802
    12  C    0.000280  -0.001697  -0.025925  -0.049170   0.667802   5.195827
    13  S    0.027930  -0.034442   0.070633  -0.038268  -0.074233   0.072198
    14  S    0.002269  -0.136708   0.218642  -0.011406   0.003636   0.005207
    15  H    0.000481   0.000008  -0.000001   0.000000   0.000000  -0.000000
    16  H    0.005562   0.000058  -0.000157   0.000002   0.000000  -0.000000
    17  H   -0.018940   0.353438  -0.046872   0.002647  -0.000205   0.000398
    18  H    0.004500  -0.001228  -0.057610   0.357857  -0.057399   0.009320
    19  H    0.000001  -0.000028   0.001005   0.005558  -0.037924   0.292542
    20  H   -0.000384   0.001886  -0.001300  -0.002429  -0.001916   0.036584
              13         14         15         16         17         18
     1  O   -0.000038  -0.009647   0.006315   0.000308   0.000005  -0.000000
     2  C    0.002490   0.087937  -0.002331  -0.009008  -0.000133   0.000003
     3  S   -0.000072  -0.009338  -0.038590  -0.046336   0.000031  -0.000002
     4  C    0.000009   0.003118   0.370540  -0.019390  -0.000020   0.000000
     5  C    0.000028   0.001881  -0.028909   0.377094   0.000069   0.000003
     6  S   -0.003586  -0.039455  -0.003314  -0.044964  -0.001884   0.000289
     7  S    0.027930   0.002269   0.000481   0.005562  -0.018940   0.004500
     8  C   -0.034442  -0.136708   0.000008   0.000058   0.353438  -0.001228
     9  C    0.070633   0.218642  -0.000001  -0.000157  -0.046872  -0.057610
    10  C   -0.038268  -0.011406   0.000000   0.000002   0.002647   0.357857
    11  C   -0.074233   0.003636   0.000000   0.000000  -0.000205  -0.057399
    12  C    0.072198   0.005207  -0.000000  -0.000000   0.000398   0.009320
    13  S   16.075994  -0.160340   0.000001   0.000018  -0.008829   0.004818
    14  S   -0.160340  16.226847   0.000281   0.001921  -0.014873   0.000506
    15  H    0.000001   0.000281   0.511576   0.003576  -0.000003   0.000000
    16  H    0.000018   0.001921   0.003576   0.508595  -0.000016   0.000004
    17  H   -0.008829  -0.014873  -0.000003  -0.000016   0.531841  -0.000157
    18  H    0.004818   0.000506   0.000000   0.000004  -0.000157   0.589129
    19  H   -0.006691  -0.000158   0.000000   0.000000  -0.000003  -0.000624
    20  H    0.158136   0.008737  -0.000000  -0.000000   0.001673  -0.000097
              19         20
     1  O   -0.000000   0.000000
     2  C    0.000000  -0.000004
     3  S   -0.000000   0.000000
     4  C    0.000000  -0.000000
     5  C    0.000000  -0.000000
     6  S   -0.000000   0.000062
     7  S    0.000001  -0.000384
     8  C   -0.000028   0.001886
     9  C    0.001005  -0.001300
    10  C    0.005558  -0.002429
    11  C   -0.037924  -0.001916
    12  C    0.292542   0.036584
    13  S   -0.006691   0.158136
    14  S   -0.000158   0.008737
    15  H    0.000000  -0.000000
    16  H    0.000000  -0.000000
    17  H   -0.000003   0.001673
    18  H   -0.000624  -0.000097
    19  H    0.600444  -0.003841
    20  H   -0.003841   0.658053
 Mulliken charges:
               1
     1  O   -0.118544
     2  C    0.021505
     3  S   -0.143658
     4  C   -0.182611
     5  C   -0.001313
     6  S    0.052640
     7  S    0.000974
     8  C   -0.271871
     9  C    0.186073
    10  C   -0.028943
    11  C   -0.096242
    12  C   -0.203380
    13  S   -0.085756
    14  S   -0.179056
    15  H    0.180371
    16  H    0.222732
    17  H    0.201835
    18  H    0.150686
    19  H    0.149718
    20  H    0.144839
 Sum of Mulliken charges =  -0.00000
 Mulliken charges with hydrogens summed into heavy atoms:
               1
     1  O   -0.118544
     2  C    0.021505
     3  S   -0.143658
     4  C   -0.002240
     5  C    0.221419
     6  S    0.052640
     7  S    0.000974
     8  C   -0.070037
     9  C    0.186073
    10  C    0.121744
    11  C   -0.096242
    12  C   -0.053662
    13  S    0.059084
    14  S   -0.179056
 Electronic spatial extent (au):  <R**2>=           4727.4381
 Charge=             -0.0000 electrons
 Dipole moment (field-independent basis, Debye):
    X=             -1.2633    Y=             -1.7030    Z=             -1.1222  Tot=              2.3990
 Quadrupole moment (field-independent basis, Debye-Ang):
   XX=           -117.8681   YY=           -124.6679   ZZ=           -113.8779
   XY=             -7.4249   XZ=              1.5662   YZ=             -1.6294
 Traceless Quadrupole moment (field-independent basis, Debye-Ang):
   XX=              0.9366   YY=             -5.8633   ZZ=              4.9267
   XY=             -7.4249   XZ=              1.5662   YZ=             -1.6294
 Octapole moment (field-independent basis, Debye-Ang**2):
  XXX=            -22.2119  YYY=              8.3764  ZZZ=            -10.9832  XYY=              9.8512
  XXY=             10.6654  XXZ=            -38.1510  XZZ=             14.6229  YZZ=              4.0222
  YYZ=              7.6947  XYZ=              0.9082
 Hexadecapole moment (field-independent basis, Debye-Ang**3):
 XXXX=          -4814.2246 YYYY=          -1241.1276 ZZZZ=           -480.5092 XXXY=           -133.6458
 XXXZ=             34.5615 YYYX=             -5.5850 YYYZ=             -8.3658 ZZZX=             14.4184
 ZZZY=             -7.0163 XXYY=          -1105.6574 XXZZ=           -904.7637 YYZZ=           -283.1662
 XXYZ=             12.8750 YYXZ=             12.1634 ZZXY=             -9.4263
 N-N= 1.474631426068D+03 E-N=-8.571621639349D+03  KE= 2.366385470097D+03
 PrsmSu:  requested number of processors reduced to:  13 ShMem   1 Linda.
 Calling FoFJK, ICntrl=      2127 FMM=F ISym2X=0 I1Cent= 0 IOpClX= 0 NMat=1 NMatS=1 NMatT=0.
 ***** Axes restored to original set *****
 -------------------------------------------------------------------
 Center     Atomic                   Forces (Hartrees/Bohr)
 Number     Number              X              Y              Z
 -------------------------------------------------------------------
      1        8           0.065841770    0.041462614   -0.012185956
      2        6          -0.022807076   -0.036554718    0.068029786
      3       16          -0.067226846    0.030089184    0.029842510
      4        6          -0.035987135   -0.004193885    0.018003860
      5        6          -0.001320660    0.007827249   -0.032711070
      6       16           0.010408556   -0.050173865    0.002758327
      7       16           0.018936491    0.006847570   -0.050958303
      8        6           0.058034556   -0.057675613   -0.014142284
      9        6           0.036672077    0.143082948    0.036221700
     10        6          -0.065318402   -0.025621875   -0.031491173
     11        6          -0.010725117   -0.029947235    0.036164930
     12        6           0.087895470    0.064843757   -0.012933043
     13       16           0.069255329   -0.008496481   -0.020914468
     14       16          -0.027775845    0.024361099    0.009074393
     15        1          -0.013244848    0.010808304   -0.029099543
     16        1           0.017681806   -0.056161980   -0.008490457
     17        1          -0.033232385   -0.016660767   -0.042393372
     18        1          -0.025725054   -0.021812141    0.001434044
     19        1          -0.032812521   -0.030828122    0.039564163
     20        1          -0.028550167    0.008803957    0.014225956
 -------------------------------------------------------------------
 Cartesian Forces:  Max     0.143082948 RMS     0.040456029

 GradGradGradGradGradGradGradGradGradGradGradGradGradGradGradGradGradGrad
 Berny optimization.
 FormGI is forming the generalized inverse of G from B-inverse, IUseBI=4.
 Internal  Forces:  Max     0.142713729 RMS     0.039623411
 Search for a local minimum.
 Step number   1 out of a maximum of   88
 All quantities printed in internal units (Hartrees-Bohrs-Radians)
 Mixed Optimization -- RFO/linear search
 Second derivative matrix not updated -- first step.
 ITU=  0
     Eigenvalues ---    0.00230   0.00230   0.00230   0.00230   0.00770
     Eigenvalues ---    0.01182   0.01459   0.01985   0.02071   0.02339
     Eigenvalues ---    0.02466   0.03153   0.03355   0.04347   0.05388
     Eigenvalues ---    0.06562   0.08594   0.10505   0.11229   0.11374
     Eigenvalues ---    0.13941   0.14621   0.15353   0.15928   0.15935
     Eigenvalues ---    0.16000   0.16000   0.17195   0.18073   0.19698
     Eigenvalues ---    0.20373   0.21416   0.22061   0.22661   0.23448
     Eigenvalues ---    0.23665   0.23889   0.24812   0.25000   0.25000
     Eigenvalues ---    0.25000   0.25000   0.25294   0.26366   0.30554
     Eigenvalues ---    0.32312   0.35260   0.39562   0.41300   0.50699
     Eigenvalues ---    0.54156   0.62041   0.62577   1.06084
 RFO step:  Lambda=-2.55378630D-01 EMin= 2.30000000D-03
 Linear search not attempted -- first point.
 Maximum step size (   0.300) exceeded in Quadratic search.
    -- Step size scaled by   0.445
 Iteration  1 RMS(Cart)=  0.11288798 RMS(Int)=  0.00493367
 Iteration  2 RMS(Cart)=  0.00645132 RMS(Int)=  0.00030574
 Iteration  3 RMS(Cart)=  0.00002419 RMS(Int)=  0.00030540
 Iteration  4 RMS(Cart)=  0.00000001 RMS(Int)=  0.00030540
 Variable       Old X    -DE/DX   Delta X   Delta X   Delta X     New X
                                 (Linear)    (Quad)   (Total)
    R1        2.26297  -0.04715   0.00000  -0.01593  -0.01593   2.24704
    R2        4.01222   0.05903   0.00000   0.07139   0.07139   4.08361
    R3        3.20877   0.00782   0.00000   0.00895   0.00980   3.21857
    R4        4.09928   0.07690   0.00000   0.09249   0.09174   4.19102
    R5        2.53119   0.02102   0.00000   0.01051   0.01068   2.54187
    R6        2.13573  -0.03074   0.00000  -0.02437  -0.02437   2.11136
    R7        3.15852   0.05460   0.00000   0.03729   0.03729   3.19582
    R8        2.25166  -0.05546   0.00000  -0.04852  -0.04852   2.20315
    R9        3.68125   0.07868   0.00000   0.05234   0.05234   3.73359
   R10        3.48258   0.00594   0.00000   0.00199   0.00191   3.48449
   R11        3.97563   0.03172   0.00000   0.03989   0.04003   4.01566
   R12        2.46530   0.10545   0.00000   0.05250   0.05239   2.51768
   R13        2.22557  -0.04048   0.00000  -0.03468  -0.03468   2.19089
   R14        3.02729  -0.06525   0.00000  -0.05897  -0.05897   2.96832
   R15        3.83895  -0.00395   0.00000  -0.00445  -0.00445   3.83451
   R16        2.59166   0.02766   0.00000   0.01613   0.01613   2.60780
   R17        2.05256   0.01048   0.00000   0.00767   0.00767   2.06022
   R18        2.49361   0.04993   0.00000   0.02535   0.02535   2.51895
   R19        2.32257  -0.05042   0.00000  -0.04651  -0.04651   2.27606
   R20        4.31164   0.03670   0.00000   0.03990   0.03990   4.35154
   R21        2.82046  -0.03199   0.00000  -0.03328  -0.03328   2.78718
    A1        1.52242   0.14271   0.00000   0.12557   0.12557   1.64799
    A2        1.50298   0.05448   0.00000   0.04920   0.04899   1.55197
    A3        1.30796   0.02234   0.00000   0.01936   0.01968   1.32764
    A4        2.08118  -0.03803   0.00000  -0.03839  -0.03858   2.04260
    A5        2.25295  -0.02483   0.00000  -0.02674  -0.02709   2.22587
    A6        2.46149  -0.02511   0.00000  -0.02449  -0.02436   2.43713
    A7        1.21270   0.02538   0.00000   0.02899   0.02952   1.24222
    A8        1.94898   0.04001   0.00000   0.04392   0.04447   1.99345
    A9        2.07486  -0.01136   0.00000  -0.01276  -0.01353   2.06133
   A10        2.17856  -0.02026   0.00000  -0.02163  -0.02191   2.15665
   A11        1.63538   0.03950   0.00000   0.03475   0.03475   1.67014
   A12        1.52376   0.02799   0.00000   0.02693   0.02695   1.55072
   A13        1.94521   0.03322   0.00000   0.02540   0.02511   1.97032
   A14        2.33746  -0.02379   0.00000  -0.02702  -0.02780   2.30967
   A15        1.74699   0.02616   0.00000   0.03344   0.03417   1.78115
   A16        1.79584   0.00775   0.00000   0.00850   0.00844   1.80428
   A17        1.64154   0.01914   0.00000   0.01802   0.01858   1.66012
   A18        2.09004  -0.02699   0.00000  -0.02475  -0.02474   2.06530
   A19        1.77767   0.07101   0.00000   0.06718   0.06717   1.84483
   A20        2.41246  -0.04423   0.00000  -0.04269  -0.04270   2.36976
   A21        2.41498  -0.06700   0.00000  -0.06246  -0.06244   2.35254
   A22        2.04751  -0.00160   0.00000  -0.00609  -0.00606   2.04146
   A23        1.80590   0.06790   0.00000   0.06837   0.06838   1.87428
   A24        1.84287   0.04542   0.00000   0.03996   0.03996   1.88282
   A25        1.86806   0.07525   0.00000   0.08056   0.08056   1.94861
   A26        2.20484  -0.01231   0.00000  -0.01318  -0.01318   2.19166
   A27        1.10641  -0.01964   0.00000  -0.01728  -0.01728   1.08913
    D1       -1.37928  -0.01316   0.00000  -0.01719  -0.01734  -1.39661
    D2       -2.02581   0.00971   0.00000   0.01122   0.01138  -2.01443
    D3        1.15441   0.00730   0.00000   0.01377   0.01403   1.16844
    D4        0.46621  -0.00748   0.00000  -0.00927  -0.00931   0.45691
    D5       -1.63611   0.00182   0.00000  -0.00232  -0.00240  -1.63852
    D6        0.16528  -0.01545   0.00000  -0.02575  -0.02596   0.13932
    D7       -2.57586  -0.03080   0.00000  -0.04350  -0.04332  -2.61918
    D8       -1.88487   0.00821   0.00000   0.00453   0.00356  -1.88131
    D9       -2.84472  -0.01667   0.00000  -0.01769  -0.01679  -2.86151
   D10       -0.13196   0.00348   0.00000   0.00514   0.00521  -0.12675
   D11        2.71438  -0.01591   0.00000  -0.04406  -0.04394   2.67044
   D12        2.19370  -0.04862   0.00000  -0.06020  -0.06032   2.13338
   D13       -0.60655   0.03831   0.00000   0.05985   0.05931  -0.54724
   D14        2.98675   0.00005   0.00000  -0.00859  -0.00853   2.97821
   D15       -0.82587  -0.03682   0.00000  -0.04397  -0.04365  -0.86953
   D16        2.41653   0.00834   0.00000   0.01093   0.01065   2.42717
   D17       -0.79382   0.00416   0.00000   0.00629   0.00581  -0.78801
   D18       -2.96123  -0.00543   0.00000  -0.01428  -0.01426  -2.97550
   D19       -0.04065  -0.00033   0.00000  -0.00556  -0.00546  -0.04611
   D20       -1.86526  -0.01635   0.00000  -0.02631  -0.02639  -1.89165
   D21        1.05532  -0.01126   0.00000  -0.01759  -0.01758   1.03774
   D22        1.37743  -0.01673   0.00000  -0.02576  -0.02583   1.35160
   D23       -1.98518  -0.01163   0.00000  -0.01704  -0.01702  -2.00220
   D24       -3.03270  -0.03307   0.00000  -0.05203  -0.05189  -3.08459
   D25        2.19740  -0.02005   0.00000  -0.03767  -0.03762   2.15978
   D26       -1.03384  -0.02244   0.00000  -0.04070  -0.04089  -1.07473
   D27       -0.14443  -0.01811   0.00000  -0.02770  -0.02784  -0.17227
   D28       -3.08438  -0.01926   0.00000  -0.03164  -0.03150  -3.11587
   D29        2.97353   0.00161   0.00000   0.00250   0.00250   2.97603
   D30       -1.19382  -0.01649   0.00000  -0.02846  -0.02846  -1.22228
         Item               Value     Threshold  Converged?
 Maximum Force            0.142714     0.000450     NO 
 RMS     Force            0.039623     0.000300     NO 
 Maximum Displacement     0.453212     0.001800     NO 
 RMS     Displacement     0.113277     0.001200     NO 
 Predicted change in Energy=-1.029981D-01
 GradGradGradGradGradGradGradGradGradGradGradGradGradGradGradGradGradGrad

                          Input orientation:                          
 ---------------------------------------------------------------------
 Center     Atomic      Atomic             Coordinates (Angstroms)
 Number     Number       Type             X           Y           Z
 ---------------------------------------------------------------------
      1          8           0        6.763573    1.936193    0.736231
      2          6           0        6.819972    2.657447   -0.207445
      3         16           0        4.813022    2.215118   -0.875442
      4          6           0        5.396226    0.772973   -1.568954
      5          6           0        6.101649    1.435296   -2.503298
      6         16           0        7.669895    0.846435   -2.735343
      7         16           0        8.334452    2.435154   -3.703769
      8          6           0       10.034089    2.042345   -3.106310
      9          6           0       10.018180    3.330373   -2.766084
     10          6           0       10.503669    4.386531   -3.822557
     11          6           0       11.616358    5.192647   -3.950867
     12          6           0       12.301157    5.129688   -2.808981
     13         16           0       11.274174    4.324406   -1.177007
     14         16           0        9.180897    3.400150   -0.919067
     15          1           0        5.766208   -0.014308   -0.867790
     16          1           0        5.775236    2.522315   -2.769874
     17          1           0       10.424365    1.540648   -2.136714
     18          1           0        9.963987    4.423034   -4.769128
     19          1           0       13.378071    5.660097   -2.906911
     20          1           0       12.519949    3.572986   -1.419440
 ---------------------------------------------------------------------
                    Distance matrix (angstroms):
                    1          2          3          4          5
     1  O    0.000000
     2  C    1.189081   0.000000
     3  S    2.545573   2.160954   0.000000
     4  C    2.921745   2.726169   1.703193   0.000000
     5  C    3.344188   2.698255   2.217791   1.345100   0.000000
     6  S    3.749776   3.223725   3.673451   2.556449   1.691153
     7  S    4.736056   3.816719   4.521982   3.994178   2.725116
     8  C    5.047045   4.371763   5.680331   5.048221   4.024452
     9  C    4.980202   4.150662   5.649070   5.416260   4.358851
    10  C    6.385532   5.443196   6.766386   6.650000   5.461502
    11  C    7.491522   6.591340   8.037991   7.993564   6.828261
    12  C    7.309704   6.551591   8.264711   8.258129   7.223286
    13  S    5.450648   4.853733   6.803420   6.878704   6.071328
    14  S    3.275155   2.575263   4.525984   4.652756   3.981483
    15  H    2.715156   2.946990   2.424657   1.117286   2.211054
    16  H    3.689597   2.770519   2.146881   2.155472   1.165855
    17  H    4.670296   4.238038   5.790758   5.117993   4.339511
    18  H    6.836374   5.814729   6.824084   6.665470   5.383141
    19  H    8.419711   7.701408   9.452767   9.454309   8.423667
    20  H    6.360964   5.898888   7.844517   7.655707   6.851207
                    6          7          8          9         10
     6  S    0.000000
     7  S    1.975731   0.000000
     8  C    2.675300   1.843915   0.000000
     9  C    3.418382   2.124997   1.332300   0.000000
    10  C    4.663109   2.920185   2.495741   1.570766   0.000000
    11  C    5.995133   4.293685   3.625086   2.725059   1.379987
    12  C    6.308745   4.878105   3.841834   2.907122   2.193304
    13  S    5.245524   4.312281   3.235401   2.256277   2.756170
    14  S    3.479000   3.066309   2.712121   2.029133   3.339600
    15  H    2.802259   4.542963   5.239809   5.733208   7.109259
    16  H    2.529723   2.725682   4.298998   4.319206   5.190522
    17  H    2.902997   2.761075   1.159367   1.940157   3.308687
    18  H    4.710753   2.782452   2.904747   2.282330   1.090223
    19  H    7.468872   6.039316   4.930528   4.091004   3.274533
    20  H    5.717403   4.902163   3.371630   2.851518   3.240711
                   11         12         13         14         15
    11  C    0.000000
    12  C    1.332973   0.000000
    13  S    2.926641   2.089619   0.000000
    14  S    4.282093   4.037214   2.302736   0.000000
    15  H    8.416768   8.540168   7.018386   4.829208   0.000000
    16  H    6.530246   7.027628   6.001922   3.974242   3.170562
    17  H    4.248422   4.105545   3.064722   2.546885   5.072127
    18  H    1.998045   3.131118   3.824872   4.059863   7.247881
    19  H    2.100473   1.204437   3.033648   5.164800   9.710682
    20  H    3.138136   2.098098   1.474910   3.380756   7.667203
                   16         17         18         19         20
    16  H    0.000000
    17  H    4.793637   0.000000
    18  H    5.015514   3.930611   0.000000
    19  H    8.226029   5.127129   4.080950   0.000000
    20  H    6.958356   3.006053   4.298363   2.702772   0.000000
 Stoichiometry    C8H6OS5
 Framework group  C1[X(C8H6OS5)]
 Deg. of freedom    54
 Full point group                 C1      NOp   1
 Largest Abelian subgroup         C1      NOp   1
 Largest concise Abelian subgroup C1      NOp   1
                         Standard orientation:                         
 ---------------------------------------------------------------------
 Center     Atomic      Atomic             Coordinates (Angstroms)
 Number     Number       Type             X           Y           Z
 ---------------------------------------------------------------------
      1          8           0        2.493053    2.161387   -0.609682
      2          6           0        1.921024    1.535324    0.223830
      3         16           0        3.718288    0.639878    1.022418
      4          6           0        3.691694   -0.480177   -0.260405
      5          6           0        2.581967   -1.080666    0.205656
      6         16           0        1.423118   -1.413348   -0.980256
      7         16           0       -0.065190   -1.723351    0.281629
      8          6           0       -1.243370   -1.204322   -1.038417
      9          6           0       -1.720691   -0.435745   -0.060421
     10          6           0       -2.838354   -1.025066    0.872765
     11          6           0       -4.190013   -0.798157    1.033677
     12          6           0       -4.509646    0.286757    0.328261
     13         16           0       -2.904482    1.470682   -0.294857
     14         16           0       -0.618063    1.266873   -0.112249
     15          1           0        3.868139   -0.079312   -1.288268
     16          1           0        2.330909   -0.967712    1.338542
     17          1           0       -1.151345   -0.451261   -1.915094
     18          1           0       -2.590893   -1.928290    1.430916
     19          1           0       -5.702438    0.443359    0.270004
     20          1           0       -3.713200    1.052677   -1.455290
 ---------------------------------------------------------------------
 Rotational constants (GHZ):           0.8643494           0.2549744           0.2182048
 Standard basis: 6-31G(2df,p) (6D, 7F)
 There are   484 symmetry adapted cartesian basis functions of A   symmetry.
 There are   442 symmetry adapted basis functions of A   symmetry.
   442 basis functions,   778 primitive gaussians,   484 cartesian basis functions
    71 alpha electrons       71 beta electrons
       nuclear repulsion energy      1463.2472867409 Hartrees.
 NAtoms=   20 NActive=   20 NUniq=   20 SFac= 1.00D+00 NAtFMM=   60 NAOKFM=F Big=F
 Integral buffers will be    131072 words long.
 Raffenetti 2 integral format.
 Two-electron integral symmetry is turned on.
 One-electron integrals computed using PRISM.
 PrsmSu:  requested number of processors reduced to:  12 ShMem   1 Linda.
 NBasis=   442 RedAO= T EigKep=  6.73D-04  NBF=   442
 NBsUse=   442 1.00D-06 EigRej= -1.00D+00 NBFU=   442
 Initial guess from the checkpoint file:  "OdC1SCdCSSCdC2CdCdC[SH]dS12.chk"
 B after Tr=     0.000000   -0.000000    0.000000
         Rot=    0.999843    0.017105   -0.000176   -0.004672 Ang=   2.03 deg.
 ExpMin= 1.17D-01 ExpMax= 2.19D+04 ExpMxC= 3.30D+03 IAcc=2 IRadAn=         4 AccDes= 0.00D+00
 Harris functional with IExCor=  402 and IRadAn=       4 diagonalized for initial guess.
 HarFok:  IExCor=  402 AccDes= 0.00D+00 IRadAn=         4 IDoV= 1 UseB2=F ITyADJ=14
 ICtDFT=  3500011 ScaDFX=  1.000000  1.000000  1.000000  1.000000
 FoFCou: FMM=F IPFlag=           0 FMFlag=      100000 FMFlg1=           0
         NFxFlg=           0 DoJE=T BraDBF=F KetDBF=T FulRan=T
         wScrn=  0.000000 ICntrl=       500 IOpCl=  0 I1Cent=   200000004 NGrid=           0
         NMat0=    1 NMatS0=      1 NMatT0=    0 NMatD0=    1 NMtDS0=    0 NMtDT0=    0
 Petite list used in FoFCou.
 Requested convergence on RMS density matrix=1.00D-08 within 128 cycles.
 Requested convergence on MAX density matrix=1.00D-06.
 Requested convergence on             energy=1.00D-06.
 No special actions if energy rises.
 Integral accuracy reduced to 1.0D-05 until final iterations.
 Initial convergence to 1.0D-05 achieved.  Increase integral accuracy.
 SCF Done:  E(RB3LYP) =  -2374.00770872     A.U. after   21 cycles
            NFock= 21  Conv=0.65D-08     -V/T= 2.0034
 PrsmSu:  requested number of processors reduced to:  13 ShMem   1 Linda.
 Calling FoFJK, ICntrl=      2127 FMM=F ISym2X=0 I1Cent= 0 IOpClX= 0 NMat=1 NMatS=1 NMatT=0.
 ***** Axes restored to original set *****
 -------------------------------------------------------------------
 Center     Atomic                   Forces (Hartrees/Bohr)
 Number     Number              X              Y              Z
 -------------------------------------------------------------------
      1        8           0.040657289    0.038303168   -0.026273022
      2        6          -0.012496309   -0.034226260    0.057730294
      3       16          -0.044921046    0.023605065    0.030491136
      4        6          -0.022614307    0.002093549    0.020239830
      5        6           0.001897494    0.008806284   -0.026367594
      6       16           0.000607694   -0.036068103    0.001554502
      7       16           0.012774755   -0.006090164   -0.040505200
      8        6           0.046815059   -0.030992632   -0.002699721
      9        6           0.034531166    0.107209294    0.031052062
     10        6          -0.044266452   -0.017645242   -0.027454787
     11        6          -0.009408554   -0.024332914    0.024067041
     12        6           0.060602894    0.051068785   -0.010719793
     13       16           0.081154864   -0.006445355   -0.013292908
     14       16          -0.032600500    0.011799173    0.000600830
     15        1          -0.010640709    0.004860147   -0.024191293
     16        1           0.014938247   -0.046078279   -0.007742914
     17        1          -0.030613579   -0.014554759   -0.036109020
     18        1          -0.019267720   -0.014015948    0.004141505
     19        1          -0.038618061   -0.027326061    0.031195093
     20        1          -0.028532225    0.010030251    0.014283958
 -------------------------------------------------------------------
 Cartesian Forces:  Max     0.107209294 RMS     0.032356075

 GradGradGradGradGradGradGradGradGradGradGradGradGradGradGradGradGradGrad
 Berny optimization.
 Using GEDIIS/GDIIS optimizer.
 FormGI is forming the generalized inverse of G from B-inverse, IUseBI=4.
 Internal  Forces:  Max     0.092466279 RMS     0.030389959
 Search for a local minimum.
 Step number   2 out of a maximum of   88
 All quantities printed in internal units (Hartrees-Bohrs-Radians)
 Mixed Optimization -- RFO/linear search
 Update second derivatives using D2CorX and points    1    2
 DE= -9.97D-02 DEPred=-1.03D-01 R= 9.68D-01
 TightC=F SS=  1.41D+00  RLast= 3.39D-01 DXNew= 5.0454D-01 1.0183D+00
 Trust test= 9.68D-01 RLast= 3.39D-01 DXMaxT set to 5.05D-01
 ITU=  1  0
 Use linear search instead of GDIIS.
 Linear search step of   0.600 exceeds DXMaxT=   0.505 but not scaled.
 Quartic linear search produced a step of  2.00000.
 Iteration  1 RMS(Cart)=  0.21352515 RMS(Int)=  0.01868011
 Iteration  2 RMS(Cart)=  0.02856237 RMS(Int)=  0.00189294
 Iteration  3 RMS(Cart)=  0.00060768 RMS(Int)=  0.00184158
 Iteration  4 RMS(Cart)=  0.00000166 RMS(Int)=  0.00184158
 Iteration  5 RMS(Cart)=  0.00000001 RMS(Int)=  0.00184158
 Variable       Old X    -DE/DX   Delta X   Delta X   Delta X     New X
                                 (Linear)    (Quad)   (Total)
    R1        2.24704  -0.04601  -0.03186   0.00000  -0.03186   2.21518
    R2        4.08361   0.03671   0.14279   0.00000   0.14279   4.22640
    R3        3.21857   0.00979   0.01960   0.00000   0.02457   3.24314
    R4        4.19102   0.05395   0.18348   0.00000   0.17898   4.37000
    R5        2.54187   0.01700   0.02137   0.00000   0.02273   2.56460
    R6        2.11136  -0.02213  -0.04873   0.00000  -0.04873   2.06263
    R7        3.19582   0.03313   0.07458   0.00000   0.07458   3.27040
    R8        2.20315  -0.04537  -0.09703   0.00000  -0.09703   2.10611
    R9        3.73359   0.05455   0.10469   0.00000   0.10469   3.83828
   R10        3.48449   0.00256   0.00382   0.00000   0.00373   3.48823
   R11        4.01566   0.02778   0.08007   0.00000   0.08055   4.09621
   R12        2.51768   0.07201   0.10477   0.00000   0.10414   2.62183
   R13        2.19089  -0.03421  -0.06936   0.00000  -0.06936   2.12153
   R14        2.96832  -0.05171  -0.11794   0.00000  -0.11794   2.85038
   R15        3.83451  -0.00629  -0.00889   0.00000  -0.00889   3.82562
   R16        2.60780   0.00565   0.03227   0.00000   0.03227   2.64006
   R17        2.06022   0.00547   0.01533   0.00000   0.01533   2.07555
   R18        2.51895   0.02771   0.05070   0.00000   0.05070   2.56965
   R19        2.27606  -0.04910  -0.09303   0.00000  -0.09303   2.18303
   R20        4.35154   0.04916   0.07981   0.00000   0.07981   4.43135
   R21        2.78718  -0.03156  -0.06657   0.00000  -0.06657   2.72061
    A1        1.64799   0.09247   0.25113   0.00000   0.25113   1.89912
    A2        1.55197   0.03671   0.09797   0.00000   0.09628   1.64825
    A3        1.32764   0.00790   0.03937   0.00000   0.04169   1.36933
    A4        2.04260  -0.02645  -0.07715   0.00000  -0.07776   1.96484
    A5        2.22587  -0.02291  -0.05417   0.00000  -0.05600   2.16987
    A6        2.43713  -0.02500  -0.04873   0.00000  -0.04680   2.39033
    A7        1.24222   0.02003   0.05904   0.00000   0.06209   1.30432
    A8        1.99345   0.02751   0.08893   0.00000   0.09181   2.08526
    A9        2.06133  -0.00810  -0.02706   0.00000  -0.03129   2.03004
   A10        2.15665  -0.01531  -0.04382   0.00000  -0.04535   2.11130
   A11        1.67014   0.01190   0.06950   0.00000   0.06950   1.73964
   A12        1.55072   0.01874   0.05390   0.00000   0.05388   1.60460
   A13        1.97032   0.01636   0.05022   0.00000   0.04835   2.01867
   A14        2.30967  -0.02409  -0.05559   0.00000  -0.05999   2.24968
   A15        1.78115   0.01746   0.06833   0.00000   0.07247   1.85362
   A16        1.80428   0.00646   0.01688   0.00000   0.01651   1.82079
   A17        1.66012   0.01331   0.03716   0.00000   0.04044   1.70056
   A18        2.06530  -0.01989  -0.04947   0.00000  -0.04937   2.01593
   A19        1.84483   0.05371   0.13433   0.00000   0.13417   1.97901
   A20        2.36976  -0.03428  -0.08541   0.00000  -0.08543   2.28433
   A21        2.35254  -0.06189  -0.12487   0.00000  -0.12476   2.22778
   A22        2.04146   0.00469  -0.01211   0.00000  -0.01192   2.02954
   A23        1.87428   0.05705   0.13676   0.00000   0.13680   2.01108
   A24        1.88282  -0.00731   0.07992   0.00000   0.07992   1.96274
   A25        1.94861   0.06437   0.16111   0.00000   0.16111   2.10973
   A26        2.19166  -0.01766  -0.02635   0.00000  -0.02635   2.16531
   A27        1.08913   0.01807  -0.03457   0.00000  -0.03457   1.05456
    D1       -1.39661  -0.00902  -0.03467   0.00000  -0.03546  -1.43207
    D2       -2.01443   0.00898   0.02275   0.00000   0.02354  -1.99089
    D3        1.16844   0.01049   0.02806   0.00000   0.02966   1.19810
    D4        0.45691  -0.00276  -0.01862   0.00000  -0.01878   0.43813
    D5       -1.63852   0.00519  -0.00481   0.00000  -0.00531  -1.64383
    D6        0.13932  -0.01641  -0.05193   0.00000  -0.05330   0.08602
    D7       -2.61918  -0.02351  -0.08664   0.00000  -0.08509  -2.70427
    D8       -1.88131   0.01314   0.00711   0.00000   0.00089  -1.88042
    D9       -2.86151  -0.00379  -0.03358   0.00000  -0.02788  -2.88940
   D10       -0.12675   0.00632   0.01042   0.00000   0.01094  -0.11581
   D11        2.67044  -0.02038  -0.08787   0.00000  -0.08710   2.58335
   D12        2.13338  -0.04619  -0.12064   0.00000  -0.12141   2.01197
   D13       -0.54724   0.03673   0.11862   0.00000   0.11515  -0.43209
   D14        2.97821   0.00650  -0.01707   0.00000  -0.01669   2.96152
   D15       -0.86953  -0.02256  -0.08731   0.00000  -0.08536  -0.95489
   D16        2.42717   0.01139   0.02130   0.00000   0.01969   2.44686
   D17       -0.78801   0.00485   0.01163   0.00000   0.00873  -0.77928
   D18       -2.97550  -0.00940  -0.02853   0.00000  -0.02844  -3.00394
   D19       -0.04611  -0.00225  -0.01091   0.00000  -0.01030  -0.05641
   D20       -1.89165  -0.01909  -0.05278   0.00000  -0.05317  -1.94482
   D21        1.03774  -0.01194  -0.03516   0.00000  -0.03503   1.00271
   D22        1.35160  -0.01517  -0.05165   0.00000  -0.05214   1.29946
   D23       -2.00220  -0.00802  -0.03404   0.00000  -0.03400  -2.03619
   D24       -3.08459  -0.03342  -0.10378   0.00000  -0.10285   3.09575
   D25        2.15978  -0.02171  -0.07524   0.00000  -0.07495   2.08484
   D26       -1.07473  -0.02770  -0.08178   0.00000  -0.08300  -1.15773
   D27       -0.17227  -0.02039  -0.05568   0.00000  -0.05650  -0.22877
   D28       -3.11587  -0.02395  -0.06299   0.00000  -0.06217   3.10514
   D29        2.97603   0.00165   0.00501   0.00000   0.00501   2.98104
   D30       -1.22228  -0.02062  -0.05692   0.00000  -0.05692  -1.27920
         Item               Value     Threshold  Converged?
 Maximum Force            0.092466     0.000450     NO 
 RMS     Force            0.030390     0.000300     NO 
 Maximum Displacement     0.873944     0.001800     NO 
 RMS     Displacement     0.224807     0.001200     NO 
 Predicted change in Energy=-1.158253D-01
 GradGradGradGradGradGradGradGradGradGradGradGradGradGradGradGradGradGrad

                          Input orientation:                          
 ---------------------------------------------------------------------
 Center     Atomic      Atomic             Coordinates (Angstroms)
 Number     Number       Type             X           Y           Z
 ---------------------------------------------------------------------
      1          8           0        7.197454    1.947040    0.871618
      2          6           0        6.935590    2.613631   -0.056385
      3         16           0        4.829263    2.189777   -0.677453
      4          6           0        5.235427    0.783490   -1.573398
      5          6           0        6.016459    1.398404   -2.497335
      6         16           0        7.609510    0.795228   -2.802971
      7         16           0        8.378741    2.368721   -3.831507
      8          6           0       10.073082    2.052947   -3.170598
      9          6           0       10.020939    3.406323   -2.869664
     10          6           0       10.554643    4.329830   -3.936165
     11          6           0       11.709939    5.113762   -3.885925
     12          6           0       12.222478    5.203588   -2.629625
     13         16           0       11.331480    4.426980   -1.402898
     14         16           0        9.088719    3.804604   -1.117337
     15          1           0        5.566921   -0.038240   -0.936029
     16          1           0        5.739381    2.445371   -2.760421
     17          1           0       10.374283    1.532561   -2.222522
     18          1           0       10.081739    4.255883   -4.924718
     19          1           0       13.257730    5.681573   -2.444439
     20          1           0       12.431353    3.498056   -1.410978
 ---------------------------------------------------------------------
                    Distance matrix (angstroms):
                    1          2          3          4          5
     1  O    0.000000
     2  C    1.172222   0.000000
     3  S    2.840224   2.236514   0.000000
     4  C    3.343876   2.922551   1.716197   0.000000
     5  C    3.611868   2.877467   2.312505   1.357126   0.000000
     6  S    3.872863   3.362216   3.767276   2.673622   1.730620
     7  S    4.867508   4.048977   4.751723   4.182395   2.881302
     8  C    4.961851   4.456069   5.807938   5.250284   4.163881
     9  C    4.909049   4.249974   5.765352   5.608983   4.495134
    10  C    6.329549   5.576341   6.926689   6.815663   5.590940
    11  C    7.281817   6.611387   8.135582   8.125167   6.938860
    12  C    6.936473   6.425000   8.219104   8.334972   7.280906
    13  S    5.330449   4.942183   6.914490   7.103939   6.214459
    14  S    3.314116   2.679552   4.576476   4.917619   4.139199
    15  H    3.141268   3.111181   2.361156   1.091498   2.168803
    16  H    3.945379   2.961594   2.287444   2.103531   1.114507
    17  H    4.453957   4.205410   5.793653   5.233575   4.368541
    18  H    6.873671   6.024609   7.063750   6.839269   5.530269
    19  H    7.853019   7.421895   9.292682   9.439665   8.413343
    20  H    5.916890   5.728921   7.748640   7.692633   6.836634
                    6          7          8          9         10
     6  S    0.000000
     7  S    2.031128   0.000000
     8  C    2.790376   1.845889   0.000000
     9  C    3.554893   2.167620   1.387410   0.000000
    10  C    4.738286   2.931119   2.449937   1.508354   0.000000
    11  C    6.052772   4.316839   3.543950   2.607845   1.397062
    12  C    6.383037   4.924968   3.852154   2.852114   2.291762
    13  S    5.385433   4.342032   3.216265   2.216000   2.651482
    14  S    3.753101   3.151594   2.872830   2.024428   3.220340
    15  H    2.890037   4.699317   5.447188   5.953338   7.277241
    16  H    2.494427   2.849442   4.370722   4.389431   5.302859
    17  H    2.919684   2.696328   1.122663   2.013611   3.285395
    18  H    4.752879   2.767073   2.816014   2.224566   1.098336
    19  H    7.477119   6.058340   4.882234   3.979245   3.370331
    20  H    5.700272   4.853661   3.278115   2.818913   3.254298
                   11         12         13         14         15
    11  C    0.000000
    12  C    1.359800   0.000000
    13  S    2.603906   1.703483   0.000000
    14  S    4.031100   3.750282   2.344968   0.000000
    15  H    8.542932   8.639529   7.306592   5.215686   0.000000
    16  H    6.635860   7.046660   6.086149   3.970554   3.086498
    17  H    4.168439   4.130133   3.156845   2.834835   5.218545
    18  H    2.113311   3.278469   3.740901   3.960541   7.398156
    19  H    2.189965   1.155210   2.523737   4.760763   9.702582
    20  H    3.042418   2.106554   1.439683   3.369480   7.736368
                   16         17         18         19         20
    16  H    0.000000
    17  H    4.754458   0.000000
    18  H    5.178630   3.847587   0.000000
    19  H    8.191362   5.057451   4.274493   0.000000
    20  H    6.907360   2.958599   4.294340   2.553172   0.000000
 Stoichiometry    C8H6OS5
 Framework group  C1[X(C8H6OS5)]
 Deg. of freedom    54
 Full point group                 C1      NOp   1
 Largest Abelian subgroup         C1      NOp   1
 Largest concise Abelian subgroup C1      NOp   1
                         Standard orientation:                         
 ---------------------------------------------------------------------
 Center     Atomic      Atomic             Coordinates (Angstroms)
 Number     Number       Type             X           Y           Z
 ---------------------------------------------------------------------
      1          8           0        2.205532    2.272214   -0.972016
      2          6           0        1.919447    1.676757   -0.003673
      3         16           0        3.786604    0.864489    0.921496
      4          6           0        3.864834   -0.501423   -0.114602
      5          6           0        2.702782   -1.076864    0.285762
      6         16           0        1.529630   -1.540515   -0.899053
      7         16           0       -0.077852   -1.831507    0.307930
      8          6           0       -1.247189   -1.291058   -1.014141
      9          6           0       -1.743017   -0.479314   -0.004123
     10          6           0       -2.863127   -1.071639    0.814190
     11          6           0       -4.201916   -0.673374    0.842640
     12          6           0       -4.397922    0.532473    0.245505
     13         16           0       -2.998994    1.317471   -0.327760
     14         16           0       -0.717657    1.252936    0.210949
     15          1           0        4.094333   -0.231655   -1.147037
     16          1           0        2.410329   -0.912006    1.348504
     17          1           0       -1.056323   -0.617725   -1.891958
     18          1           0       -2.647349   -2.024245    1.316508
     19          1           0       -5.464490    0.928715    0.045668
     20          1           0       -3.531810    0.979881   -1.621911
 ---------------------------------------------------------------------
 Rotational constants (GHZ):           0.8199310           0.2507942           0.2109330
 Standard basis: 6-31G(2df,p) (6D, 7F)
 There are   484 symmetry adapted cartesian basis functions of A   symmetry.
 There are   442 symmetry adapted basis functions of A   symmetry.
   442 basis functions,   778 primitive gaussians,   484 cartesian basis functions
    71 alpha electrons       71 beta electrons
       nuclear repulsion energy      1443.6336582003 Hartrees.
 NAtoms=   20 NActive=   20 NUniq=   20 SFac= 1.00D+00 NAtFMM=   60 NAOKFM=F Big=F
 Integral buffers will be    131072 words long.
 Raffenetti 2 integral format.
 Two-electron integral symmetry is turned on.
 One-electron integrals computed using PRISM.
 PrsmSu:  requested number of processors reduced to:  13 ShMem   1 Linda.
 NBasis=   442 RedAO= T EigKep=  6.49D-04  NBF=   442
 NBsUse=   442 1.00D-06 EigRej= -1.00D+00 NBFU=   442
 Initial guess from the checkpoint file:  "OdC1SCdCSSCdC2CdCdC[SH]dS12.chk"
 B after Tr=    -0.000000    0.000000   -0.000000
         Rot=    0.999687    0.023294   -0.000927   -0.009032 Ang=   2.87 deg.
 ExpMin= 1.17D-01 ExpMax= 2.19D+04 ExpMxC= 3.30D+03 IAcc=2 IRadAn=         4 AccDes= 0.00D+00
 Harris functional with IExCor=  402 and IRadAn=       4 diagonalized for initial guess.
 HarFok:  IExCor=  402 AccDes= 0.00D+00 IRadAn=         4 IDoV= 1 UseB2=F ITyADJ=14
 ICtDFT=  3500011 ScaDFX=  1.000000  1.000000  1.000000  1.000000
 FoFCou: FMM=F IPFlag=           0 FMFlag=      100000 FMFlg1=           0
         NFxFlg=           0 DoJE=T BraDBF=F KetDBF=T FulRan=T
         wScrn=  0.000000 ICntrl=       500 IOpCl=  0 I1Cent=   200000004 NGrid=           0
         NMat0=    1 NMatS0=      1 NMatT0=    0 NMatD0=    1 NMtDS0=    0 NMtDT0=    0
 Petite list used in FoFCou.
 Requested convergence on RMS density matrix=1.00D-08 within 128 cycles.
 Requested convergence on MAX density matrix=1.00D-06.
 Requested convergence on             energy=1.00D-06.
 No special actions if energy rises.
 Integral accuracy reduced to 1.0D-05 until final iterations.
 Initial convergence to 1.0D-05 achieved.  Increase integral accuracy.
 SCF Done:  E(RB3LYP) =  -2374.11352661     A.U. after   25 cycles
            NFock= 25  Conv=0.97D-08     -V/T= 2.0035
 PrsmSu:  requested number of processors reduced to:  13 ShMem   1 Linda.
 Calling FoFJK, ICntrl=      2127 FMM=F ISym2X=0 I1Cent= 0 IOpClX= 0 NMat=1 NMatS=1 NMatT=0.
 ***** Axes restored to original set *****
 -------------------------------------------------------------------
 Center     Atomic                   Forces (Hartrees/Bohr)
 Number     Number              X              Y              Z
 -------------------------------------------------------------------
      1        8           0.003870419    0.028001999   -0.031063460
      2        6           0.005675737   -0.020889302    0.034562609
      3       16          -0.023171042    0.011183901    0.021754681
      4        6           0.000337526    0.010911205    0.022418484
      5        6           0.011070534    0.004572304   -0.016555995
      6       16          -0.015846443   -0.013938637    0.000784022
      7       16           0.003258735   -0.027959285   -0.020925266
      8        6           0.019532517    0.008312775    0.004937446
      9        6           0.037035694    0.048306921    0.030188948
     10        6          -0.013947408   -0.002805735   -0.010189782
     11        6          -0.004375891   -0.002321813   -0.006328854
     12        6           0.049874835    0.037965973   -0.038317004
     13       16           0.048615978   -0.027888605    0.045432605
     14       16          -0.033918350   -0.007867151   -0.009454828
     15        1          -0.007418754   -0.009636689   -0.015384785
     16        1           0.009273001   -0.020015233   -0.008711678
     17        1          -0.023279448   -0.013465718   -0.021747803
     18        1          -0.008521667    0.001033234    0.007608450
     19        1          -0.032833320   -0.016058528    0.003396047
     20        1          -0.025232654    0.012558383    0.007596162
 -------------------------------------------------------------------
 Cartesian Forces:  Max     0.049874835 RMS     0.022029921

 GradGradGradGradGradGradGradGradGradGradGradGradGradGradGradGradGradGrad
 Berny optimization.
 Using GEDIIS/GDIIS optimizer.
 FormGI is forming the generalized inverse of G from B-inverse, IUseBI=4.
 Internal  Forces:  Max     0.196763676 RMS     0.037376040
 Search for a local minimum.
 Step number   3 out of a maximum of   88
 All quantities printed in internal units (Hartrees-Bohrs-Radians)
[...]
 Integral accuracy reduced to 1.0D-05 until final iterations.
 Initial convergence to 1.0D-05 achieved.  Increase integral accuracy.
 SCF Done:  E(RB3LYP) =  -2374.47762398     A.U. after   17 cycles
            NFock= 17  Conv=0.86D-08     -V/T= 2.0037
 PrsmSu:  requested number of processors reduced to:  13 ShMem   1 Linda.
 Calling FoFJK, ICntrl=      2127 FMM=F ISym2X=0 I1Cent= 0 IOpClX= 0 NMat=1 NMatS=1 NMatT=0.
 ***** Axes restored to original set *****
 -------------------------------------------------------------------
 Center     Atomic                   Forces (Hartrees/Bohr)
 Number     Number              X              Y              Z
 -------------------------------------------------------------------
      1        8          -0.003432383    0.013196170   -0.013796760
      2        6           0.006623826   -0.010343589    0.019691626
      3       16           0.002531120   -0.007996903   -0.009185976
      4        6           0.007863459    0.004567157   -0.004270264
      5        6          -0.020859122   -0.002210839   -0.004031318
      6       16          -0.002595909   -0.008192089    0.013153721
      7       16           0.024429864    0.017471080    0.001298598
      8        6          -0.011628475   -0.015076393   -0.009172976
      9        6          -0.013554695   -0.006655553   -0.006267648
     10        6           0.022646710   -0.001726663   -0.005958032
     11        6           0.018341601    0.049551549    0.020484841
     12        6          -0.014629768   -0.030190978   -0.009707710
     13       16           0.011333815    0.001164313    0.002192593
     14       16          -0.012052379    0.002410051    0.006175218
     15        1          -0.001336677   -0.000013332   -0.000997497
     16        1           0.003353707    0.004597616    0.004913072
     17        1           0.001995896    0.003316409    0.003743585
     18        1          -0.009879806    0.004270324   -0.001662626
     19        1          -0.010377554   -0.019358277   -0.005612651
     20        1           0.001226769    0.001219949   -0.000989797
 -------------------------------------------------------------------
 Cartesian Forces:  Max     0.049551549 RMS     0.012597983

 GradGradGradGradGradGradGradGradGradGradGradGradGradGradGradGradGradGrad
 Berny optimization.
 Using GEDIIS/GDIIS optimizer.
 FormGI is forming the generalized inverse of G from B-inverse, IUseBI=4.
 Internal  Forces:  Max     0.057496178 RMS     0.008814223
 Search for a local minimum.
 Step number  27 out of a maximum of   88
 All quantities printed in internal units (Hartrees-Bohrs-Radians)
 Mixed Optimization -- RFO/linear search
 Update second derivatives using D2CorX and points   26   27
 DE= -4.93D-03 DEPred=-5.35D-03 R= 9.21D-01
 TightC=F SS=  1.41D+00  RLast= 7.00D-01 DXNew= 5.0454D+00 2.0989D+00
 Trust test= 9.21D-01 RLast= 7.00D-01 DXMaxT set to 3.00D+00
 ITU=  1  1  1  1  1  0  0  0  0  0  0  0  0  0  1  1 -1  0  1  1
 ITU=  1  1  1  0  0  1  0
 Use linear search instead of GDIIS.
     Eigenvalues ---    0.00000   0.00012   0.00218   0.00246   0.00308
     Eigenvalues ---    0.00494   0.00652   0.00871   0.01064   0.01240
     Eigenvalues ---    0.01561   0.02278   0.02533   0.02748   0.03869
     Eigenvalues ---    0.05640   0.06484   0.07722   0.10242   0.10767
     Eigenvalues ---    0.13830   0.14630   0.15553   0.15777   0.16005
     Eigenvalues ---    0.16238   0.16571   0.17391   0.18614   0.20050
     Eigenvalues ---    0.21017   0.22257   0.23037   0.23320   0.24442
     Eigenvalues ---    0.24803   0.25648   0.26269   0.26574   0.27295
     Eigenvalues ---    0.30237   0.31043   0.31253   0.31821   0.35127
     Eigenvalues ---    0.36480   0.41146   0.45830   0.52087   0.52822
     Eigenvalues ---    0.59586   0.80450   1.06583   4.87018
 RFO step:  Lambda=-1.08602218D-02 EMin= 2.08262086D-06
 Quartic linear search produced a step of  0.18596.
 Iteration  1 RMS(Cart)=  0.01237444 RMS(Int)=  0.06351260
 Iteration  2 RMS(Cart)=  0.00729695 RMS(Int)=  0.05937124
 Iteration  3 RMS(Cart)=  0.00607083 RMS(Int)=  0.05590893
 Iteration  4 RMS(Cart)=  0.00513665 RMS(Int)=  0.05297309
 Iteration  5 RMS(Cart)=  0.00442919 RMS(Int)=  0.05043725
 Iteration  6 RMS(Cart)=  0.00387720 RMS(Int)=  0.04821448
 Iteration  7 RMS(Cart)=  0.00343589 RMS(Int)=  0.04624277
 Iteration  8 RMS(Cart)=  0.00307585 RMS(Int)=  0.04447676
 Iteration  9 RMS(Cart)=  0.00277704 RMS(Int)=  0.04288292
 Iteration 10 RMS(Cart)=  0.00252517 RMS(Int)=  0.04143955
 Iteration 11 RMS(Cart)=  0.00230937 RMS(Int)=  0.35621659
 Iteration 12 RMS(Cart)=  0.00241886 RMS(Int)=  0.03863330
 Iteration 13 RMS(Cart)=  0.00196065 RMS(Int)=  0.03820481
 Iteration 14 RMS(Cart)=  0.00175525 RMS(Int)=  0.35039493
 Iteration 15 RMS(Cart)=  0.00189264 RMS(Int)=  0.03546887
 Iteration 16 RMS(Cart)=  0.00156673 RMS(Int)=  0.35497072
 Iteration 17 RMS(Cart)=  0.00163394 RMS(Int)=  0.03352520
 Iteration 18 RMS(Cart)=  0.00139215 RMS(Int)=  0.35717324
 Iteration 19 RMS(Cart)=  0.00143034 RMS(Int)=  0.03191865
 Iteration 20 RMS(Cart)=  0.00124348 RMS(Int)=  0.35559911
 Iteration 21 RMS(Cart)=  0.00101499 RMS(Int)=  0.03060886
 Iteration 22 RMS(Cart)=  0.00112430 RMS(Int)=  0.35579814
 Iteration 23 RMS(Cart)=  0.00092587 RMS(Int)=  0.02941195
 Iteration 24 RMS(Cart)=  0.00102059 RMS(Int)=  0.35654177
 Iteration 25 RMS(Cart)=  0.00084911 RMS(Int)=  0.02840844
 Iteration 26 RMS(Cart)=  0.00092647 RMS(Int)=  0.35486109
 Iteration 27 RMS(Cart)=  0.00095085 RMS(Int)=  0.02726263
 Iteration 28 RMS(Cart)=  0.00085562 RMS(Int)=  0.35597059
 Iteration 29 RMS(Cart)=  0.00072041 RMS(Int)=  0.02639158
 Iteration 30 RMS(Cart)=  0.00078451 RMS(Int)=  0.35525849
 Iteration 31 RMS(Cart)=  0.00079968 RMS(Int)=  0.02546099
 Iteration 32 RMS(Cart)=  0.00073073 RMS(Int)=  0.35548557
 Iteration 33 RMS(Cart)=  0.00062110 RMS(Int)=  0.02469005
 Iteration 34 RMS(Cart)=  0.00067559 RMS(Int)=  0.35552520
 Iteration 35 RMS(Cart)=  0.00068466 RMS(Int)=  0.02392286
 Iteration 36 RMS(Cart)=  0.00063327 RMS(Int)=  0.35511512
 Iteration 37 RMS(Cart)=  0.00054252 RMS(Int)=  0.02323063
 Iteration 38 RMS(Cart)=  0.00058933 RMS(Int)=  0.35567505
 Iteration 39 RMS(Cart)=  0.00059369 RMS(Int)=  0.02259010
 Iteration 40 RMS(Cart)=  0.00055547 RMS(Int)=  0.35484541
 Iteration 41 RMS(Cart)=  0.00047900 RMS(Int)=  0.02196318
 Iteration 42 RMS(Cart)=  0.00051965 RMS(Int)=  0.35569385
 Iteration 43 RMS(Cart)=  0.00052113 RMS(Int)=  0.02141748
 Iteration 44 RMS(Cart)=  0.00049210 RMS(Int)=  0.35469798
 Iteration 45 RMS(Cart)=  0.00042679 RMS(Int)=  0.02085117
 Iteration 46 RMS(Cart)=  0.00046239 RMS(Int)=  0.35558192
 Iteration 47 RMS(Cart)=  0.00046195 RMS(Int)=  0.02037156
 Iteration 48 RMS(Cart)=  0.00043967 RMS(Int)=  0.35468200
 Iteration 49 RMS(Cart)=  0.00038360 RMS(Int)=  0.01986906
 Iteration 50 RMS(Cart)=  0.00041424 RMS(Int)=  0.35535051
 Iteration 51 RMS(Cart)=  0.00041293 RMS(Int)=  0.01942819
 Iteration 52 RMS(Cart)=  0.00039569 RMS(Int)=  0.35480288
 Iteration 53 RMS(Cart)=  0.00034703 RMS(Int)=  0.01899910
 Iteration 54 RMS(Cart)=  0.00037388 RMS(Int)=  0.35502529
 Iteration 55 RMS(Cart)=  0.00037180 RMS(Int)=  0.01857267
 Iteration 56 RMS(Cart)=  0.00035840 RMS(Int)=  0.35504189
 Iteration 57 RMS(Cart)=  0.00031579 RMS(Int)=  0.01822786
 Iteration 58 RMS(Cart)=  0.00034018 RMS(Int)=  0.35463987
 Iteration 59 RMS(Cart)=  0.00033690 RMS(Int)=  0.01779652
 Iteration 60 RMS(Cart)=  0.00032635 RMS(Int)=  0.35536849
 Iteration 61 RMS(Cart)=  0.00028891 RMS(Int)=  0.01754257
 Iteration 62 RMS(Cart)=  0.00031039 RMS(Int)=  0.35423704
 Iteration 63 RMS(Cart)=  0.00030700 RMS(Int)=  0.01709432
 Iteration 64 RMS(Cart)=  0.00029891 RMS(Int)=  0.35575450
 Iteration 65 RMS(Cart)=  0.00026557 RMS(Int)=  0.01692790
 Iteration 66 RMS(Cart)=  0.00028538 RMS(Int)=  0.35387163
 Iteration 67 RMS(Cart)=  0.00028115 RMS(Int)=  0.01646111
 Iteration 68 RMS(Cart)=  0.00027497 RMS(Int)=  0.35604916
 Iteration 69 RMS(Cart)=  0.00026923 RMS(Int)=  0.01621985
 Iteration 70 RMS(Cart)=  0.00026477 RMS(Int)=  0.35464005
 Iteration 71 RMS(Cart)=  0.00023564 RMS(Int)=  0.01588142
 Iteration 72 RMS(Cart)=  0.00025422 RMS(Int)=  0.35598165
 Iteration 73 RMS(Cart)=  0.00022711 RMS(Int)=  0.01581407
 Iteration 74 RMS(Cart)=  0.00024366 RMS(Int)=  0.35357598
 Iteration 75 RMS(Cart)=  0.00023881 RMS(Int)=  0.01535326
 Iteration 76 RMS(Cart)=  0.00023569 RMS(Int)=  0.35569542
 Iteration 77 RMS(Cart)=  0.00022961 RMS(Int)=  0.01513161
 Iteration 78 RMS(Cart)=  0.00022776 RMS(Int)=  0.35492060
 Iteration 79 RMS(Cart)=  0.00020370 RMS(Int)=  0.01485822
 Iteration 80 RMS(Cart)=  0.00021945 RMS(Int)=  0.35575789
 Iteration 81 RMS(Cart)=  0.00021320 RMS(Int)=  0.01466598
 Iteration 82 RMS(Cart)=  0.00021233 RMS(Int)=  0.35480783
 Iteration 83 RMS(Cart)=  0.00019025 RMS(Int)=  0.01439993
 Iteration 84 RMS(Cart)=  0.00020495 RMS(Int)=  0.35579112
 Iteration 85 RMS(Cart)=  0.00019859 RMS(Int)=  0.01423324
 Iteration 86 RMS(Cart)=  0.00019861 RMS(Int)=  0.35471935
 Iteration 87 RMS(Cart)=  0.00017819 RMS(Int)=  0.01397428
 Iteration 88 RMS(Cart)=  0.00019191 RMS(Int)=  0.35579546
 Iteration 89 RMS(Cart)=  0.00018550 RMS(Int)=  0.01382933
 Iteration 90 RMS(Cart)=  0.00018624 RMS(Int)=  0.35465570
 Iteration 91 RMS(Cart)=  0.00016731 RMS(Int)=  0.01357794
 Iteration 92 RMS(Cart)=  0.00018019 RMS(Int)=  0.35576915
 Iteration 93 RMS(Cart)=  0.00017376 RMS(Int)=  0.01345065
 Iteration 94 RMS(Cart)=  0.00017506 RMS(Int)=  0.35461802
 Iteration 95 RMS(Cart)=  0.00015747 RMS(Int)=  0.01320824
 Iteration 96 RMS(Cart)=  0.00016953 RMS(Int)=  0.35570813
 Iteration 97 RMS(Cart)=  0.00016312 RMS(Int)=  0.01309397
 Iteration 98 RMS(Cart)=  0.00016489 RMS(Int)=  0.35460879
 Iteration 99 RMS(Cart)=  0.00014854 RMS(Int)=  0.01286327
 Iteration100 RMS(Cart)=  0.00015994 RMS(Int)=  0.35560914
 New curvilinear step not converged.
 ITry= 1 IFail=1 DXMaxC= 2.99D-01 DCOld= 1.00D+10 DXMaxT= 3.00D+00 DXLimC= 3.00D+00 Rises=F
 Iteration  1 RMS(Cart)=  0.01142782 RMS(Int)=  0.05788513
 Iteration  2 RMS(Cart)=  0.00639083 RMS(Int)=  0.05426242
 Iteration  3 RMS(Cart)=  0.00525381 RMS(Int)=  0.05127683
 Iteration  4 RMS(Cart)=  0.00440346 RMS(Int)=  0.04876950
 Iteration  5 RMS(Cart)=  0.00374820 RMS(Int)=  0.04663181
 Iteration  6 RMS(Cart)=  0.00323130 RMS(Int)=  0.04478644
 Iteration  7 RMS(Cart)=  0.00281625 RMS(Int)=  0.04317634
 Iteration  8 RMS(Cart)=  0.00247730 RMS(Int)=  0.04175870
 Iteration  9 RMS(Cart)=  0.00219702 RMS(Int)=  0.04050047
 Iteration 10 RMS(Cart)=  0.00196248 RMS(Int)=  0.03937584
 Iteration 11 RMS(Cart)=  0.00176415 RMS(Int)=  0.03836436
 Iteration 12 RMS(Cart)=  0.00159497 RMS(Int)=  0.03744956
 Iteration 13 RMS(Cart)=  0.00144901 RMS(Int)=  0.03661833
 Iteration 14 RMS(Cart)=  0.00132205 RMS(Int)=  0.03586004
 Iteration 15 RMS(Cart)=  0.00121040 RMS(Int)=  0.03516638
 Iteration 16 RMS(Cart)=  0.00111035 RMS(Int)=  0.03453230
 Iteration 17 RMS(Cart)=  0.00101586 RMS(Int)=  0.03452857
 Iteration 18 RMS(Cart)=  0.00014618 RMS(Int)=  0.35061869
 Iteration 19 RMS(Cart)=  0.00530790 RMS(Int)=  0.03128536
 New curvilinear step failed, DQL= 2.69D+00 SP=-7.60D-03.
 ITry= 2 IFail=1 DXMaxC= 1.68D-01 DCOld= 1.00D+10 DXMaxT= 3.00D+00 DXLimC= 3.00D+00 Rises=F
 Iteration  1 RMS(Cart)=  0.01039655 RMS(Int)=  0.05235156
 Iteration  2 RMS(Cart)=  0.00245603 RMS(Int)=  0.05096744
 Iteration  3 RMS(Cart)=  0.00219152 RMS(Int)=  0.04973097
 Iteration  4 RMS(Cart)=  0.00197293 RMS(Int)=  0.04861668
 Iteration  5 RMS(Cart)=  0.00178964 RMS(Int)=  0.04760499
 Iteration  6 RMS(Cart)=  0.00163401 RMS(Int)=  0.04668052
 Iteration  7 RMS(Cart)=  0.00150043 RMS(Int)=  0.04583097
 Iteration  8 RMS(Cart)=  0.00138469 RMS(Int)=  0.04504642
 Iteration  9 RMS(Cart)=  0.00128356 RMS(Int)=  0.04431870
 Iteration 10 RMS(Cart)=  0.00119454 RMS(Int)=  0.04364106
 Iteration 11 RMS(Cart)=  0.00111565 RMS(Int)=  0.04300783
 Iteration 12 RMS(Cart)=  0.00104531 RMS(Int)=  0.04241422
 Iteration 13 RMS(Cart)=  0.00098227 RMS(Int)=  0.04185615
 Iteration 14 RMS(Cart)=  0.00092548 RMS(Int)=  0.04133012
 Iteration 15 RMS(Cart)=  0.00087409 RMS(Int)=  0.04083308
 Iteration 16 RMS(Cart)=  0.00082740 RMS(Int)=  0.04036242
 Iteration 17 RMS(Cart)=  0.00078481 RMS(Int)=  0.03991581
 Iteration 18 RMS(Cart)=  0.00074583 RMS(Int)=  0.03949124
 Iteration 19 RMS(Cart)=  0.00071003 RMS(Int)=  0.03908691
 Iteration 20 RMS(Cart)=  0.00067706 RMS(Int)=  0.03870124
 Iteration 21 RMS(Cart)=  0.00064661 RMS(Int)=  0.03833281
 Iteration 22 RMS(Cart)=  0.00061841 RMS(Int)=  0.03798034
 Iteration 23 RMS(Cart)=  0.00059223 RMS(Int)=  0.03764271
 Iteration 24 RMS(Cart)=  0.00056787 RMS(Int)=  0.03731888
 Iteration 25 RMS(Cart)=  0.00054515 RMS(Int)=  0.03700792
 Iteration 26 RMS(Cart)=  0.00052393 RMS(Int)=  0.03670901
 Iteration 27 RMS(Cart)=  0.00050406 RMS(Int)=  0.03642136
 Iteration 28 RMS(Cart)=  0.00048542 RMS(Int)=  0.03614429
 Iteration 29 RMS(Cart)=  0.00046791 RMS(Int)=  0.03587716
 Iteration 30 RMS(Cart)=  0.00045144 RMS(Int)=  0.03561938
 Iteration 31 RMS(Cart)=  0.00043591 RMS(Int)=  0.03537043
 Iteration 32 RMS(Cart)=  0.00042125 RMS(Int)=  0.03512979
 Iteration 33 RMS(Cart)=  0.00040740 RMS(Int)=  0.03489704
 Iteration 34 RMS(Cart)=  0.00039429 RMS(Int)=  0.03467173
 Iteration 35 RMS(Cart)=  0.00038186 RMS(Int)=  0.03445348
 Iteration 36 RMS(Cart)=  0.00037008 RMS(Int)=  0.03424194
 Iteration 37 RMS(Cart)=  0.00035888 RMS(Int)=  0.03403676
 Iteration 38 RMS(Cart)=  0.00034824 RMS(Int)=  0.03383765
 Iteration 39 RMS(Cart)=  0.00033810 RMS(Int)=  0.03364430
 Iteration 40 RMS(Cart)=  0.00032844 RMS(Int)=  0.03345644
 Iteration 41 RMS(Cart)=  0.00031923 RMS(Int)=  0.03327383
 Iteration 42 RMS(Cart)=  0.00031044 RMS(Int)=  0.03309623
 Iteration 43 RMS(Cart)=  0.00030204 RMS(Int)=  0.03292341
 Iteration 44 RMS(Cart)=  0.00029400 RMS(Int)=  0.03275516
 Iteration 45 RMS(Cart)=  0.00028631 RMS(Int)=  0.03259130
 Iteration 46 RMS(Cart)=  0.00027894 RMS(Int)=  0.03243164
 Iteration 47 RMS(Cart)=  0.00027188 RMS(Int)=  0.03227600
 Iteration 48 RMS(Cart)=  0.00026510 RMS(Int)=  0.03212423
 Iteration 49 RMS(Cart)=  0.00025859 RMS(Int)=  0.03197617
 Iteration 50 RMS(Cart)=  0.00025234 RMS(Int)=  0.03183167
 Iteration 51 RMS(Cart)=  0.00024633 RMS(Int)=  0.03169059
 Iteration 52 RMS(Cart)=  0.00024055 RMS(Int)=  0.03155282
 Iteration 53 RMS(Cart)=  0.00023499 RMS(Int)=  0.03141822
 Iteration 54 RMS(Cart)=  0.00022963 RMS(Int)=  0.03128668
 Iteration 55 RMS(Cart)=  0.00022446 RMS(Int)=  0.03115809
 Iteration 56 RMS(Cart)=  0.00021947 RMS(Int)=  0.03103234
 Iteration 57 RMS(Cart)=  0.00021467 RMS(Int)=  0.03090933
 Iteration 58 RMS(Cart)=  0.00021002 RMS(Int)=  0.03078898
 Iteration 59 RMS(Cart)=  0.00020554 RMS(Int)=  0.03067119
 Iteration 60 RMS(Cart)=  0.00020121 RMS(Int)=  0.03055587
 Iteration 61 RMS(Cart)=  0.00019702 RMS(Int)=  0.03044294
 Iteration 62 RMS(Cart)=  0.00019296 RMS(Int)=  0.03033233
 Iteration 63 RMS(Cart)=  0.00018904 RMS(Int)=  0.03022396
 Iteration 64 RMS(Cart)=  0.00018524 RMS(Int)=  0.03011776
 Iteration 65 RMS(Cart)=  0.00018156 RMS(Int)=  0.03001366
 Iteration 66 RMS(Cart)=  0.00017799 RMS(Int)=  0.02991161
 Iteration 67 RMS(Cart)=  0.00017453 RMS(Int)=  0.02981153
 Iteration 68 RMS(Cart)=  0.00017118 RMS(Int)=  0.02971336
 Iteration 69 RMS(Cart)=  0.00016792 RMS(Int)=  0.02961706
 Iteration 70 RMS(Cart)=  0.00016476 RMS(Int)=  0.02952257
 Iteration 71 RMS(Cart)=  0.00016169 RMS(Int)=  0.02942983
 Iteration 72 RMS(Cart)=  0.00015871 RMS(Int)=  0.02933880
 Iteration 73 RMS(Cart)=  0.00015581 RMS(Int)=  0.02924943
 Iteration 74 RMS(Cart)=  0.00015298 RMS(Int)=  0.02916168
 Iteration 75 RMS(Cart)=  0.00015024 RMS(Int)=  0.02907549
 Iteration 76 RMS(Cart)=  0.00014757 RMS(Int)=  0.02899084
 Iteration 77 RMS(Cart)=  0.00014496 RMS(Int)=  0.02890767
 Iteration 78 RMS(Cart)=  0.00014243 RMS(Int)=  0.02882595
 Iteration 79 RMS(Cart)=  0.00013996 RMS(Int)=  0.02874566
 Iteration 80 RMS(Cart)=  0.00013755 RMS(Int)=  0.02866674
 Iteration 81 RMS(Cart)=  0.00013520 RMS(Int)=  0.02858917
 Iteration 82 RMS(Cart)=  0.00013290 RMS(Int)=  0.02851291
 Iteration 83 RMS(Cart)=  0.00013066 RMS(Int)=  0.02843795
 Iteration 84 RMS(Cart)=  0.00012846 RMS(Int)=  0.02836424
 Iteration 85 RMS(Cart)=  0.00012632 RMS(Int)=  0.02829176
 Iteration 86 RMS(Cart)=  0.00012422 RMS(Int)=  0.02822050
 Iteration 87 RMS(Cart)=  0.00012215 RMS(Int)=  0.02815042
 Iteration 88 RMS(Cart)=  0.00012013 RMS(Int)=  0.02808151
 Iteration 89 RMS(Cart)=  0.00011813 RMS(Int)=  0.02801375
 Iteration 90 RMS(Cart)=  0.00011616 RMS(Int)=  0.02794714
 Iteration 91 RMS(Cart)=  0.00011420 RMS(Int)=  0.02788167
 Iteration 92 RMS(Cart)=  0.00011223 RMS(Int)=  0.02781737
 Iteration 93 RMS(Cart)=  0.00011024 RMS(Int)=  0.02775429
 Iteration 94 RMS(Cart)=  0.00010812 RMS(Int)=  0.02769261
 Iteration 95 RMS(Cart)=  0.00010569 RMS(Int)=  0.02763594
 Iteration 96 RMS(Cart)=  0.00009611 RMS(Int)=  0.35485112
 Iteration 97 RMS(Cart)=  0.00344024 RMS(Int)=  0.02555483
 Iteration 98 RMS(Cart)=  0.00008950 RMS(Int)=  0.02550351
 Iteration 99 RMS(Cart)=  0.00008839 RMS(Int)=  0.02545283
 Iteration100 RMS(Cart)=  0.00008731 RMS(Int)=  0.02540277
 New curvilinear step not converged.
 ITry= 3 IFail=1 DXMaxC= 1.58D-01 DCOld= 1.00D+10 DXMaxT= 3.00D+00 DXLimC= 3.00D+00 Rises=F
 Iteration  1 RMS(Cart)=  0.00935158 RMS(Int)=  0.04687688
 Iteration  2 RMS(Cart)=  0.00111652 RMS(Int)=  0.04625129
 Iteration  3 RMS(Cart)=  0.00105051 RMS(Int)=  0.04566235
 Iteration  4 RMS(Cart)=  0.00099092 RMS(Int)=  0.04510652
 Iteration  5 RMS(Cart)=  0.00093687 RMS(Int)=  0.04458074
 Iteration  6 RMS(Cart)=  0.00088767 RMS(Int)=  0.04408233
 Iteration  7 RMS(Cart)=  0.00084268 RMS(Int)=  0.04360896
 Iteration  8 RMS(Cart)=  0.00080144 RMS(Int)=  0.04315857
 Iteration  9 RMS(Cart)=  0.00076351 RMS(Int)=  0.04272932
 Iteration 10 RMS(Cart)=  0.00072852 RMS(Int)=  0.04231959
 Iteration 11 RMS(Cart)=  0.00069614 RMS(Int)=  0.04192792
 Iteration 12 RMS(Cart)=  0.00066612 RMS(Int)=  0.04155301
 Iteration 13 RMS(Cart)=  0.00063822 RMS(Int)=  0.04119368
 Iteration 14 RMS(Cart)=  0.00061221 RMS(Int)=  0.04084889
 Iteration 15 RMS(Cart)=  0.00058794 RMS(Int)=  0.04051766
 Iteration 16 RMS(Cart)=  0.00056524 RMS(Int)=  0.04019913
 Iteration 17 RMS(Cart)=  0.00054396 RMS(Int)=  0.03989251
 Iteration 18 RMS(Cart)=  0.00052398 RMS(Int)=  0.03959706
 Iteration 19 RMS(Cart)=  0.00050520 RMS(Int)=  0.03931213
 Iteration 20 RMS(Cart)=  0.00048751 RMS(Int)=  0.03903711
 Iteration 21 RMS(Cart)=  0.00047082 RMS(Int)=  0.03877144
 Iteration 22 RMS(Cart)=  0.00045506 RMS(Int)=  0.03851460
 Iteration 23 RMS(Cart)=  0.00044015 RMS(Int)=  0.03826613
 Iteration 24 RMS(Cart)=  0.00042603 RMS(Int)=  0.03802557
 Iteration 25 RMS(Cart)=  0.00041264 RMS(Int)=  0.03779252
 Iteration 26 RMS(Cart)=  0.00039993 RMS(Int)=  0.03756661
 Iteration 27 RMS(Cart)=  0.00038785 RMS(Int)=  0.03734748
 Iteration 28 RMS(Cart)=  0.00037636 RMS(Int)=  0.03713479
 Iteration 29 RMS(Cart)=  0.00036541 RMS(Int)=  0.03692826
 Iteration 30 RMS(Cart)=  0.00035498 RMS(Int)=  0.03672759
 Iteration 31 RMS(Cart)=  0.00034502 RMS(Int)=  0.03653251
 Iteration 32 RMS(Cart)=  0.00033551 RMS(Int)=  0.03634278
 Iteration 33 RMS(Cart)=  0.00032642 RMS(Int)=  0.03615816
 Iteration 34 RMS(Cart)=  0.00031772 RMS(Int)=  0.03597843
 Iteration 35 RMS(Cart)=  0.00030940 RMS(Int)=  0.03580338
 Iteration 36 RMS(Cart)=  0.00030142 RMS(Int)=  0.03563282
 Iteration 37 RMS(Cart)=  0.00029377 RMS(Int)=  0.03546656
 Iteration 38 RMS(Cart)=  0.00028643 RMS(Int)=  0.03530444
 Iteration 39 RMS(Cart)=  0.00027937 RMS(Int)=  0.03514628
 Iteration 40 RMS(Cart)=  0.00027260 RMS(Int)=  0.03499194
 Iteration 41 RMS(Cart)=  0.00026608 RMS(Int)=  0.03484127
 Iteration 42 RMS(Cart)=  0.00025982 RMS(Int)=  0.03469413
 Iteration 43 RMS(Cart)=  0.00025378 RMS(Int)=  0.03455039
 Iteration 44 RMS(Cart)=  0.00024797 RMS(Int)=  0.03440993
slurmstepd: error: *** JOB 27446980 ON lewis4-r630-hpc4-node231 CANCELLED AT 2023-05-17T12:44:36 DUE TO TIME LIMIT ***
