### Starting Gaussian ###
 Entering Gaussian System, Link 0=g16
 Initial command:
 /cluster/software/gaussian/gaussian-16-A.03/avx2/g16/l1.exe "/local/scratch/cz9n3/Gau-16119.inp" -scrdir="/local/scratch/cz9n3/"
 Entering Link 1 = /cluster/software/gaussian/gaussian-16-A.03/avx2/g16/l1.exe PID=     16120.
  
 Copyright (c) 1988,1990,1992,1993,1995,1998,2003,2009,2016,
            Gaussian, Inc.  All Rights Reserved.
  
 This is part of the Gaussian(R) 16 program.  It is based on
 the Gaussian(R) 09 system (copyright 2009, Gaussian, Inc.),
 the Gaussian(R) 03 system (copyright 2003, Gaussian, Inc.),
 the Gaussian(R) 98 system (copyright 1998, Gaussian, Inc.),
 the Gaussian(R) 94 system (copyright 1995, Gaussian, Inc.),
 the Gaussian 92(TM) system (copyright 1992, Gaussian, Inc.),
 the Gaussian 90(TM) system (copyright 1990, Gaussian, Inc.),
 the Gaussian 88(TM) system (copyright 1988, Gaussian, Inc.),
 the Gaussian 86(TM) system (copyright 1986, Carnegie Mellon
 University), and the Gaussian 82(TM) system (copyright 1983,
 Carnegie Mellon University). Gaussian is a federally registered
 trademark of Gaussian, Inc.
  
 This software contains proprietary and confidential information,
 including trade secrets, belonging to Gaussian, Inc.
  
 This software is provided under written license and may be
 used, copied, transmitted, or stored only in accord with that
 written license.
  
 The following legend is applicable only to US Government
 contracts under FAR:
  
                    RESTRICTED RIGHTS LEGEND
  
 Use, reproduction and disclosure by the US Government is
 subject to restrictions as set forth in subparagraphs (a)
 and (c) of the Commercial Computer Software - Restricted
 Rights clause in FAR 52.227-19.
  
 Gaussian, Inc.
 340 Quinnipiac St., Bldg. 40, Wallingford CT 06492
  
  
 ---------------------------------------------------------------
 Warning -- This program may not be used in any manner that
 competes with the business of Gaussian, Inc. or will provide
 assistance to any competitor of Gaussian, Inc.  The licensee
 of this program is prohibited from giving any competitor of
 Gaussian, Inc. access to this program.  By using this program,
 the user acknowledges that Gaussian, Inc. is engaged in the
 business of creating and licensing software in the field of
 computational chemistry and represents and warrants to the
 licensee that it is not a competitor of Gaussian, Inc. and that
 it will not use this program in any manner prohibited above.
 ---------------------------------------------------------------
  

 Cite this work as:
 Gaussian 16, Revision A.03,
 M. J. Frisch, G. W. Trucks, H. B. Schlegel, G. E. Scuseria, 
 M. A. Robb, J. R. Cheeseman, G. Scalmani, V. Barone, 
 G. A. Petersson, H. Nakatsuji, X. Li, M. Caricato, A. V. Marenich, 
 J. Bloino, B. G. Janesko, R. Gomperts, B. Mennucci, H. P. Hratchian, 
 J. V. Ortiz, A. F. Izmaylov, J. L. Sonnenberg, D. Williams-Young, 
 F. Ding, F. Lipparini, F. Egidi, J. Goings, B. Peng, A. Petrone, 
 T. Henderson, D. Ranasinghe, V. G. Zakrzewski, J. Gao, N. Rega, 
 G. Zheng, W. Liang, M. Hada, M. Ehara, K. Toyota, R. Fukuda, 
 J. Hasegawa, M. Ishida, T. Nakajima, Y. Honda, O. Kitao, H. Nakai, 
 T. Vreven, K. Throssell, J. A. Montgomery, Jr., J. E. Peralta, 
 F. Ogliaro, M. J. Bearpark, J. J. Heyd, E. N. Brothers, K. N. Kudin, 
 V. N. Staroverov, T. A. Keith, R. Kobayashi, J. Normand, 
 K. Raghavachari, A. P. Rendell, J. C. Burant, S. S. Iyengar, 
 J. Tomasi, M. Cossi, J. M. Millam, M. Klene, C. Adamo, R. Cammi, 
 J. W. Ochterski, R. L. Martin, K. Morokuma, O. Farkas, 
 J. B. Foresman, and D. J. Fox, Gaussian, Inc., Wallingford CT, 2016.
 
 ******************************************
 Gaussian 16:  ES64L-G16RevA.03 25-Dec-2016
                15-May-2023 
 ******************************************
 %chk=OdC1CdC2CdCCdCCdCNdCCdC12.chk
 %NProcShared=20
 Will use up to   20 processors via shared memory.
 -----------------------------
 # opt freq b3lyp/6-31g(2df,p)
 -----------------------------
 1/18=20,19=15,26=3,38=1/1,3;
 2/9=110,12=2,17=6,18=5,40=1/2;
 3/5=1,6=6,7=104,11=2,25=1,30=1,71=1,74=-5/1,2,3;
 4//1;
 5/5=2,38=5/2;
 6/7=2,8=2,9=2,10=2,28=1/1;
 7//1,2,3,16;
 1/18=20,19=15,26=3/3(2);
 2/9=110/2;
 99//99;
 2/9=110/2;
 3/5=1,6=6,7=104,11=2,25=1,30=1,71=1,74=-5/1,2,3;
 4/5=5,16=3,69=1/1;
 5/5=2,38=5/2;
 7//1,2,3,16;
 1/18=20,19=15,26=3/3(-5);
 2/9=110/2;
 6/7=2,8=2,9=2,10=2,19=2,28=1/1;
 99/9=1/99;
 -------------------
 Title Card Required
 -------------------
 Symbolic Z-matrix:
 Charge =  0 Multiplicity = 1
 O                     2.27989   1.41595  -0.00906 
 C                     3.52378   1.31118   0.02924 
 C                     3.90232  -0.109    -0.02683 
 C                     5.12323   0.39006  -0.03699 
 C                     6.18907  -0.48274  -0.00859 
 C                     7.1073    0.38644  -0.02092 
 C                     8.42645   0.24929  -0.02667 
 C                     8.93763   1.41514   0.10242 
 C                     10.20933   1.82967   0.44472 
 C                     9.86765   3.10622   0.5137 
 N                     9.84169   3.88424  -0.49755 
 C                     8.26995   4.07664  -0.70004 
 C                     6.61632   3.30772  -0.00012 
 C                     5.20732   2.11679  -0.19213 
 H                     3.52441  -1.24577  -0.01009 
 H                     6.3898   -1.51021   0.0051 
 H                     6.79577   1.3631    0.02787 
 H                     8.96351  -0.61266   0.03354 
 H                     8.18671   2.16525   0.11501 
 H                     10.97396   1.18812  -0.00138 
 H                     9.53831   3.95545   1.12403 
 H                     9.53907   4.85015  -0.6091 
 H                     5.9296    4.10335  -0.01127 
 
 Add virtual bond connecting atoms C12        and C13        Dist= 3.69D+00.
 Add virtual bond connecting atoms C14        and C13        Dist= 3.51D+00.
 Add virtual bond connecting atoms H17        and C13        Dist= 3.69D+00.
 Add virtual bond connecting atoms H19        and C13        Dist= 3.68D+00.

 GradGradGradGradGradGradGradGradGradGradGradGradGradGradGradGradGradGrad
 Berny optimization.
 Initialization pass.
                           ----------------------------
                           !    Initial Parameters    !
                           ! (Angstroms and Degrees)  !
 --------------------------                            --------------------------
 ! Name  Definition              Value          Derivative Info.                !
 --------------------------------------------------------------------------------
 ! R1    R(1,2)                  1.2489         estimate D2E/DX2                !
 ! R2    R(2,3)                  1.4708         estimate D2E/DX2                !
 ! R3    R(3,4)                  1.319          estimate D2E/DX2                !
 ! R4    R(3,15)                 1.1981         estimate D2E/DX2                !
 ! R5    R(4,5)                  1.3779         estimate D2E/DX2                !
 ! R6    R(4,14)                 1.7357         estimate D2E/DX2                !
 ! R7    R(5,6)                  1.2644         estimate D2E/DX2                !
 ! R8    R(5,16)                 1.047          estimate D2E/DX2                !
 ! R9    R(6,7)                  1.3263         estimate D2E/DX2                !
 ! R10   R(6,17)                 1.0263         estimate D2E/DX2                !
 ! R11   R(7,8)                  1.2795         estimate D2E/DX2                !
 ! R12   R(7,18)                 1.0174         estimate D2E/DX2                !
 ! R13   R(8,9)                  1.3807         estimate D2E/DX2                !
 ! R14   R(8,19)                 1.0615         estimate D2E/DX2                !
 ! R15   R(9,10)                 1.3233         estimate D2E/DX2                !
 ! R16   R(9,20)                 1.0933         estimate D2E/DX2                !
 ! R17   R(10,11)                1.2762         estimate D2E/DX2                !
 ! R18   R(10,21)                1.0964         estimate D2E/DX2                !
 ! R19   R(11,12)                1.5964         estimate D2E/DX2                !
 ! R20   R(11,22)                1.0183         estimate D2E/DX2                !
 ! R21   R(12,13)                1.9534         estimate D2E/DX2                !
 ! R22   R(13,14)                1.8548         estimate D2E/DX2                !
 ! R23   R(13,17)                1.9531         estimate D2E/DX2                !
 ! R24   R(13,19)                1.9454         estimate D2E/DX2                !
 ! R25   R(13,23)                1.0511         estimate D2E/DX2                !
 ! A1    A(1,2,3)              109.6436         estimate D2E/DX2                !
 ! A2    A(2,3,4)               82.7145         estimate D2E/DX2                !
 ! A3    A(2,3,15)             146.559          estimate D2E/DX2                !
 ! A4    A(4,3,15)             130.6237         estimate D2E/DX2                !
 ! A5    A(3,4,5)              118.4358         estimate D2E/DX2                !
 ! A6    A(3,4,14)             114.9566         estimate D2E/DX2                !
 ! A7    A(5,4,14)             126.478          estimate D2E/DX2                !
 ! A8    A(4,5,6)               97.2449         estimate D2E/DX2                !
 ! A9    A(4,5,16)             140.3714         estimate D2E/DX2                !
 ! A10   A(6,5,16)             122.3776         estimate D2E/DX2                !
 ! A11   A(5,6,7)              130.6367         estimate D2E/DX2                !
 ! A12   A(5,6,17)             115.6747         estimate D2E/DX2                !
 ! A13   A(7,6,17)             113.6113         estimate D2E/DX2                !
 ! A14   A(6,7,8)              107.62           estimate D2E/DX2                !
 ! A15   A(6,7,18)             127.7646         estimate D2E/DX2                !
 ! A16   A(8,7,18)             123.718          estimate D2E/DX2                !
 ! A17   A(7,8,9)              131.8021         estimate D2E/DX2                !
 ! A18   A(7,8,19)             111.2516         estimate D2E/DX2                !
 ! A19   A(9,8,19)             115.8804         estimate D2E/DX2                !
 ! A20   A(8,9,10)              93.7115         estimate D2E/DX2                !
 ! A21   A(8,9,20)             111.5214         estimate D2E/DX2                !
 ! A22   A(10,9,20)            140.17           estimate D2E/DX2                !
 ! A23   A(9,10,11)            123.5089         estimate D2E/DX2                !
 ! A24   A(9,10,21)            148.6232         estimate D2E/DX2                !
 ! A25   A(11,10,21)            87.8673         estimate D2E/DX2                !
 ! A26   A(10,11,12)           101.1874         estimate D2E/DX2                !
 ! A27   A(10,11,22)           132.153          estimate D2E/DX2                !
 ! A28   A(12,11,22)            65.1148         estimate D2E/DX2                !
 ! A29   A(11,12,13)           137.7829         estimate D2E/DX2                !
 ! A30   A(12,13,14)           149.1731         estimate D2E/DX2                !
 ! A31   A(12,13,17)           108.6198         estimate D2E/DX2                !
 ! A32   A(12,13,19)            64.4697         estimate D2E/DX2                !
 ! A33   A(12,13,23)           104.556          estimate D2E/DX2                !
 ! A34   A(14,13,17)            55.389          estimate D2E/DX2                !
 ! A35   A(14,13,19)           104.02           estimate D2E/DX2                !
 ! A36   A(14,13,23)            89.3479         estimate D2E/DX2                !
 ! A37   A(17,13,19)            48.7202         estimate D2E/DX2                !
 ! A38   A(17,13,23)           144.4766         estimate D2E/DX2                !
 ! A39   A(4,14,13)            131.781          estimate D2E/DX2                !
 ! A40   L(19,13,23,12,-1)     169.0257         estimate D2E/DX2                !
 ! A41   L(6,17,13,1,-1)       192.3675         estimate D2E/DX2                !
 ! A42   L(8,19,13,5,-1)       170.9238         estimate D2E/DX2                !
 ! A43   L(19,13,23,12,-2)     188.2925         estimate D2E/DX2                !
 ! A44   L(6,17,13,1,-2)       183.8026         estimate D2E/DX2                !
 ! A45   L(8,19,13,5,-2)       183.7422         estimate D2E/DX2                !
 ! D1    D(1,2,3,4)            176.6271         estimate D2E/DX2                !
 ! D2    D(1,2,3,15)            -7.4172         estimate D2E/DX2                !
 ! D3    D(2,3,4,5)            176.1588         estimate D2E/DX2                !
 ! D4    D(2,3,4,14)            -7.7106         estimate D2E/DX2                !
 ! D5    D(15,3,4,5)            -0.906          estimate D2E/DX2                !
 ! D6    D(15,3,4,14)          175.2247         estimate D2E/DX2                !
 ! D7    D(3,4,5,6)           -179.5718         estimate D2E/DX2                !
 ! D8    D(3,4,5,16)             1.3932         estimate D2E/DX2                !
 ! D9    D(14,4,5,6)             4.7919         estimate D2E/DX2                !
 ! D10   D(14,4,5,16)         -174.2431         estimate D2E/DX2                !
 ! D11   D(3,4,14,13)          169.2212         estimate D2E/DX2                !
 ! D12   D(5,4,14,13)          -15.011          estimate D2E/DX2                !
 ! D13   D(4,5,6,7)           -178.8905         estimate D2E/DX2                !
 ! D14   D(4,5,6,17)             4.5544         estimate D2E/DX2                !
 ! D15   D(16,5,6,7)             0.3807         estimate D2E/DX2                !
 ! D16   D(16,5,6,17)         -176.1744         estimate D2E/DX2                !
 ! D17   D(5,6,7,8)           -173.321          estimate D2E/DX2                !
 ! D18   D(5,6,7,18)            -3.9634         estimate D2E/DX2                !
 ! D19   D(17,6,7,8)             3.2905         estimate D2E/DX2                !
 ! D20   D(17,6,7,18)          172.6482         estimate D2E/DX2                !
 ! D21   D(5,6,13,12)         -159.1412         estimate D2E/DX2                !
 ! D22   D(5,6,13,14)           -7.6069         estimate D2E/DX2                !
 ! D23   D(5,6,13,19)          173.8084         estimate D2E/DX2                !
 ! D24   D(5,6,13,23)           -2.7768         estimate D2E/DX2                !
 ! D25   D(7,6,13,12)           21.6557         estimate D2E/DX2                !
 ! D26   D(7,6,13,14)          173.19           estimate D2E/DX2                !
 ! D27   D(7,6,13,19)           -5.3948         estimate D2E/DX2                !
 ! D28   D(7,6,13,23)          178.0201         estimate D2E/DX2                !
 ! D29   D(6,7,8,9)            163.7923         estimate D2E/DX2                !
 ! D30   D(6,7,8,19)            -3.6347         estimate D2E/DX2                !
 ! D31   D(18,7,8,9)            -6.0988         estimate D2E/DX2                !
 ! D32   D(18,7,8,19)         -173.5258         estimate D2E/DX2                !
 ! D33   D(7,8,9,10)          -172.7477         estimate D2E/DX2                !
 ! D34   D(7,8,9,20)            38.733          estimate D2E/DX2                !
 ! D35   D(19,8,9,10)           -5.7798         estimate D2E/DX2                !
 ! D36   D(19,8,9,20)         -154.2991         estimate D2E/DX2                !
 ! D37   D(7,8,13,12)         -149.5697         estimate D2E/DX2                !
 ! D38   D(7,8,13,14)            0.8645         estimate D2E/DX2                !
 ! D39   D(7,8,13,17)            5.768          estimate D2E/DX2                !
 ! D40   D(9,8,13,12)           39.6426         estimate D2E/DX2                !
 ! D41   D(9,8,13,14)         -169.9232         estimate D2E/DX2                !
 ! D42   D(9,8,13,17)         -165.0197         estimate D2E/DX2                !
 ! D43   D(8,9,10,11)          -85.3199         estimate D2E/DX2                !
 ! D44   D(8,9,10,21)           94.2629         estimate D2E/DX2                !
 ! D45   D(20,9,10,11)          45.3516         estimate D2E/DX2                !
 ! D46   D(20,9,10,21)        -135.0656         estimate D2E/DX2                !
 ! D47   D(9,10,11,12)         108.2952         estimate D2E/DX2                !
 ! D48   D(9,10,11,22)         174.744          estimate D2E/DX2                !
 ! D49   D(21,10,11,12)        -71.4875         estimate D2E/DX2                !
 ! D50   D(21,10,11,22)         -5.0386         estimate D2E/DX2                !
 ! D51   D(10,11,12,13)         -9.3666         estimate D2E/DX2                !
 ! D52   D(22,11,12,13)       -140.8489         estimate D2E/DX2                !
 ! D53   D(11,12,13,14)        -97.9607         estimate D2E/DX2                !
 ! D54   D(11,12,13,17)        -45.1928         estimate D2E/DX2                !
 ! D55   D(11,12,13,19)        -24.0097         estimate D2E/DX2                !
 ! D56   D(11,12,13,23)        147.6978         estimate D2E/DX2                !
 ! D57   D(12,13,14,4)          73.659          estimate D2E/DX2                !
 ! D58   D(17,13,14,4)           7.2024         estimate D2E/DX2                !
 ! D59   D(19,13,14,4)          10.3025         estimate D2E/DX2                !
 ! D60   D(23,13,14,4)        -168.2156         estimate D2E/DX2                !
 --------------------------------------------------------------------------------
 Trust Radius=3.00D-01 FncErr=1.00D-07 GrdErr=1.00D-06 EigMax=2.50D+02 EigMin=1.00D-04
 Number of steps in this run=    138 maximum allowed number of steps=    138.
 GradGradGradGradGradGradGradGradGradGradGradGradGradGradGradGradGradGrad

                          Input orientation:                          
 ---------------------------------------------------------------------
 Center     Atomic      Atomic             Coordinates (Angstroms)
 Number     Number       Type             X           Y           Z
 ---------------------------------------------------------------------
      1          8           0        2.279890    1.415950   -0.009060
      2          6           0        3.523780    1.311180    0.029240
      3          6           0        3.902320   -0.109000   -0.026830
      4          6           0        5.123230    0.390060   -0.036990
      5          6           0        6.189070   -0.482740   -0.008590
      6          6           0        7.107300    0.386440   -0.020920
      7          6           0        8.426450    0.249290   -0.026670
      8          6           0        8.937630    1.415140    0.102420
      9          6           0       10.209330    1.829670    0.444720
     10          6           0        9.867650    3.106220    0.513700
     11          7           0        9.841690    3.884240   -0.497550
     12          6           0        8.269950    4.076640   -0.700040
     13          6           0        6.616320    3.307720   -0.000120
     14          6           0        5.207320    2.116790   -0.192130
     15          1           0        3.524410   -1.245770   -0.010090
     16          1           0        6.389800   -1.510210    0.005100
     17          1           0        6.795770    1.363100    0.027870
     18          1           0        8.963510   -0.612660    0.033540
     19          1           0        8.186710    2.165250    0.115010
     20          1           0       10.973960    1.188120   -0.001380
     21          1           0        9.538310    3.955450    1.124030
     22          1           0        9.539070    4.850150   -0.609100
     23          1           0        5.929600    4.103350   -0.011270
 ---------------------------------------------------------------------
                    Distance matrix (angstroms):
                    1          2          3          4          5
     1  O    0.000000
     2  C    1.248882   0.000000
     3  C    2.226672   1.470832   0.000000
     4  C    3.022882   1.846913   1.319009   0.000000
     5  C    4.345885   3.212997   2.317162   1.377897   0.000000
     6  C    4.935982   3.701253   3.243053   1.984138   1.264426
     7  C    6.256325   5.016663   4.538295   3.306234   2.354159
     8  C    6.658673   5.415343   5.262514   3.952198   3.341984
     9  C    7.953182   6.718485   6.615072   5.307818   4.659959
    10  C    7.791302   6.610715   6.798160   5.494571   5.165789
    11  N    7.969435   6.842085   7.172424   5.889421   5.714125
    12  C    6.590716   5.541277   6.086788   4.892071   5.059260
    13  C    4.731120   3.681146   4.363540   3.277715   3.814473
    14  C    3.015715   1.879446   2.585438   1.735723   2.784794
    15  H    2.938296   2.557253   1.198058   2.287551   2.771756
    16  H    5.045193   4.021802   2.855165   2.284075   1.046984
    17  H    4.516340   3.272402   3.246864   1.936079   1.943332
    18  H    6.984830   5.769908   5.086547   3.969656   2.777800
    19  H    5.955448   4.741277   4.852662   3.543912   3.319291
    20  H    8.697058   7.451259   7.189663   5.905016   5.068234
    21  H    7.772877   6.660728   7.043338   5.792487   5.674308
    22  H    8.052917   7.008245   7.530283   6.302329   6.326360
    23  H    4.532384   3.685895   4.674826   3.799923   4.593425
                    6          7          8          9         10
     6  C    0.000000
     7  C    1.326273   0.000000
     8  C    2.103222   1.279522   0.000000
     9  C    3.452872   2.428677   1.380661   0.000000
    10  C    3.911848   3.245167   1.973282   1.323285   0.000000
    11  N    4.465274   3.929058   2.696988   2.290041   1.276172
    12  C    3.928172   3.889284   2.858902   3.181280   2.228795
    13  C    2.962325   3.554050   2.996807   3.910529   3.297842
    14  C    2.575529   3.725283   3.807136   5.050556   4.816206
    15  H    3.937173   5.124985   6.032914   7.372472   7.710439
    16  H    2.027995   2.691615   3.880539   5.092826   5.802201
    17  H    1.026302   1.975516   2.143789   3.470424   3.565241
    18  H    2.108716   1.017358   2.029135   2.772384   3.857213
    19  H    2.085130   1.936092   1.061463   2.076611   1.967216
    20  H    3.948941   2.715115   2.051573   1.093275   2.273398
    21  H    4.467500   4.036826   2.803155   2.330380   1.096430
    22  H    5.117047   4.769178   3.559113   3.268499   2.099985
    23  H    3.899037   4.592197   4.035795   4.867611   4.096108
                   11         12         13         14         15
    11  N    0.000000
    12  C    1.596367   0.000000
    13  C    3.314034   1.953361   0.000000
    14  C    4.969361   3.671333   1.854849   0.000000
    15  H    8.152463   7.164093   5.504024   3.764590   0.000000
    16  H    6.424040   5.936757   4.823255   3.819985   2.877606
    17  H    3.988714   3.172753   1.953083   1.771898   4.184428
    18  H    4.612523   4.796738   4.569443   4.648633   5.475997
    19  H    2.463557   2.079579   1.945409   2.995571   5.778213
    20  H    2.966021   4.017878   4.845795   5.844053   7.837072
    21  H    1.651252   2.225007   3.197076   4.885737   8.031557
    22  H    1.018334   1.489044   3.360419   5.138986   8.584590
    23  H    3.948281   2.439745   1.051064   2.121513   5.864983
                   16         17         18         19         20
    16  H    0.000000
    17  H    2.901937   0.000000
    18  H    2.725874   2.933046   0.000000
    19  H    4.092673   1.608027   2.885626   0.000000
    20  H    5.319356   4.181955   2.699248   2.955857   0.000000
    21  H    6.406134   3.929805   4.731511   2.459626   3.314476
    22  H    7.123856   4.482292   5.530511   3.092232   3.979786
    23  H    5.632416   2.874152   5.607795   2.977704   5.826168
                   21         22         23
    21  H    0.000000
    22  H    1.950443   0.000000
    23  H    3.785970   3.734084   0.000000
 Stoichiometry    C12H9NO
 Framework group  C1[X(C12H9NO)]
 Deg. of freedom    63
 Full point group                 C1      NOp   1
 Largest Abelian subgroup         C1      NOp   1
 Largest concise Abelian subgroup C1      NOp   1
                         Standard orientation:                         
 ---------------------------------------------------------------------
 Center     Atomic      Atomic             Coordinates (Angstroms)
 Number     Number       Type             X           Y           Z
 ---------------------------------------------------------------------
      1          8           0        4.379357   -1.306872    0.145425
      2          6           0        3.242870   -0.789189    0.135012
      3          6           0        3.363806    0.665505   -0.045503
      4          6           0        2.046240    0.604657   -0.055667
      5          6           0        1.335577    1.782744   -0.130959
      6          6           0        0.178719    1.273100   -0.104192
      7          6           0       -1.017597    1.842583   -0.163493
      8          6           0       -1.891326    0.930431    0.040835
      9          6           0       -3.229704    0.996011    0.373505
     10          6           0       -3.337141   -0.310452    0.554323
     11          7           0       -3.570174   -1.135700   -0.390811
     12          6           0       -2.153709   -1.859315   -0.526435
     13          6           0       -0.340610   -1.631026    0.163619
     14          6           0        1.387396   -1.001031   -0.076310
     15          1           0        4.101673    1.607401   -0.106550
     16          1           0        1.491740    2.815355   -0.205133
     17          1           0        0.143741    0.256449    0.031799
     18          1           0       -1.234006    2.836327   -0.189110
     19          1           0       -1.436198   -0.023668    0.137059
     20          1           0       -3.732526    1.815780   -0.146494
     21          1           0       -3.314725   -1.165499    1.240290
     22          1           0       -3.609304   -2.152977   -0.415711
     23          1           0        0.038848   -2.608398    0.237714
 ---------------------------------------------------------------------
 Rotational constants (GHZ):           1.5844346           0.3921046           0.3200489
 Standard basis: 6-31G(2df,p) (6D, 7F)
 There are   479 symmetry adapted cartesian basis functions of A   symmetry.
 There are   437 symmetry adapted basis functions of A   symmetry.
   437 basis functions,   679 primitive gaussians,   479 cartesian basis functions
    48 alpha electrons       48 beta electrons
       nuclear repulsion energy       762.3208482563 Hartrees.
 NAtoms=   23 NActive=   23 NUniq=   23 SFac= 1.00D+00 NAtFMM=   60 NAOKFM=F Big=F
 Integral buffers will be    131072 words long.
 Raffenetti 2 integral format.
 Two-electron integral symmetry is turned on.
 One-electron integrals computed using PRISM.
 PrsmSu:  requested number of processors reduced to:  13 ShMem   1 Linda.
 NBasis=   437 RedAO= T EigKep=  1.91D-04  NBF=   437
 NBsUse=   437 1.00D-06 EigRej= -1.00D+00 NBFU=   437
 ExpMin= 1.61D-01 ExpMax= 5.48D+03 ExpMxC= 8.25D+02 IAcc=3 IRadAn=         5 AccDes= 0.00D+00
 Harris functional with IExCor=  402 and IRadAn=       5 diagonalized for initial guess.
 HarFok:  IExCor=  402 AccDes= 0.00D+00 IRadAn=         5 IDoV= 1 UseB2=F ITyADJ=14
 ICtDFT=  3500011 ScaDFX=  1.000000  1.000000  1.000000  1.000000
 FoFCou: FMM=F IPFlag=           0 FMFlag=      100000 FMFlg1=           0
         NFxFlg=           0 DoJE=T BraDBF=F KetDBF=T FulRan=T
         wScrn=  0.000000 ICntrl=       500 IOpCl=  0 I1Cent=   200000004 NGrid=           0
         NMat0=    1 NMatS0=      1 NMatT0=    0 NMatD0=    1 NMtDS0=    0 NMtDT0=    0
 Petite list used in FoFCou.
 Requested convergence on RMS density matrix=1.00D-08 within 128 cycles.
 Requested convergence on MAX density matrix=1.00D-06.
 Requested convergence on             energy=1.00D-06.
 No special actions if energy rises.
 Integral accuracy reduced to 1.0D-05 until final iterations.
 EnCoef did     6 forward-backward iterations
 EnCoef did     4 forward-backward iterations
 Problem detected with inexpensive integrals.
 Switching to full accuracy and repeating last cycle.
 EnCoef did     2 forward-backward iterations
 EnCoef did   100 forward-backward iterations
 EnCoef did   100 forward-backward iterations
 EnCoef did     5 forward-backward iterations
 EnCoef did     2 forward-backward iterations
 EnCoef did     4 forward-backward iterations
 Restarting incremental Fock formation.
 SCF Done:  E(RB3LYP) =  -591.682637267     A.U. after   28 cycles
            NFock= 28  Conv=0.59D-08     -V/T= 2.0045

 **********************************************************************

            Population analysis using the SCF density.

 **********************************************************************

 Orbital symmetries:
       Occupied  (A) (A) (A) (A) (A) (A) (A) (A) (A) (A) (A) (A)
                 (A) (A) (A) (A) (A) (A) (A) (A) (A) (A) (A) (A)
                 (A) (A) (A) (A) (A) (A) (A) (A) (A) (A) (A) (A)
                 (A) (A) (A) (A) (A) (A) (A) (A) (A) (A) (A) (A)
       Virtual   (A) (A) (A) (A) (A) (A) (A) (A) (A) (A) (A) (A)
                 (A) (A) (A) (A) (A) (A) (A) (A) (A) (A) (A) (A)
                 (A) (A) (A) (A) (A) (A) (A) (A) (A) (A) (A) (A)
                 (A) (A) (A) (A) (A) (A) (A) (A) (A) (A) (A) (A)
                 (A) (A) (A) (A) (A) (A) (A) (A) (A) (A) (A) (A)
                 (A) (A) (A) (A) (A) (A) (A) (A) (A) (A) (A) (A)
                 (A) (A) (A) (A) (A) (A) (A) (A) (A) (A) (A) (A)
                 (A) (A) (A) (A) (A) (A) (A) (A) (A) (A) (A) (A)
                 (A) (A) (A) (A) (A) (A) (A) (A) (A) (A) (A) (A)
                 (A) (A) (A) (A) (A) (A) (A) (A) (A) (A) (A) (A)
                 (A) (A) (A) (A) (A) (A) (A) (A) (A) (A) (A) (A)
                 (A) (A) (A) (A) (A) (A) (A) (A) (A) (A) (A) (A)
                 (A) (A) (A) (A) (A) (A) (A) (A) (A) (A) (A) (A)
                 (A) (A) (A) (A) (A) (A) (A) (A) (A) (A) (A) (A)
                 (A) (A) (A) (A) (A) (A) (A) (A) (A) (A) (A) (A)
                 (A) (A) (A) (A) (A) (A) (A) (A) (A) (A) (A) (A)
                 (A) (A) (A) (A) (A) (A) (A) (A) (A) (A) (A) (A)
                 (A) (A) (A) (A) (A) (A) (A) (A) (A) (A) (A) (A)
                 (A) (A) (A) (A) (A) (A) (A) (A) (A) (A) (A) (A)
                 (A) (A) (A) (A) (A) (A) (A) (A) (A) (A) (A) (A)
                 (A) (A) (A) (A) (A) (A) (A) (A) (A) (A) (A) (A)
                 (A) (A) (A) (A) (A) (A) (A) (A) (A) (A) (A) (A)
                 (A) (A) (A) (A) (A) (A) (A) (A) (A) (A) (A) (A)
                 (A) (A) (A) (A) (A) (A) (A) (A) (A) (A) (A) (A)
                 (A) (A) (A) (A) (A) (A) (A) (A) (A) (A) (A) (A)
                 (A) (A) (A) (A) (A) (A) (A) (A) (A) (A) (A) (A)
                 (A) (A) (A) (A) (A) (A) (A) (A) (A) (A) (A) (A)
                 (A) (A) (A) (A) (A) (A) (A) (A) (A) (A) (A) (A)
                 (A) (A) (A) (A) (A) (A) (A) (A) (A) (A) (A) (A)
                 (A) (A) (A) (A) (A) (A) (A) (A) (A) (A) (A) (A)
                 (A) (A) (A) (A) (A) (A) (A) (A) (A) (A) (A) (A)
                 (A) (A) (A) (A) (A) (A) (A) (A) (A) (A) (A) (A)
                 (A) (A) (A) (A) (A)
 The electronic state is 1-A.
 Alpha  occ. eigenvalues --  -19.13546 -14.39953 -10.31568 -10.29434 -10.29321
 Alpha  occ. eigenvalues --  -10.27720 -10.25901 -10.21845 -10.19582 -10.19358
 Alpha  occ. eigenvalues --  -10.18755 -10.17056 -10.16726 -10.15448  -1.03361
 Alpha  occ. eigenvalues --   -1.02058  -0.89855  -0.86948  -0.82544  -0.77106
 Alpha  occ. eigenvalues --   -0.70189  -0.68813  -0.62392  -0.61098  -0.60014
 Alpha  occ. eigenvalues --   -0.56461  -0.55413  -0.53192  -0.52268  -0.49283
 Alpha  occ. eigenvalues --   -0.48236  -0.46169  -0.43288  -0.42175  -0.41276
 Alpha  occ. eigenvalues --   -0.40707  -0.38114  -0.36971  -0.34864  -0.33928
 Alpha  occ. eigenvalues --   -0.32683  -0.31141  -0.28719  -0.27581  -0.25123
 Alpha  occ. eigenvalues --   -0.22275  -0.21930  -0.18204
 Alpha virt. eigenvalues --   -0.13836  -0.10221  -0.09557  -0.05763  -0.02315
 Alpha virt. eigenvalues --    0.01179   0.02996   0.06142   0.06571   0.07692
 Alpha virt. eigenvalues --    0.08882   0.09361   0.10687   0.12176   0.13765
 Alpha virt. eigenvalues --    0.15961   0.16685   0.17264   0.19878   0.23445
 Alpha virt. eigenvalues --    0.24373   0.26487   0.27368   0.28768   0.30185
 Alpha virt. eigenvalues --    0.33473   0.36599   0.38720   0.39208   0.40022
 Alpha virt. eigenvalues --    0.42188   0.43768   0.43837   0.44889   0.45436
 Alpha virt. eigenvalues --    0.47124   0.48712   0.48869   0.50188   0.51140
 Alpha virt. eigenvalues --    0.52096   0.52711   0.53515   0.53651   0.54216
 Alpha virt. eigenvalues --    0.55202   0.56130   0.56324   0.57557   0.58813
 Alpha virt. eigenvalues --    0.59673   0.61018   0.61766   0.62839   0.63022
 Alpha virt. eigenvalues --    0.63661   0.66143   0.67102   0.67636   0.68644
 Alpha virt. eigenvalues --    0.69709   0.70847   0.71605   0.72572   0.73836
 Alpha virt. eigenvalues --    0.75185   0.75295   0.75931   0.76653   0.77575
 Alpha virt. eigenvalues --    0.78261   0.79353   0.80013   0.80649   0.81784
 Alpha virt. eigenvalues --    0.83141   0.83833   0.84411   0.86424   0.87382
 Alpha virt. eigenvalues --    0.88021   0.88986   0.90740   0.92025   0.92759
 Alpha virt. eigenvalues --    0.93740   0.94085   0.96292   0.96633   0.98405
 Alpha virt. eigenvalues --    0.98773   1.01063   1.01480   1.03642   1.05061
 Alpha virt. eigenvalues --    1.05684   1.07493   1.08586   1.09031   1.10476
 Alpha virt. eigenvalues --    1.12510   1.13088   1.15356   1.16806   1.17561
 Alpha virt. eigenvalues --    1.18514   1.20533   1.21326   1.23691   1.25827
 Alpha virt. eigenvalues --    1.26333   1.30962   1.31113   1.32452   1.34106
 Alpha virt. eigenvalues --    1.34771   1.35665   1.36761   1.37997   1.38838
 Alpha virt. eigenvalues --    1.40330   1.41492   1.43397   1.44483   1.46802
 Alpha virt. eigenvalues --    1.48044   1.48499   1.49501   1.53115   1.53651
 Alpha virt. eigenvalues --    1.54624   1.56273   1.57828   1.59014   1.60488
 Alpha virt. eigenvalues --    1.61430   1.62198   1.63155   1.65158   1.65860
 Alpha virt. eigenvalues --    1.66628   1.67026   1.69901   1.72321   1.73446
 Alpha virt. eigenvalues --    1.75959   1.76787   1.78799   1.80315   1.83101
 Alpha virt. eigenvalues --    1.86256   1.88062   1.91750   1.95820   1.99254
 Alpha virt. eigenvalues --    2.01503   2.02981   2.05582   2.08478   2.11578
 Alpha virt. eigenvalues --    2.12034   2.12765   2.15387   2.17865   2.19776
 Alpha virt. eigenvalues --    2.22817   2.25431   2.25929   2.28436   2.30407
 Alpha virt. eigenvalues --    2.33959   2.36151   2.37580   2.39121   2.42144
 Alpha virt. eigenvalues --    2.45625   2.46673   2.49456   2.53072   2.53948
 Alpha virt. eigenvalues --    2.55399   2.57712   2.59826   2.62240   2.63401
 Alpha virt. eigenvalues --    2.64608   2.65727   2.66934   2.69612   2.70823
 Alpha virt. eigenvalues --    2.71865   2.74038   2.77829   2.79003   2.80546
 Alpha virt. eigenvalues --    2.82067   2.82592   2.83493   2.84567   2.87086
 Alpha virt. eigenvalues --    2.88409   2.89576   2.90701   2.92389   2.93237
 Alpha virt. eigenvalues --    2.94442   2.95577   2.97607   2.98973   3.00694
 Alpha virt. eigenvalues --    3.01581   3.03011   3.04025   3.05463   3.08980
 Alpha virt. eigenvalues --    3.10139   3.11692   3.13570   3.14469   3.15119
 Alpha virt. eigenvalues --    3.15897   3.16712   3.18328   3.19470   3.20479
 Alpha virt. eigenvalues --    3.20776   3.22353   3.23697   3.24782   3.26207
 Alpha virt. eigenvalues --    3.28027   3.29262   3.31526   3.33624   3.34333
 Alpha virt. eigenvalues --    3.36735   3.38267   3.39501   3.42032   3.42595
 Alpha virt. eigenvalues --    3.44140   3.44739   3.45094   3.46182   3.48784
 Alpha virt. eigenvalues --    3.51245   3.52045   3.53151   3.55108   3.56204
 Alpha virt. eigenvalues --    3.58016   3.58885   3.60416   3.62487   3.64984
 Alpha virt. eigenvalues --    3.67760   3.69120   3.70755   3.72938   3.73982
 Alpha virt. eigenvalues --    3.77729   3.79391   3.79583   3.80725   3.83132
 Alpha virt. eigenvalues --    3.84180   3.85147   3.89878   3.90460   3.93499
 Alpha virt. eigenvalues --    3.95676   3.97448   3.98875   4.02063   4.04348
 Alpha virt. eigenvalues --    4.06721   4.09767   4.10597   4.11693   4.14079
 Alpha virt. eigenvalues --    4.15132   4.16326   4.18230   4.19491   4.22130
 Alpha virt. eigenvalues --    4.25133   4.25394   4.26722   4.28100   4.32356
 Alpha virt. eigenvalues --    4.33149   4.34962   4.35924   4.36627   4.38588
 Alpha virt. eigenvalues --    4.39368   4.41455   4.42965   4.44355   4.45799
 Alpha virt. eigenvalues --    4.47196   4.47671   4.48333   4.50189   4.50823
 Alpha virt. eigenvalues --    4.52182   4.54579   4.55120   4.56567   4.58441
 Alpha virt. eigenvalues --    4.59629   4.60211   4.61672   4.62130   4.65509
 Alpha virt. eigenvalues --    4.66819   4.68984   4.70250   4.73071   4.74609
 Alpha virt. eigenvalues --    4.75501   4.77545   4.78168   4.81034   4.81290
 Alpha virt. eigenvalues --    4.84479   4.87334   4.89374   4.89804   4.91340
 Alpha virt. eigenvalues --    4.93110   4.93515   4.96594   4.97595   4.98857
 Alpha virt. eigenvalues --    5.00847   5.03036   5.04366   5.06811   5.08091
 Alpha virt. eigenvalues --    5.09134   5.11659   5.13429   5.16955   5.19100
 Alpha virt. eigenvalues --    5.23821   5.25685   5.26467   5.28923   5.32481
 Alpha virt. eigenvalues --    5.34889   5.38300   5.40268   5.43061   5.45576
 Alpha virt. eigenvalues --    5.50025   5.50693   5.54558   5.59151   5.64201
 Alpha virt. eigenvalues --    5.71915   5.77903   5.81343   5.86431   5.94253
 Alpha virt. eigenvalues --    5.98408   6.02800   6.11101   6.21095   6.27389
 Alpha virt. eigenvalues --    6.43095   6.55359   6.83287   7.41435   9.75799
 Alpha virt. eigenvalues --   10.03076  10.20380  10.34735  10.46885  10.79960
 Alpha virt. eigenvalues --   10.95838  11.24106  11.43602  11.56689  11.94587
 Alpha virt. eigenvalues --   12.08056  12.18568  13.14460  13.83990
          Condensed to atoms (all electrons):
               1          2          3          4          5          6
     1  O    7.735230   0.671673  -0.087642  -0.014329  -0.001159  -0.000032
     2  C    0.671673   4.625581   0.320333   0.010818  -0.006119   0.004051
     3  C   -0.087642   0.320333   5.711680   0.286780  -0.079110  -0.044213
     4  C   -0.014329   0.010818   0.286780   4.616518   0.381795   0.042762
     5  C   -0.001159  -0.006119  -0.079110   0.381795   5.367107   0.542812
     6  C   -0.000032   0.004051  -0.044213   0.042762   0.542812   4.599418
     7  C   -0.000000  -0.000094  -0.003427  -0.000544  -0.076306   0.365023
     8  C    0.000000  -0.000024   0.000047   0.000390  -0.004872   0.086926
     9  C   -0.000000  -0.000000  -0.000001  -0.000075  -0.001428  -0.000270
    10  C   -0.000000   0.000000   0.000000  -0.000003  -0.000083   0.000739
    11  N    0.000000  -0.000000   0.000000   0.000001   0.000003   0.000223
    12  C   -0.000000   0.000013  -0.000005  -0.000096  -0.000068   0.000045
    13  C    0.000055  -0.006774   0.001892  -0.008237   0.004814  -0.034425
    14  C   -0.024030   0.189238  -0.112779   0.408082  -0.047168  -0.031268
    15  H   -0.004960  -0.018182   0.373244  -0.028021  -0.004562   0.000098
    16  H   -0.000003  -0.000115  -0.001607  -0.033104   0.356729  -0.018823
    17  H   -0.000012   0.001484   0.005510  -0.092935  -0.048752   0.396319
    18  H   -0.000000   0.000003  -0.000004   0.000156  -0.009300  -0.034302
    19  H   -0.000000   0.000044  -0.000078   0.000342   0.002256  -0.066595
    20  H    0.000000  -0.000000   0.000000   0.000000   0.000017  -0.000366
    21  H   -0.000000   0.000000   0.000000  -0.000001  -0.000006   0.000033
    22  H    0.000000  -0.000000   0.000000   0.000000  -0.000000  -0.000006
    23  H   -0.000014   0.000532  -0.000036   0.000833  -0.000198   0.002359
               7          8          9         10         11         12
     1  O   -0.000000   0.000000  -0.000000  -0.000000   0.000000  -0.000000
     2  C   -0.000094  -0.000024  -0.000000   0.000000  -0.000000   0.000013
     3  C   -0.003427   0.000047  -0.000001   0.000000   0.000000  -0.000005
     4  C   -0.000544   0.000390  -0.000075  -0.000003   0.000001  -0.000096
     5  C   -0.076306  -0.004872  -0.001428  -0.000083   0.000003  -0.000068
     6  C    0.365023   0.086926  -0.000270   0.000739   0.000223   0.000045
     7  C    5.150925   0.585180  -0.060088  -0.002731  -0.000044   0.002770
     8  C    0.585180   4.680615   0.373007  -0.022525  -0.005996  -0.007575
     9  C   -0.060088   0.373007   5.474562   0.454154  -0.041505  -0.018390
    10  C   -0.002731  -0.022525   0.454154   4.799083   0.383039  -0.026696
    11  N   -0.000044  -0.005996  -0.041505   0.383039   6.665021   0.146984
    12  C    0.002770  -0.007575  -0.018390  -0.026696   0.146984   5.810987
    13  C    0.004909  -0.049756   0.000035   0.006933  -0.004482   0.175621
    14  C    0.002463   0.001488   0.000111   0.000119  -0.000054  -0.001758
    15  H    0.000015  -0.000000  -0.000000   0.000000   0.000000   0.000000
    16  H   -0.012975   0.000765   0.000026   0.000000   0.000000  -0.000001
    17  H   -0.089848  -0.034159   0.004039  -0.001080  -0.000007  -0.000312
    18  H    0.349045  -0.039136  -0.009171   0.000241  -0.000020  -0.000048
    19  H   -0.008399   0.348336  -0.105820  -0.013549  -0.014847   0.002225
    20  H   -0.008490  -0.016866   0.329602  -0.021026  -0.002278  -0.000295
    21  H    0.000077  -0.012892  -0.012740   0.394231  -0.166250   0.009949
    22  H   -0.000075  -0.000234   0.013251  -0.039841   0.245938   0.044251
    23  H   -0.000208   0.002216  -0.000083   0.000113   0.000395  -0.014382
              13         14         15         16         17         18
     1  O    0.000055  -0.024030  -0.004960  -0.000003  -0.000012  -0.000000
     2  C   -0.006774   0.189238  -0.018182  -0.000115   0.001484   0.000003
     3  C    0.001892  -0.112779   0.373244  -0.001607   0.005510  -0.000004
     4  C   -0.008237   0.408082  -0.028021  -0.033104  -0.092935   0.000156
     5  C    0.004814  -0.047168  -0.004562   0.356729  -0.048752  -0.009300
     6  C   -0.034425  -0.031268   0.000098  -0.018823   0.396319  -0.034302
     7  C    0.004909   0.002463   0.000015  -0.012975  -0.089848   0.349045
     8  C   -0.049756   0.001488  -0.000000   0.000765  -0.034159  -0.039136
     9  C    0.000035   0.000111  -0.000000   0.000026   0.004039  -0.009171
    10  C    0.006933   0.000119   0.000000   0.000000  -0.001080   0.000241
    11  N   -0.004482  -0.000054   0.000000   0.000000  -0.000007  -0.000020
    12  C    0.175621  -0.001758   0.000000  -0.000001  -0.000312  -0.000048
    13  C    5.498507   0.308711  -0.000010  -0.000089   0.006796  -0.000264
    14  C    0.308711   5.595775   0.002500   0.001528  -0.059523  -0.000148
    15  H   -0.000010   0.002500   0.517015   0.001239  -0.000095  -0.000000
    16  H   -0.000089   0.001528   0.001239   0.579018   0.009312   0.001919
    17  H    0.006796  -0.059523  -0.000095   0.009312   0.771716   0.007137
    18  H   -0.000264  -0.000148  -0.000000   0.001919   0.007137   0.630382
    19  H    0.026307  -0.000843   0.000000  -0.000200  -0.013129   0.009402
    20  H   -0.000065   0.000002  -0.000000  -0.000000  -0.000141   0.003702
    21  H    0.003580   0.000089  -0.000000   0.000000   0.000064  -0.000008
    22  H   -0.001002   0.000039  -0.000000  -0.000000  -0.000021   0.000001
    23  H    0.308925  -0.030229   0.000001   0.000002  -0.003020   0.000003
              19         20         21         22         23
     1  O   -0.000000   0.000000  -0.000000   0.000000  -0.000014
     2  C    0.000044  -0.000000   0.000000  -0.000000   0.000532
     3  C   -0.000078   0.000000   0.000000   0.000000  -0.000036
     4  C    0.000342   0.000000  -0.000001   0.000000   0.000833
     5  C    0.002256   0.000017  -0.000006  -0.000000  -0.000198
     6  C   -0.066595  -0.000366   0.000033  -0.000006   0.002359
     7  C   -0.008399  -0.008490   0.000077  -0.000075  -0.000208
     8  C    0.348336  -0.016866  -0.012892  -0.000234   0.002216
     9  C   -0.105820   0.329602  -0.012740   0.013251  -0.000083
    10  C   -0.013549  -0.021026   0.394231  -0.039841   0.000113
    11  N   -0.014847  -0.002278  -0.166250   0.245938   0.000395
    12  C    0.002225  -0.000295   0.009949   0.044251  -0.014382
    13  C    0.026307  -0.000065   0.003580  -0.001002   0.308925
    14  C   -0.000843   0.000002   0.000089   0.000039  -0.030229
    15  H    0.000000  -0.000000  -0.000000  -0.000000   0.000001
    16  H   -0.000200  -0.000000   0.000000  -0.000000   0.000002
    17  H   -0.013129  -0.000141   0.000064  -0.000021  -0.003020
    18  H    0.009402   0.003702  -0.000008   0.000001   0.000003
    19  H    0.699688   0.006841   0.001036   0.001399  -0.004126
    20  H    0.006841   0.558686   0.003288   0.000116   0.000001
    21  H    0.001036   0.003288   0.639219   0.009951  -0.000140
    22  H    0.001399   0.000116   0.009951   0.425886  -0.000128
    23  H   -0.004126   0.000001  -0.000140  -0.000128   0.592352
 Mulliken charges:
               1
     1  O   -0.274777
     2  C    0.207538
     3  C   -0.370585
     4  C    0.428868
     5  C   -0.376403
     6  C    0.189491
     7  C   -0.197178
     8  C    0.115067
     9  C   -0.399214
    10  C    0.088882
    11  N   -0.206121
    12  C   -0.123219
    13  C   -0.241983
    14  C   -0.202344
    15  H    0.161720
    16  H    0.116379
    17  H    0.140657
    18  H    0.090412
    19  H    0.129711
    20  H    0.147272
    21  H    0.130522
    22  H    0.300475
    23  H    0.144831
 Sum of Mulliken charges =  -0.00000
 Mulliken charges with hydrogens summed into heavy atoms:
               1
     1  O   -0.274777
     2  C    0.207538
     3  C   -0.208866
     4  C    0.428868
     5  C   -0.260023
     6  C    0.330148
     7  C   -0.106766
     8  C    0.244778
     9  C   -0.251942
    10  C    0.219404
    11  N    0.094353
    12  C   -0.123219
    13  C   -0.097151
    14  C   -0.202344
 Electronic spatial extent (au):  <R**2>=           3198.3505
 Charge=             -0.0000 electrons
 Dipole moment (field-independent basis, Debye):
    X=             -4.6593    Y=              3.2418    Z=              0.5416  Tot=              5.7019
 Quadrupole moment (field-independent basis, Debye-Ang):
   XX=            -83.2456   YY=            -74.3475   ZZ=            -84.7588
   XY=             14.7264   XZ=             -2.9448   YZ=             -3.1153
 Traceless Quadrupole moment (field-independent basis, Debye-Ang):
   XX=             -2.4616   YY=              6.4364   ZZ=             -3.9748
   XY=             14.7264   XZ=             -2.9448   YZ=             -3.1153
 Octapole moment (field-independent basis, Debye-Ang**2):
  XXX=            -94.5074  YYY=             24.5772  ZZZ=              1.6305  XYY=            -12.9088
  XXY=             37.7144  XXZ=              3.1814  XZZ=              9.5414  YZZ=              1.1091
  YYZ=              0.2491  XYZ=              7.2609
 Hexadecapole moment (field-independent basis, Debye-Ang**3):
 XXXX=          -3439.9227 YYYY=           -852.2553 ZZZZ=           -130.1142 XXXY=            277.9450
 XXXZ=            -44.9736 YYYX=             29.2868 YYYZ=            -18.6177 ZZZX=              2.5328
 ZZZY=             -6.3465 XXYY=           -644.1197 XXZZ=           -586.6193 YYZZ=           -184.0467
 XXYZ=            -21.6455 YYXZ=              0.2895 ZZXY=             -7.5322
 N-N= 7.623208482563D+02 E-N=-2.900893018783D+03  KE= 5.890473962891D+02
 PrsmSu:  requested number of processors reduced to:  13 ShMem   1 Linda.
 Calling FoFJK, ICntrl=      2127 FMM=F ISym2X=0 I1Cent= 0 IOpClX= 0 NMat=1 NMatS=1 NMatT=0.
 ***** Axes restored to original set *****
 -------------------------------------------------------------------
 Center     Atomic                   Forces (Hartrees/Bohr)
 Number     Number              X              Y              Z
 -------------------------------------------------------------------
      1        8           0.056397575    0.060419015    0.008541061
      2        6          -0.179681791   -0.015937238   -0.018438681
      3        6          -0.001223046    0.022969032    0.009853832
      4        6           0.025128887   -0.041045008   -0.012964940
      5        6          -0.020508509   -0.012243434   -0.002674301
      6        6           0.078335782   -0.000184384   -0.011973580
      7        6           0.011791085   -0.052911924   -0.013517339
      8        6           0.042204616    0.050608765    0.047665315
      9        6           0.018965974   -0.079254788   -0.016147687
     10        6           0.027541541    0.129485534    0.066753863
     11        7          -0.015957089   -0.002689000   -0.150583787
     12        6          -0.048903528   -0.016838183   -0.015458508
     13        6          -0.042515207   -0.047069028   -0.007556427
     14        6           0.010815268   -0.055926313    0.019722220
     15        1           0.008050068    0.066861110   -0.001405819
     16        1          -0.014717071   -0.028672031    0.000261858
     17        1           0.007184673    0.019400900   -0.000286953
     18        1           0.027291455   -0.050982935   -0.000749880
     19        1          -0.000916860    0.001927063    0.002581001
     20        1           0.011755827    0.022703402    0.002342110
     21        1          -0.019345942   -0.043128004    0.077886836
     22        1           0.023664497    0.036131418    0.021065345
     23        1          -0.005358204    0.036376030   -0.004915537
 -------------------------------------------------------------------
 Cartesian Forces:  Max     0.179681791 RMS     0.045673789

 GradGradGradGradGradGradGradGradGradGradGradGradGradGradGradGradGradGrad
 Berny optimization.
 FormGI is forming the generalized inverse of G from B-inverse, IUseBI=4.
 Internal  Forces:  Max     0.155176134 RMS     0.043732197
 Search for a local minimum.
 Step number   1 out of a maximum of  138
 All quantities printed in internal units (Hartrees-Bohrs-Radians)
 Mixed Optimization -- RFO/linear search
 Second derivative matrix not updated -- first step.
 ITU=  0
     Eigenvalues ---    0.00374   0.00445   0.00632   0.00994   0.01151
     Eigenvalues ---    0.01522   0.01764   0.01947   0.02188   0.02258
     Eigenvalues ---    0.02433   0.02613   0.02749   0.03046   0.03151
     Eigenvalues ---    0.03159   0.03408   0.03745   0.05086   0.06139
     Eigenvalues ---    0.07136   0.07285   0.08166   0.08699   0.09652
     Eigenvalues ---    0.10231   0.10915   0.12071   0.12692   0.13227
     Eigenvalues ---    0.15628   0.15950   0.15996   0.16000   0.16479
     Eigenvalues ---    0.17195   0.19597   0.19744   0.20975   0.21998
     Eigenvalues ---    0.23146   0.23335   0.24808   0.24958   0.25000
     Eigenvalues ---    0.32807   0.34080   0.34437   0.35641   0.37275
     Eigenvalues ---    0.39730   0.40297   0.44605   0.44762   0.46915
     Eigenvalues ---    0.47460   0.56253   0.58039   0.62179   0.68818
     Eigenvalues ---    0.70144   0.74746   0.83651
 RFO step:  Lambda=-3.65586206D-01 EMin= 3.73684378D-03
 Linear search not attempted -- first point.
 Maximum step size (   0.300) exceeded in Quadratic search.
    -- Step size scaled by   0.406
 Iteration  1 RMS(Cart)=  0.09318735 RMS(Int)=  0.00304379
 Iteration  2 RMS(Cart)=  0.00504904 RMS(Int)=  0.00016448
 Iteration  3 RMS(Cart)=  0.00000567 RMS(Int)=  0.00016445
 Iteration  4 RMS(Cart)=  0.00000000 RMS(Int)=  0.00016445
 Variable       Old X    -DE/DX   Delta X   Delta X   Delta X     New X
                                 (Linear)    (Quad)   (Total)
    R1        2.36004  -0.05138   0.00000  -0.01736  -0.01736   2.34268
    R2        2.77947   0.07430   0.00000   0.04180   0.04180   2.82127
    R3        2.49257   0.05699   0.00000   0.02344   0.02344   2.51601
    R4        2.26400  -0.06600   0.00000  -0.04369  -0.04369   2.22031
    R5        2.60385   0.07978   0.00000   0.04099   0.04072   2.64457
    R6        3.28004  -0.10928   0.00000  -0.08291  -0.08324   3.19681
    R7        2.38942   0.14676   0.00000   0.05357   0.05375   2.44316
    R8        1.97851   0.02532   0.00000   0.01338   0.01338   1.99189
    R9        2.50629   0.08461   0.00000   0.03907   0.03908   2.54537
   R10        1.93943   0.04605   0.00000   0.01962   0.01999   1.95942
   R11        2.41795   0.12640   0.00000   0.05044   0.05042   2.46836
   R12        1.92253   0.05756   0.00000   0.02875   0.02875   1.95128
   R13        2.60907   0.04178   0.00000   0.02031   0.02034   2.62942
   R14        2.00587   0.04588   0.00000   0.01973   0.01974   2.02562
   R15        2.50065   0.08376   0.00000   0.03881   0.03878   2.53943
   R16        2.06599  -0.00606   0.00000  -0.00347  -0.00347   2.06253
   R17        2.41162   0.10883   0.00000   0.04345   0.04348   2.45509
   R18        2.07195   0.01576   0.00000   0.00906   0.00906   2.08102
   R19        3.01670   0.00691   0.00000   0.00643   0.00639   3.02308
   R20        1.92437   0.02493   0.00000   0.01248   0.01248   1.93685
   R21        3.69132  -0.02376   0.00000  -0.02500  -0.02506   3.66626
   R22        3.50516  -0.05965   0.00000  -0.05360  -0.05377   3.45138
   R23        3.69079   0.02625   0.00000   0.01776   0.01813   3.70892
   R24        3.67629   0.04447   0.00000   0.03344   0.03346   3.70975
   R25        1.98622   0.03109   0.00000   0.01655   0.01655   2.00278
    A1        1.91364   0.15391   0.00000   0.10156   0.10156   2.01520
    A2        1.44364   0.08676   0.00000   0.06021   0.06021   1.50385
    A3        2.55794  -0.05778   0.00000  -0.04121  -0.04122   2.51671
    A4        2.27981  -0.02864   0.00000  -0.01863  -0.01862   2.26119
    A5        2.06709   0.15518   0.00000   0.10136   0.10156   2.16866
    A6        2.00637  -0.14775   0.00000  -0.09880  -0.09863   1.90774
    A7        2.20746  -0.00679   0.00000  -0.00205  -0.00246   2.20500
    A8        1.69724   0.02349   0.00000   0.02335   0.02332   1.72056
    A9        2.44994  -0.03140   0.00000  -0.02689  -0.02688   2.42307
   A10        2.13589   0.00790   0.00000   0.00356   0.00357   2.13947
   A11        2.28004   0.07486   0.00000   0.05395   0.05361   2.33365
   A12        2.01890  -0.05957   0.00000  -0.04140  -0.04108   1.97782
   A13        1.98289  -0.01513   0.00000  -0.01245  -0.01243   1.97046
   A14        1.87832  -0.02727   0.00000  -0.01353  -0.01331   1.86502
   A15        2.22991   0.01109   0.00000   0.00493   0.00484   2.23476
   A16        2.15929   0.01669   0.00000   0.00930   0.00918   2.16846
   A17        2.30038   0.02603   0.00000   0.02243   0.02229   2.32267
   A18        1.94171  -0.01033   0.00000  -0.00562  -0.00560   1.93610
   A19        2.02250  -0.01387   0.00000  -0.01505  -0.01495   2.00755
   A20        1.63557   0.01289   0.00000   0.01588   0.01615   1.65172
   A21        1.94642   0.00297   0.00000   0.00261   0.00261   1.94903
   A22        2.44643  -0.01337   0.00000  -0.01556  -0.01573   2.43069
   A23        2.15564  -0.03225   0.00000  -0.02323  -0.02325   2.13238
   A24        2.59396  -0.07538   0.00000  -0.05911  -0.05912   2.53485
   A25        1.53357   0.10756   0.00000   0.08228   0.08226   1.61583
   A26        1.76605  -0.01626   0.00000  -0.00192  -0.00178   1.76428
   A27        2.30651  -0.02559   0.00000  -0.01759  -0.01770   2.28880
   A28        1.13647   0.02380   0.00000   0.01572   0.01584   1.15230
   A29        2.40476   0.02792   0.00000   0.00934   0.00931   2.41408
   A30        2.60356   0.01869   0.00000   0.00978   0.00972   2.61328
   A31        1.89577   0.00817   0.00000   0.00041   0.00029   1.89606
   A32        1.12521   0.01662   0.00000   0.01339   0.01326   1.13847
   A33        1.82485  -0.02062   0.00000  -0.01432  -0.01422   1.81062
   A34        0.96672   0.01454   0.00000   0.01441   0.01450   0.98122
   A35        1.81549   0.00912   0.00000   0.00356   0.00358   1.81907
   A36        1.55941  -0.00256   0.00000  -0.00082  -0.00083   1.55859
   A37        0.85033  -0.00632   0.00000  -0.01144  -0.01146   0.83887
   A38        2.52159   0.01291   0.00000   0.01419   0.01425   2.53584
   A39        2.30001   0.07415   0.00000   0.03830   0.03810   2.33812
   A40        2.95006  -0.00400   0.00000  -0.00093  -0.00096   2.94910
   A41        3.35745  -0.04444   0.00000  -0.03185  -0.03165   3.32580
   A42        2.98318   0.01454   0.00000   0.01123   0.01121   2.99440
   A43        3.28632   0.00636   0.00000   0.00376   0.00377   3.29009
   A44        3.20796   0.00912   0.00000   0.00656   0.00677   3.21473
   A45        3.20691   0.01016   0.00000   0.00854   0.00850   3.21540
    D1        3.08272   0.00001   0.00000   0.00009   0.00023   3.08296
    D2       -0.12946   0.00933   0.00000   0.00949   0.00935  -0.12010
    D3        3.07455   0.00312   0.00000   0.00473   0.00498   3.07953
    D4       -0.13458   0.01191   0.00000   0.01187   0.01178  -0.12280
    D5       -0.01581  -0.00041   0.00000   0.00029   0.00038  -0.01543
    D6        3.05825   0.00838   0.00000   0.00744   0.00717   3.06542
    D7       -3.13412  -0.00067   0.00000   0.00251   0.00295  -3.13117
    D8        0.02432  -0.00014   0.00000   0.00118   0.00144   0.02576
    D9        0.08363  -0.00572   0.00000  -0.00215  -0.00203   0.08160
   D10       -3.04112  -0.00518   0.00000  -0.00348  -0.00354  -3.04466
   D11        2.95347  -0.01252   0.00000  -0.00998  -0.00952   2.94395
   D12       -0.26199   0.00368   0.00000   0.00201   0.00203  -0.25997
   D13       -3.12223  -0.00129   0.00000  -0.00133  -0.00130  -3.12353
   D14        0.07949  -0.00356   0.00000  -0.00238  -0.00250   0.07699
   D15        0.00664  -0.00224   0.00000  -0.00076  -0.00056   0.00609
   D16       -3.07482  -0.00451   0.00000  -0.00181  -0.00176  -3.07658
   D17       -3.02502   0.00034   0.00000   0.00029   0.00017  -3.02486
   D18       -0.06917   0.00448   0.00000   0.00507   0.00504  -0.06414
   D19        0.05743   0.00127   0.00000   0.00047   0.00057   0.05800
   D20        3.01328   0.00541   0.00000   0.00525   0.00544   3.01872
   D21       -2.77754   0.00939   0.00000   0.00796   0.00759  -2.76995
   D22       -0.13276   0.01736   0.00000   0.01094   0.01063  -0.12213
   D23        3.03353  -0.00420   0.00000  -0.00328  -0.00349   3.03004
   D24       -0.04846   0.00035   0.00000  -0.00003  -0.00018  -0.04865
   D25        0.37796   0.00327   0.00000   0.00384   0.00376   0.38172
   D26        3.02274   0.01123   0.00000   0.00682   0.00680   3.02954
   D27       -0.09416  -0.01032   0.00000  -0.00741  -0.00732  -0.10148
   D28        3.10704  -0.00577   0.00000  -0.00415  -0.00402   3.10302
   D29        2.85871   0.01070   0.00000   0.01089   0.01115   2.86986
   D30       -0.06344   0.00278   0.00000   0.00328   0.00335  -0.06009
   D31       -0.10644   0.00722   0.00000   0.00678   0.00695  -0.09950
   D32       -3.02860  -0.00069   0.00000  -0.00084  -0.00086  -3.02945
   D33       -3.01502   0.00910   0.00000   0.00498   0.00494  -3.01008
   D34        0.67602   0.01338   0.00000   0.00987   0.00972   0.68573
   D35       -0.10088   0.01794   0.00000   0.01407   0.01414  -0.08674
   D36       -2.69303   0.02223   0.00000   0.01895   0.01891  -2.67412
   D37       -2.61048   0.00771   0.00000   0.00664   0.00643  -2.60406
   D38        0.01509   0.01784   0.00000   0.01079   0.01069   0.02578
   D39        0.10067   0.00635   0.00000   0.00446   0.00424   0.10491
   D40        0.69189  -0.01165   0.00000  -0.01099  -0.01084   0.68106
   D41       -2.96572  -0.00152   0.00000  -0.00684  -0.00657  -2.97229
   D42       -2.88014  -0.01301   0.00000  -0.01317  -0.01302  -2.89316
   D43       -1.48911   0.01176   0.00000   0.00642   0.00622  -1.48289
   D44        1.64520  -0.00823   0.00000  -0.00924  -0.00904   1.63616
   D45        0.79153   0.02364   0.00000   0.02005   0.01981   0.81135
   D46       -2.35734   0.00365   0.00000   0.00439   0.00455  -2.35279
   D47        1.89011  -0.00990   0.00000  -0.00773  -0.00789   1.88221
   D48        3.04986   0.01239   0.00000   0.01507   0.01475   3.06461
   D49       -1.24769   0.00097   0.00000   0.00078   0.00118  -1.24651
   D50       -0.08794   0.02326   0.00000   0.02359   0.02383  -0.06411
   D51       -0.16348  -0.01704   0.00000  -0.01015  -0.01016  -0.17364
   D52       -2.45828   0.00766   0.00000   0.01086   0.01077  -2.44751
   D53       -1.70974  -0.03406   0.00000  -0.02542  -0.02565  -1.73539
   D54       -0.78876  -0.00389   0.00000  -0.00229  -0.00223  -0.79100
   D55       -0.41905  -0.00119   0.00000  -0.00203  -0.00207  -0.42112
   D56        2.57781  -0.00755   0.00000  -0.00579  -0.00584   2.57198
   D57        1.28559   0.03008   0.00000   0.02064   0.02077   1.30636
   D58        0.12571   0.00681   0.00000   0.00345   0.00334   0.12904
   D59        0.17981  -0.00913   0.00000  -0.00729  -0.00734   0.17247
   D60       -2.93592  -0.00243   0.00000  -0.00294  -0.00296  -2.93888
         Item               Value     Threshold  Converged?
 Maximum Force            0.155176     0.000450     NO 
 RMS     Force            0.043732     0.000300     NO 
 Maximum Displacement     0.546995     0.001800     NO 
 RMS     Displacement     0.093966     0.001200     NO 
 Predicted change in Energy=-1.356889D-01
 GradGradGradGradGradGradGradGradGradGradGradGradGradGradGradGradGradGrad

                          Input orientation:                          
 ---------------------------------------------------------------------
 Center     Atomic      Atomic             Coordinates (Angstroms)
 Number     Number       Type             X           Y           Z
 ---------------------------------------------------------------------
      1          8           0        2.331372    1.705407   -0.016117
      2          6           0        3.536848    1.418592    0.021405
      3          6           0        3.851367   -0.040063   -0.026719
      4          6           0        5.131042    0.327353   -0.036751
      5          6           0        6.207466   -0.566504   -0.008870
      6          6           0        7.172724    0.293520   -0.020703
      7          6           0        8.515344    0.185705   -0.025849
      8          6           0        8.992908    1.394181    0.107108
      9          6           0       10.250286    1.887770    0.440932
     10          6           0        9.846371    3.166744    0.524007
     11          7           0        9.775381    3.938952   -0.518357
     12          6           0        8.191213    4.051046   -0.710802
     13          6           0        6.584068    3.221343   -0.008900
     14          6           0        5.228739    2.009738   -0.184424
     15          1           0        3.382254   -1.117135   -0.008574
     16          1           0        6.374549   -1.607153    0.004811
     17          1           0        6.847107    1.276726    0.028311
     18          1           0        9.084918   -0.673680    0.031151
     19          1           0        8.203030    2.118673    0.121122
     20          1           0       11.048341    1.300542   -0.016797
     21          1           0        9.482879    3.958743    1.197291
     22          1           0        9.435560    4.900178   -0.623536
     23          1           0        5.869303    4.003700   -0.024848
 ---------------------------------------------------------------------
                    Distance matrix (angstroms):
                    1          2          3          4          5
     1  O    0.000000
     2  C    1.239695   0.000000
     3  C    2.314554   1.492954   0.000000
     4  C    3.120514   1.932780   1.331414   0.000000
     5  C    4.492854   3.327720   2.414263   1.399445   0.000000
     6  C    5.043028   3.806199   3.338072   2.042025   1.292867
     7  C    6.367974   5.129099   4.669438   3.387282   2.427428
     8  C    6.669941   5.456788   5.339514   4.009093   3.408288
     9  C    7.934189   6.742876   6.699359   5.373057   4.750808
    10  C    7.674793   6.566485   6.821069   5.532713   5.240489
    11  N    7.788083   6.750026   7.153196   5.903006   5.769639
    12  C    6.349988   5.397134   6.003283   4.866711   5.074419
    13  C    4.514813   3.540675   4.254966   3.238400   3.806522
    14  C    2.918163   1.803971   2.474612   1.691676   2.761476
    15  H    3.011835   2.540612   1.174938   2.268391   2.878370
    16  H    5.226928   4.148247   2.970390   2.300077   1.054065
    17  H    4.536254   3.313305   3.272831   1.962249   1.951416
    18  H    7.160494   5.929484   5.272085   4.079193   2.879725
    19  H    5.887783   4.719461   4.859935   3.559615   3.348037
    20  H    8.726366   7.512517   7.320775   5.996826   5.188448
    21  H    7.595652   6.571937   7.014455   5.800719   5.714982
    22  H    7.813131   6.879840   7.479665   6.307450   6.378325
    23  H    4.218907   3.482136   4.519302   3.749760   4.582726
                    6          7          8          9         10
     6  C    0.000000
     7  C    1.346951   0.000000
     8  C    2.130929   1.306201   0.000000
     9  C    3.496588   2.474861   1.391427   0.000000
    10  C    3.962387   3.310675   2.011016   1.343809   0.000000
    11  N    4.506735   3.989627   2.734836   2.313681   1.299179
    12  C    3.953802   3.938919   2.893203   3.200943   2.246395
    13  C    2.986436   3.597945   3.025639   3.927075   3.305994
    14  C    2.598324   3.762182   3.825294   5.061806   4.812802
    15  H    4.044472   5.295875   6.148132   7.510085   7.773035
    16  H    2.061624   2.792540   3.984253   5.236986   5.925639
    17  H    1.036881   1.994060   2.150457   3.482134   3.579590
    18  H    2.143514   1.032572   2.071300   2.843770   3.946083
    19  H    2.100673   1.963544   1.071910   2.084910   1.990311
    20  H    4.004312   2.767493   2.061292   1.091441   2.284712
    21  H    4.500465   4.082648   2.829408   2.334507   1.101227
    22  H    5.167701   4.840484   3.608573   3.297192   2.119060
    23  H    3.932475   4.645280   4.072335   4.887446   4.101074
                   11         12         13         14         15
    11  N    0.000000
    12  C    1.599746   0.000000
    13  C    3.310437   1.940101   0.000000
    14  C    4.950286   3.635968   1.826393   0.000000
    15  H    8.166760   7.094314   5.392031   3.635624   0.000000
    16  H    6.526764   5.985614   4.833059   3.798762   3.032182
    17  H    3.995132   3.170135   1.962678   1.789324   4.211548
    18  H    4.696283   4.865412   4.628937   4.702906   5.720018
    19  H    2.488903   2.103878   1.963117   2.991928   5.807508
    20  H    2.972070   4.026176   4.859966   5.865051   8.038290
    21  H    1.740516   2.306022   3.225176   4.879085   8.027221
    22  H    1.024937   1.508987   3.365602   5.122969   8.557380
    23  H    3.937663   2.421579   1.059824   2.100398   5.692858
                   16         17         18         19         20
    16  H    0.000000
    17  H    2.922434   0.000000
    18  H    2.866734   2.968483   0.000000
    19  H    4.151945   1.598754   2.929685   0.000000
    20  H    5.504496   4.201543   2.784758   2.963807   0.000000
    21  H    6.485593   3.937895   4.793495   2.486365   3.315225
    22  H    7.218723   4.500489   5.623118   3.132159   3.990811
    23  H    5.633634   2.897467   5.676372   3.003485   5.842052
                   21         22         23
    21  H    0.000000
    22  H    2.050353   0.000000
    23  H    3.814915   3.725627   0.000000
 Stoichiometry    C12H9NO
 Framework group  C1[X(C12H9NO)]
 Deg. of freedom    63
 Full point group                 C1      NOp   1
 Largest Abelian subgroup         C1      NOp   1
 Largest concise Abelian subgroup C1      NOp   1
                         Standard orientation:                         
 ---------------------------------------------------------------------
 Center     Atomic      Atomic             Coordinates (Angstroms)
 Number     Number       Type             X           Y           Z
 ---------------------------------------------------------------------
      1          8           0        4.272287   -1.472423    0.154265
      2          6           0        3.220461   -0.816642    0.132891
      3          6           0        3.386510    0.657610   -0.034203
      4          6           0        2.056504    0.714725   -0.056197
      5          6           0        1.320165    1.902577   -0.128723
      6          6           0        0.131563    1.394435   -0.105847
      7          6           0       -1.106984    1.921014   -0.160560
      8          6           0       -1.944855    0.940859    0.047839
      9          6           0       -3.295734    0.899501    0.378721
     10          6           0       -3.320069   -0.430411    0.569936
     11          7           0       -3.492694   -1.267066   -0.408878
     12          6           0       -2.025428   -1.890159   -0.543316
     13          6           0       -0.241701   -1.558054    0.143716
     14          6           0        1.429561   -0.856305   -0.080215
     15          1           0        4.173745    1.528482   -0.082405
     16          1           0        1.492694    2.940096   -0.198306
     17          1           0        0.127260    0.366085    0.026817
     18          1           0       -1.373930    2.918164   -0.185812
     19          1           0       -1.426533    0.007191    0.140563
     20          1           0       -3.863044    1.670118   -0.146212
     21          1           0       -3.231057   -1.239517    1.311640
     22          1           0       -3.475697   -2.291621   -0.431109
     23          1           0        0.187168   -2.525054    0.208594
 ---------------------------------------------------------------------
 Rotational constants (GHZ):           1.4787051           0.3977843           0.3194847
 Standard basis: 6-31G(2df,p) (6D, 7F)
 There are   479 symmetry adapted cartesian basis functions of A   symmetry.
 There are   437 symmetry adapted basis functions of A   symmetry.
   437 basis functions,   679 primitive gaussians,   479 cartesian basis functions
    48 alpha electrons       48 beta electrons
       nuclear repulsion energy       756.6426099115 Hartrees.
 NAtoms=   23 NActive=   23 NUniq=   23 SFac= 1.00D+00 NAtFMM=   60 NAOKFM=F Big=F
 Integral buffers will be    131072 words long.
 Raffenetti 2 integral format.
 Two-electron integral symmetry is turned on.
 One-electron integrals computed using PRISM.
 PrsmSu:  requested number of processors reduced to:  13 ShMem   1 Linda.
 NBasis=   437 RedAO= T EigKep=  2.34D-04  NBF=   437
 NBsUse=   437 1.00D-06 EigRej= -1.00D+00 NBFU=   437
 Initial guess from the checkpoint file:  "OdC1CdC2CdCCdCCdCNdCCdC12.chk"
 B after Tr=    -0.000000    0.000000   -0.000000
         Rot=    0.999972   -0.003694    0.000845   -0.006468 Ang=  -0.86 deg.
 ExpMin= 1.61D-01 ExpMax= 5.48D+03 ExpMxC= 8.25D+02 IAcc=2 IRadAn=         4 AccDes= 0.00D+00
 Harris functional with IExCor=  402 and IRadAn=       4 diagonalized for initial guess.
 HarFok:  IExCor=  402 AccDes= 0.00D+00 IRadAn=         4 IDoV= 1 UseB2=F ITyADJ=14
 ICtDFT=  3500011 ScaDFX=  1.000000  1.000000  1.000000  1.000000
 FoFCou: FMM=F IPFlag=           0 FMFlag=      100000 FMFlg1=           0
         NFxFlg=           0 DoJE=T BraDBF=F KetDBF=T FulRan=T
         wScrn=  0.000000 ICntrl=       500 IOpCl=  0 I1Cent=   200000004 NGrid=           0
         NMat0=    1 NMatS0=      1 NMatT0=    0 NMatD0=    1 NMtDS0=    0 NMtDT0=    0
 Petite list used in FoFCou.
 Requested convergence on RMS density matrix=1.00D-08 within 128 cycles.
 Requested convergence on MAX density matrix=1.00D-06.
 Requested convergence on             energy=1.00D-06.
 No special actions if energy rises.
 Integral accuracy reduced to 1.0D-05 until final iterations.
 Initial convergence to 1.0D-05 achieved.  Increase integral accuracy.
 SCF Done:  E(RB3LYP) =  -591.815990125     A.U. after   19 cycles
            NFock= 19  Conv=0.89D-08     -V/T= 2.0059
 PrsmSu:  requested number of processors reduced to:  13 ShMem   1 Linda.
 Calling FoFJK, ICntrl=      2127 FMM=F ISym2X=0 I1Cent= 0 IOpClX= 0 NMat=1 NMatS=1 NMatT=0.
 ***** Axes restored to original set *****
 -------------------------------------------------------------------
 Center     Atomic                   Forces (Hartrees/Bohr)
 Number     Number              X              Y              Z
 -------------------------------------------------------------------
      1        8           0.063867270    0.036990449    0.008619020
      2        6          -0.138547326   -0.009112086   -0.021747187
      3        6           0.003796846    0.029136175    0.009551477
      4        6           0.018265201   -0.029440307   -0.010786156
      5        6          -0.013134732    0.008287457   -0.003233668
      6        6           0.053249835   -0.015433851   -0.011449058
      7        6           0.008913469   -0.032940689   -0.008379251
      8        6           0.029507061    0.028046802    0.046592643
      9        6           0.004472089   -0.061812526   -0.016997042
     10        6           0.027036897    0.118765601    0.046449756
     11        7          -0.028567623   -0.010407174   -0.110773771
     12        6          -0.042718922   -0.021111115   -0.014483105
     13        6          -0.053773096   -0.045578877   -0.010192649
     14        6           0.015873128   -0.043593434    0.022534716
     15        1           0.010603928    0.056517808   -0.001247357
     16        1          -0.014867684   -0.022411071    0.000497055
     17        1           0.008982551    0.012221380   -0.000706485
     18        1           0.021011353   -0.037112213   -0.001615715
     19        1           0.004212026   -0.003639172    0.002437184
     20        1           0.011224229    0.022760125    0.001258848
     21        1          -0.012894048   -0.043641849    0.057001900
     22        1           0.023965115    0.031547674    0.020353208
     23        1          -0.000477565    0.031960894   -0.003684363
 -------------------------------------------------------------------
 Cartesian Forces:  Max     0.138547326 RMS     0.037242108

 GradGradGradGradGradGradGradGradGradGradGradGradGradGradGradGradGradGrad
 Berny optimization.
 Using GEDIIS/GDIIS optimizer.
 FormGI is forming the generalized inverse of G from B-inverse, IUseBI=4.
 Internal  Forces:  Max     0.140353203 RMS     0.034616352
 Search for a local minimum.
 Step number   2 out of a maximum of  138
 All quantities printed in internal units (Hartrees-Bohrs-Radians)
 Mixed Optimization -- RFO/linear search
 Update second derivatives using D2CorX and points    1    2
 DE= -1.33D-01 DEPred=-1.36D-01 R= 9.83D-01
 TightC=F SS=  1.41D+00  RLast= 3.08D-01 DXNew= 5.0454D-01 9.2440D-01
 Trust test= 9.83D-01 RLast= 3.08D-01 DXMaxT set to 5.05D-01
 ITU=  1  0
 Use linear search instead of GDIIS.
 Linear search step of   0.600 exceeds DXMaxT=   0.505 but not scaled.
 Quartic linear search produced a step of  2.00000.
 Iteration  1 RMS(Cart)=  0.18035686 RMS(Int)=  0.01136992
 Iteration  2 RMS(Cart)=  0.02097817 RMS(Int)=  0.00096004
 Iteration  3 RMS(Cart)=  0.00020283 RMS(Int)=  0.00095544
 Iteration  4 RMS(Cart)=  0.00000014 RMS(Int)=  0.00095544
 Variable       Old X    -DE/DX   Delta X   Delta X   Delta X     New X
                                 (Linear)    (Quad)   (Total)
    R1        2.34268  -0.05382  -0.03472   0.00000  -0.03473   2.30796
    R2        2.82127   0.04253   0.08361   0.00000   0.08360   2.90487
    R3        2.51601   0.02659   0.04688   0.00000   0.04689   2.56290
    R4        2.22031  -0.05606  -0.08738   0.00000  -0.08738   2.13293
    R5        2.64457   0.04663   0.08144   0.00000   0.07982   2.72439
    R6        3.19681  -0.10410  -0.16647   0.00000  -0.16834   3.02846
    R7        2.44316   0.09774   0.10749   0.00000   0.10831   2.55148
    R8        1.99189   0.01978   0.02676   0.00000   0.02676   2.01866
    R9        2.54537   0.05996   0.07815   0.00000   0.07823   2.62360
   R10        1.95942   0.03577   0.03998   0.00000   0.04218   2.00160
   R11        2.46836   0.09009   0.10083   0.00000   0.10064   2.56901
   R12        1.95128   0.04239   0.05750   0.00000   0.05750   2.00878
   R13        2.62942   0.02828   0.04069   0.00000   0.04085   2.67026
   R14        2.02562   0.03214   0.03948   0.00000   0.03951   2.06512
   R15        2.53943   0.06384   0.07757   0.00000   0.07742   2.61685
   R16        2.06253  -0.00457  -0.00693   0.00000  -0.00693   2.05559
   R17        2.45509   0.07607   0.08695   0.00000   0.08713   2.54223
   R18        2.08102   0.00772   0.01813   0.00000   0.01813   2.09915
   R19        3.02308   0.00179   0.01277   0.00000   0.01254   3.03562
   R20        1.93685   0.01955   0.02496   0.00000   0.02496   1.96181
   R21        3.66626  -0.02831  -0.05012   0.00000  -0.05042   3.61584
   R22        3.45138  -0.07512  -0.10755   0.00000  -0.10856   3.34283
   R23        3.70892   0.02422   0.03627   0.00000   0.03849   3.74742
   R24        3.70975   0.03784   0.06692   0.00000   0.06697   3.77672
   R25        2.00278   0.02397   0.03311   0.00000   0.03311   2.03589
    A1        2.01520   0.11959   0.20312   0.00000   0.20310   2.21830
    A2        1.50385   0.03712   0.12042   0.00000   0.12041   1.62426
    A3        2.51671  -0.03208  -0.08244   0.00000  -0.08253   2.43419
    A4        2.26119  -0.00472  -0.03725   0.00000  -0.03727   2.22392
    A5        2.16866   0.13329   0.20313   0.00000   0.20430   2.37296
    A6        1.90774  -0.14035  -0.19725   0.00000  -0.19616   1.71159
    A7        2.20500   0.00757  -0.00493   0.00000  -0.00737   2.19762
    A8        1.72056   0.01142   0.04664   0.00000   0.04634   1.76690
    A9        2.42307  -0.02382  -0.05375   0.00000  -0.05361   2.36946
   A10        2.13947   0.01239   0.00715   0.00000   0.00731   2.14678
   A11        2.33365   0.06187   0.10723   0.00000   0.10513   2.43878
   A12        1.97782  -0.04882  -0.08216   0.00000  -0.08017   1.89765
   A13        1.97046  -0.01289  -0.02487   0.00000  -0.02472   1.94573
   A14        1.86502  -0.02054  -0.02661   0.00000  -0.02532   1.83970
   A15        2.23476   0.00846   0.00969   0.00000   0.00919   2.24395
   A16        2.16846   0.01267   0.01835   0.00000   0.01760   2.18606
   A17        2.32267   0.02470   0.04458   0.00000   0.04364   2.36631
   A18        1.93610  -0.00654  -0.01121   0.00000  -0.01108   1.92502
   A19        2.00755  -0.01643  -0.02989   0.00000  -0.02929   1.97826
   A20        1.65172   0.01585   0.03229   0.00000   0.03380   1.68552
   A21        1.94903   0.00331   0.00522   0.00000   0.00522   1.95425
   A22        2.43069  -0.01729  -0.03147   0.00000  -0.03244   2.39825
   A23        2.13238  -0.02311  -0.04651   0.00000  -0.04668   2.08570
   A24        2.53485  -0.06217  -0.11824   0.00000  -0.11827   2.41658
   A25        1.61583   0.08509   0.16452   0.00000   0.16432   1.78016
   A26        1.76428  -0.01003  -0.00355   0.00000  -0.00275   1.76153
   A27        2.28880  -0.02173  -0.03540   0.00000  -0.03604   2.25276
   A28        1.15230   0.02103   0.03167   0.00000   0.03235   1.18465
   A29        2.41408   0.01910   0.01862   0.00000   0.01848   2.43256
   A30        2.61328   0.01238   0.01944   0.00000   0.01903   2.63232
   A31        1.89606   0.00583   0.00058   0.00000  -0.00016   1.89591
   A32        1.13847   0.01636   0.02653   0.00000   0.02573   1.16421
   A33        1.81062  -0.01928  -0.02845   0.00000  -0.02786   1.78277
   A34        0.98122   0.01029   0.02901   0.00000   0.02939   1.01061
[...]
 146609,0.00389766,-0.00229843,0.00005615,-0.00274945,-0.00051962,-0.00
 095622,0.00087461,0.00041783,0.00098281,0.00058391,-0.00035145,-0.0017
 2806,-0.00014799,-0.00176483,0.01139330,-0.00059867,-0.00603357,-0.024
 20697,-0.00321118,0.02555620,-0.12124297,-0.34873541,0.05828695,0.1759
 7833,0.69159107,0.01672206,-0.00343665,0.01416047,0.01917478,0.0050838
 8,-0.08545457,0.02226399,0.03454226,0.01121547,0.00497523,0.00615900,-
 0.06175178,-0.00282637,-0.00010634,0.00501884,0.00230373,-0.00130884,0
 .00172839,-0.00035189,0.00077322,-0.00022830,0.00024816,-0.00040462,0.
 00043401,-0.00113109,-0.00059925,-0.00008964,0.00094082,-0.00086073,0.
 00232322,-0.00740489,0.00302021,-0.00194015,0.02530573,0.01239723,-0.0
 0756377,0.03943100,0.06218488,-0.05939024,-0.12333238,-0.12292039,0.16
 797691,-0.00200194,0.00052640,0.00044778,0.00802143,0.00044971,-0.0038
 4906,-0.11897270,-0.10512376,0.05645617,0.00056969,-0.01941158,0.00550
 463,0.00090306,-0.00051941,-0.00091162,-0.00022766,0.00016383,0.000041
 84,-0.00011628,0.00007898,-0.00023632,0.00005646,-0.00002283,0.0000868
 6,-0.00000596,-0.00005193,0.00000627,-0.00000869,0.00002313,0.00013521
 ,-0.00040540,0.00004694,0.00004362,0.00066611,0.00031480,-0.00101240,0
 .00122152,-0.00154687,0.00028577,-0.00068989,0.00216052,0.00435858,0.1
 1125732,0.00435257,-0.00217246,-0.00161326,-0.01737464,0.00614805,0.00
 657669,-0.11190396,-0.25229108,0.08906732,0.00603376,0.00330635,-0.001
 82099,-0.00081880,0.00034745,-0.00042769,-0.00028821,-0.00010924,0.000
 26635,-0.00006065,0.00016940,-0.00013911,0.00015429,-0.00000286,0.0001
 2633,-0.00004658,-0.00009065,-0.00004525,0.00003184,-0.00010683,0.0001
 2330,-0.00057524,-0.00023148,0.00007721,0.00075707,0.00009446,-0.00087
 687,-0.00299523,-0.00028980,0.00123490,-0.00046967,-0.00666000,0.00396
 115,0.12303237,0.25155050,-0.00094594,0.00043954,-0.00061429,0.0007398
 9,-0.00279660,0.00026318,0.05867848,0.08777849,-0.07068532,-0.00137016
 ,0.00684903,0.00287542,-0.00063117,-0.00077218,-0.00186190,-0.00086195
 ,-0.00034140,-0.00005212,0.00022752,0.00045526,0.00003565,0.00002276,-
 0.00030287,-0.00003539,-0.00007485,0.00022318,-0.00013366,0.00016685,-
 0.00018628,0.00049670,-0.00113498,0.00038366,-0.00004588,0.00127374,0.
 00004839,-0.00238427,-0.00141712,-0.00191810,0.00182461,0.00612660,0.0
 0573286,0.00788586,-0.06125611,-0.09623056,0.06254550,0.00038173,0.000
 76438,0.00023278,-0.00192325,-0.00136378,-0.00091851,-0.00058128,0.003
 87822,-0.00065707,-0.01889573,-0.00689572,0.02553498,-0.11773030,-0.02
 548422,0.12213891,0.00855288,0.00432527,-0.01408102,-0.00021897,-0.000
 72649,-0.00425332,0.00069128,-0.00037669,0.00058269,-0.00056537,-0.000
 29029,-0.00016533,0.00004088,-0.00015415,0.00024203,-0.00021340,-0.000
 04585,-0.00023773,0.00026513,0.00030074,-0.00017050,-0.00004243,0.0003
 9104,0.00008712,0.00112708,-0.00027872,-0.00087700,0.00001582,-0.00002
 588,0.00019620,0.13007054,0.00051797,-0.00126996,-0.00037724,-0.000053
 72,0.00299716,0.00035572,0.00314572,-0.00214738,0.00078078,0.00507143,
 0.00631137,-0.01068278,-0.02485434,-0.06017836,0.06050679,-0.00990180,
 -0.00144968,0.01365019,-0.00035342,-0.00177385,0.00023053,0.00210960,-
 0.00131993,0.00048454,-0.00042969,-0.00034020,-0.00018351,0.00001193,-
 0.00034398,0.00012359,-0.00088809,0.00052354,-0.00057255,0.00080503,-0
 .00070732,0.00043183,-0.00013926,0.00016547,-0.00013487,-0.00043844,0.
 00114554,-0.00063232,0.00021130,-0.00010956,0.00007729,0.02099203,0.05
 014885,0.00027270,-0.00054644,0.00000704,0.00022326,0.00117430,-0.0003
 7813,-0.00019115,-0.00132845,0.00005087,0.00014073,0.00173389,0.000477
 16,0.11451591,0.05486851,-0.23134152,0.00993669,0.00621173,-0.02123262
 ,0.00249197,0.00011051,-0.00025581,0.00161672,-0.00098208,0.00108772,-
 0.00046281,-0.00048413,-0.00005341,0.00002793,-0.00034886,-0.00002482,
 -0.00073635,0.00062112,-0.00038788,0.00094512,-0.00042277,0.00042888,0
 .00015279,-0.00012940,-0.00019776,-0.00018572,0.00066419,0.00010703,0.
 00010099,-0.00005553,0.00002907,-0.12593747,-0.06628229,0.25298410,0.0
 0002322,-0.00004605,-0.00006253,0.00000546,0.00007220,0.00024499,-0.00
 024570,-0.00013118,0.00020447,0.00046565,-0.00126380,-0.00088381,0.010
 19322,0.00332267,-0.01738273,-0.10167696,-0.01552785,0.10613447,-0.008
 97818,-0.00101516,0.02656347,-0.00054604,0.00249343,-0.00076952,0.0005
 8094,0.00044078,-0.00002238,0.00006785,-0.00023922,-0.00005144,0.00020
 234,0.00001044,0.00014728,-0.00015427,-0.00017123,-0.00003129,-0.00008
 416,-0.00005284,0.00007353,0.00016304,-0.00001001,0.00002347,-0.000194
 96,0.00000823,-0.00006381,-0.00094737,0.00341972,-0.00181654,0.1047473
 8,-0.00010356,0.00035369,-0.00022418,0.00015716,-0.00123838,0.00073039
 ,-0.00048917,0.00117156,-0.00034805,-0.00625728,-0.00388982,-0.0010008
 1,0.00039625,0.00167097,0.01134340,-0.01481373,-0.04042368,0.02384502,
 0.00465584,0.00136797,-0.00043899,-0.00138495,-0.00096269,-0.00067663,
 0.00044611,0.00185454,-0.00012948,0.00095296,-0.00001903,0.00050806,-0
 .00005334,-0.00013043,-0.00004830,0.00010057,0.00000732,-0.00003880,0.
 00003849,-0.00010778,-0.00001776,0.00086778,-0.00014315,0.00026393,-0.
 00004955,0.00010041,0.00009962,0.00435355,0.00778142,0.00483315,0.0117
 6306,0.03055183,0.00001662,-0.00004939,-0.00003413,-0.00009875,0.00033
 163,0.00015636,-0.00036116,0.00007834,0.00034681,0.00017909,-0.0022733
 0,0.00060430,0.01323205,0.00254473,-0.01789882,0.10199521,0.03272050,-
 0.28254501,-0.00020603,-0.00056574,0.00106227,-0.00038907,-0.00055279,
 0.00030301,-0.00019199,0.00060900,0.00016829,0.00032276,0.00004039,-0.
 00003122,-0.00023792,0.00007012,-0.00006747,0.00014984,-0.00017923,0.0
 0016697,0.00007099,-0.00000006,-0.00007416,-0.00005417,0.00012173,0.00
 003715,-0.00016791,-0.00007530,-0.00010845,-0.00152235,0.00337550,-0.0
 0123433,-0.11231864,-0.03730044,0.29886922,-0.00008785,0.00016336,0.00
 004439,-0.00008243,-0.00037129,-0.00002688,-0.00018336,0.00047735,-0.0
 0002014,0.00110017,0.00011330,-0.00029805,0.00016168,-0.00179796,0.000
 82325,-0.01046174,0.00147341,0.02657945,-0.08921278,0.01330026,0.09291
 652,0.00590502,-0.00264092,-0.01554381,-0.00084613,0.00050073,-0.00108
 764,0.00002662,-0.00056935,-0.00027011,0.00010239,-0.00043470,0.000408
 14,-0.00058934,0.00026516,-0.00017457,0.00003321,0.00001385,0.00003450
 ,-0.00011276,-0.00032769,0.00017061,0.00004366,0.00003133,0.00005786,0
 .00001234,0.00084364,-0.00071789,-0.00444751,0.00000548,-0.00038913,0.
 09429249,-0.00003490,-0.00005370,-0.00005655,0.00032066,0.00004145,0.0
 0006138,0.00020318,-0.00035898,-0.00012504,-0.00150255,-0.00012484,-0.
 00014105,0.00230289,-0.00077203,0.00051383,-0.00606703,0.00133904,0.01
 045763,0.00635991,-0.04481905,-0.03446718,0.01075377,-0.00356919,-0.02
 105502,0.00308129,0.00008261,-0.00215703,0.00039191,0.00079342,0.00088
 856,-0.00044103,0.00027894,-0.00065241,0.00082752,-0.00024855,0.000144
 17,-0.00008052,-0.00003098,-0.00003620,0.00019023,0.00030314,-0.000161
 40,0.00000906,-0.00000932,-0.00001175,0.00059565,0.00042229,-0.0000303
 6,-0.00234525,0.00221283,0.00066918,-0.00657977,0.04506619,0.00005916,
 -0.00002241,0.00005557,-0.00013560,0.00005684,-0.00018097,-0.00007197,
 0.00008387,-0.00002694,0.00043603,-0.00001300,0.00075529,-0.00191852,0
 .00042467,0.00041657,-0.00017874,0.00010884,-0.00404748,0.09873446,-0.
 04454058,-0.27700541,0.00752817,-0.00271187,-0.01631932,-0.00246386,0.
 00222361,0.00017803,0.00018330,-0.00021722,0.00031271,-0.00009720,0.00
 002861,0.00009263,-0.00007046,-0.00003213,0.00004994,0.00007180,0.0000
 5650,-0.00004813,-0.00010863,-0.00003047,0.00003729,-0.00000694,-0.000
 00995,-0.00000718,-0.00017583,-0.00074193,0.00032862,0.00060711,-0.001
 02712,0.00028106,-0.10502357,0.05151456,0.29257340,0.00023911,-0.00031
 063,-0.00004612,-0.00009355,0.00056400,-0.00014345,0.00026353,-0.00059
 619,-0.00013349,-0.00064813,0.00051404,0.00011967,0.00092573,-0.000005
 57,0.00089767,-0.00033517,0.00164531,-0.00524196,0.00391811,-0.0001637
 4,-0.00571784,-0.10425885,0.02655927,0.12277237,-0.00639092,0.00188861
 ,0.01125782,-0.00104352,0.00263637,-0.00173790,0.00043055,-0.00135461,
 0.00014484,-0.00036558,0.00032117,-0.00014989,0.00032312,-0.00003488,-
 0.00011905,-0.00003912,0.00009657,0.00011062,-0.00001035,-0.00000688,-
 0.00000339,-0.00002113,-0.00021622,-0.00035259,0.00073472,-0.00045831,
 -0.00003063,0.00450847,-0.00751783,0.00300470,0.09961834,-0.00002917,0
 .00008304,-0.00000058,-0.00005622,-0.00016946,0.00005153,-0.00007677,0
 .00024523,0.00004888,0.00006374,-0.00035969,-0.00003254,-0.00055073,0.
 00026851,-0.00019258,0.00221169,-0.00117337,0.00040433,0.01424312,-0.0
 0645524,-0.02686278,0.02737506,-0.06499931,-0.05177125,-0.01322015,0.0
 0404674,0.02028486,-0.00188191,-0.00002378,0.00001300,0.00045776,0.000
 07384,0.00023842,-0.00022786,-0.00013065,-0.00013728,-0.00012292,0.000
 06314,0.00009550,0.00009966,-0.00003405,-0.00002701,-0.00000730,-0.000
 00028,-0.00000237,0.00001048,0.00003361,0.00040405,-0.00083020,0.00010
 202,0.00053677,-0.00475718,-0.00037025,-0.00438650,-0.02323078,0.07197
 737,0.00015815,-0.00026069,-0.00000330,0.00003859,0.00051372,-0.000206
 43,0.00020618,-0.00065057,-0.00010958,-0.00051254,0.00069612,0.0002330
 9,0.00072482,0.00037014,0.00102394,0.00080364,0.00053532,-0.00082241,0
 .00542322,-0.00131751,-0.01071843,0.11121834,-0.05111913,-0.24338319,0
 .00808589,-0.00397609,-0.00984839,0.00118903,-0.00011210,0.00069099,-0
 .00103343,-0.00020423,0.00006671,0.00029054,0.00007544,-0.00001299,0.0
 0022520,0.00008211,-0.00014577,-0.00011983,0.00011584,-0.00000699,-0.0
 0000596,-0.00001448,-0.00001027,0.00007440,-0.00058904,-0.00044770,-0.
 00047310,-0.00022120,-0.00006126,0.00159711,-0.00509425,0.00176771,-0.
 12739713,0.05870793,0.26217459,0.00011164,-0.00003090,-0.00003023,-0.0
 0024294,-0.00002960,0.00000309,-0.00004458,0.00012266,0.00001706,0.000
 12065,-0.00006368,-0.00027994,-0.00046654,0.00053847,-0.00014519,0.001
 18103,0.00065152,0.00002875,0.00033768,-0.00136973,0.00010500,0.000063
 90,0.00319852,-0.00098243,-0.16228861,0.02272340,0.13950316,-0.0125929
 6,0.00420078,0.01778288,0.00172455,-0.00655853,0.00130630,-0.00196482,
 0.00093096,-0.00109382,0.00033015,-0.00001361,0.00015981,0.00017185,-0
 .00019418,0.00016516,0.00001604,0.00002518,0.00006277,-0.00001218,0.00
 001338,-0.00004374,0.00000702,-0.00006082,0.00000931,-0.00016156,-0.00
 031695,-0.00018140,0.00139788,0.00002221,0.00014077,0.17131767,0.00005
 519,0.00003546,-0.00002412,-0.00018040,-0.00017689,0.00007162,-0.00016
 988,0.00015665,0.00004995,0.00016622,-0.00014423,-0.00028848,-0.000428
 72,0.00043835,-0.00045916,0.00108893,0.00081471,0.00036242,0.00144227,
 -0.00063090,0.00099649,-0.01444428,0.00682780,0.01601393,0.02570240,-0
 .05696228,-0.01807467,0.01575654,0.00341202,-0.01853177,-0.00138114,-0
 .00200560,-0.00175121,-0.00104452,0.00053700,-0.00033860,0.00052551,0.
 00024219,0.00021398,0.00003492,-0.00050204,0.00024715,0.00001389,0.000
 02346,0.00005280,-0.00001123,0.00013570,0.00006828,0.00009695,-0.00009
 442,-0.00010304,0.00007059,0.00001069,-0.00081427,-0.00104434,-0.00306
 250,0.00210416,-0.03094393,0.05013199,0.00014598,-0.00012378,-0.000020
 61,-0.00015681,0.00018580,-0.00002189,0.00007297,-0.00012839,0.0000029
 7,-0.00023103,0.00005925,-0.00001789,0.00017782,0.00049266,-0.00007921
 ,0.00068904,0.00019081,0.00049589,-0.00207426,-0.00131762,-0.00054168,
 0.01094928,-0.00157579,-0.01452447,0.14766199,-0.02035303,-0.19935811,
 -0.00245743,0.00392813,0.00306027,-0.00259997,-0.00355028,0.00031056,-
 0.00007531,0.00050008,0.00008098,0.00030654,0.00011433,-0.00018306,0.0
 0005631,-0.00019739,0.00010408,-0.00000412,-0.00000018,0.00000447,-0.0
 0001924,-0.00009055,-0.00002640,-0.00018730,-0.00003077,0.00001715,0.0
 0057925,-0.00010682,0.00088031,0.00293636,0.00278476,-0.00032325,-0.15
 818479,0.01563727,0.20711283,0.00012384,-0.00001043,0.00000377,-0.0004
 1504,-0.00006084,-0.00020566,-0.00014375,0.00019563,0.00000573,0.00056
 313,-0.00020909,-0.00013943,-0.00039584,-0.00039321,-0.00024323,0.0000
 8155,-0.00012344,-0.00003301,-0.00030165,0.00011742,-0.00033562,-0.002
 02897,-0.00222531,-0.00013334,-0.01209741,0.00177900,0.01600800,-0.205
 70192,0.01197787,0.14916745,0.00512822,0.00030678,-0.00479808,0.000633
 71,-0.00033071,-0.00035635,0.00017148,0.00167807,-0.00070778,-0.001228
 80,-0.00107797,0.00029199,0.00001737,0.00002050,0.00003757,0.00001823,
 0.00008961,0.00008340,0.00007203,0.00000968,0.00001014,-0.00009398,-0.
 00004725,-0.00022567,0.00092039,0.00044499,-0.00070281,0.00117139,0.00
 485180,0.00153084,0.21341260,0.00022335,-0.00022157,-0.00013531,-0.000
 17675,0.00020356,0.00034619,0.00005847,-0.00034655,-0.00003731,-0.0006
 1294,-0.00008060,-0.00006219,-0.00006425,-0.00052209,0.00002130,-0.000
 52914,-0.00053651,-0.00022494,-0.00085337,0.00121517,-0.00020380,0.000
 16046,-0.00125875,-0.00358950,0.01489670,0.00157378,-0.01238282,0.0125
 3696,-0.04333614,-0.00046881,-0.01478130,-0.00206026,0.02076301,-0.001
 98357,-0.00037505,-0.00179275,0.00019451,0.00042988,-0.00120766,0.0008
 8357,0.00063594,-0.00013782,-0.00001346,-0.00000334,-0.00003031,0.0000
 0467,-0.00004807,-0.00004302,0.00001897,-0.00009507,0.00004769,0.00031
 799,-0.00024270,0.00008443,0.00054956,-0.00024935,0.00044809,0.0065192
 0,0.00156077,0.00419096,-0.01847173,0.04377439,0.00019980,-0.00015100,
 -0.00010623,-0.00013060,0.00011298,0.00013555,-0.00003199,-0.00027188,
 -0.00003733,-0.00035045,0.00004406,0.00008249,0.00001661,-0.00032639,-
 0.00003761,-0.00048124,-0.00007114,-0.00009315,-0.00060808,0.00085245,
 -0.00062958,-0.00211287,0.00130996,-0.00031914,-0.00202198,0.00034292,
 0.00510739,0.14201236,-0.00133144,-0.17786390,0.01916418,0.00559651,-0
 .02200777,0.00284343,-0.00056238,0.00169803,-0.00042799,0.00029491,0.0
 0015199,-0.00042959,-0.00051461,0.00001926,0.00000925,0.00000102,-0.00
 000065,-0.00002118,-0.00004013,-0.00004323,0.00007772,-0.00005741,0.00
 000674,0.00041333,-0.00031855,-0.00009273,-0.00008043,0.00000309,-0.00
 012785,0.00216797,0.00369883,0.00264863,-0.15841233,-0.00996940,0.1939
 3712,0.00007384,-0.00003293,-0.00002075,-0.00011497,-0.00023347,0.0000
 8332,-0.00007640,-0.00008255,0.00004148,-0.00010408,-0.00000538,-0.000
 06141,0.00013325,0.00001184,0.00014787,-0.00016071,-0.00006791,-0.0000
 3135,-0.00002219,0.00064311,-0.00009680,0.00020022,-0.00045174,0.00042
 122,0.00045747,-0.00131846,-0.00116761,0.00945434,0.00258942,-0.004822
 02,-0.25761655,-0.07144803,0.16542896,-0.03952528,-0.00374670,0.007468
 19,-0.00179227,-0.00059576,-0.00005112,-0.00071662,0.00096104,0.000110
 68,0.00001830,-0.00004934,-0.00000073,-0.00001360,-0.00007426,-0.00005
 583,0.00000394,-0.00003616,-0.00002240,0.00010315,-0.00011029,0.000031
 67,-0.00010103,0.00007132,0.00004689,-0.00014902,-0.00015374,0.0008842
 3,0.00021651,0.00097719,-0.00190518,0.29054084,0.00029592,-0.00017911,
 0.00000564,-0.00035457,0.00070109,-0.00068218,0.00033710,-0.00011851,-
 0.00014934,-0.00001007,0.00006714,0.00043332,-0.00013701,-0.00007272,0
 .00007966,0.00020120,0.00002143,-0.00000427,0.00002983,-0.00085867,0.0
 0029965,-0.00020060,0.00016784,-0.00077422,0.00032429,0.00200684,0.000
 64088,-0.01384585,-0.00335776,0.00894279,-0.06697061,-0.06139960,0.074
 68164,0.00212936,-0.00856596,-0.00902836,0.00287245,0.01568806,0.00330
 134,0.00171594,-0.00159144,0.00010332,-0.00001746,0.00012791,0.0000430
 1,-0.00001722,-0.00002943,-0.00000327,-0.00002374,-0.00002264,-0.00003
 655,-0.00011646,0.00007107,-0.00003542,0.00017925,0.00012461,-0.000071
 67,0.00061708,-0.00076157,-0.00060814,0.00147374,-0.00003367,0.0013823
 2,0.07320109,0.05869774,-0.00020402,-0.00004000,0.00010317,0.00049019,
 0.00034361,-0.00052037,0.00016420,-0.00064830,-0.00000830,-0.00043397,
 0.00010858,0.00050659,0.00011660,-0.00017188,0.00017876,-0.00014370,-0
 .00028026,-0.00011561,-0.00026232,0.00001241,0.00004037,0.00004207,0.0
 0069803,-0.00052536,-0.00010058,-0.00158715,0.00132529,0.02157888,0.00
 599220,-0.01989648,0.16515071,0.07385710,-0.17995606,-0.01519297,-0.01
 088593,0.00993241,-0.00292469,0.00606588,0.00254177,0.00031004,0.00027
 326,-0.00015729,-0.00001666,-0.00000746,-0.00001442,-0.00001343,-0.000
 04776,-0.00001804,0.00000216,0.00000964,-0.00001228,0.00006084,-0.0000
 0671,0.00000739,-0.00016483,-0.00011074,0.00012701,-0.00035275,0.00088
 734,0.00034778,-0.00077999,0.00417640,-0.00282871,-0.16629923,-0.07826
 883,0.18858046,0.00125244,0.00158193,-0.00041783,-0.00138446,-0.002716
 24,-0.00170078,-0.00007870,0.00095652,-0.00015914,0.00120255,-0.001852
 79,0.00274780,-0.00047351,-0.00020861,-0.00000412,0.00017381,-0.000051
 34,0.00007257,-0.00010413,-0.00009834,0.00002179,-0.00010964,0.0001295
 3,-0.00011397,0.00028948,-0.00013475,0.00004432,0.00012781,0.00115082,
 0.00032493,-0.00211853,-0.00198242,0.00357030,-0.02077887,0.01806835,0
 .00375272,-0.14155168,0.13469168,0.02061213,0.00970786,-0.01207561,-0.
 00067299,-0.00017296,0.00016794,0.00016997,-0.00001091,0.00011789,-0.0
 0000811,0.00000836,-0.00004004,0.00000414,-0.00000976,0.00000732,0.000
 00199,0.00002740,-0.00000884,0.00002203,-0.00002823,-0.00000305,-0.000
 00034,-0.00012312,0.00014492,0.00010925,-0.00080914,-0.00168367,-0.001
 02655,0.15496392,-0.00133888,0.00136108,0.00040153,0.00087410,-0.00004
 450,-0.00234636,0.00061492,0.00019327,-0.00026790,-0.00091597,-0.00081
 430,0.00102123,-0.00039856,-0.00012691,0.00020055,-0.00004447,-0.00026
 545,-0.00009457,-0.00001659,0.00026489,0.00007399,0.00020473,0.0000228
 6,0.00002190,-0.00007498,-0.00011502,-0.00006981,0.00001898,0.00015639
 ,0.00047508,-0.00303233,-0.00154657,-0.00099431,0.00105367,0.00804999,
 0.00080258,0.12349237,-0.20311775,-0.01339230,0.01594677,-0.03125208,0
 .00185912,-0.00026678,0.00020892,0.00040929,0.00005423,0.00005277,-0.0
 0003314,0.00001010,-0.00004743,-0.00000975,0.00001887,-0.00002208,0.00
 000094,-0.00001418,0.00000982,-0.00001789,0.00001857,0.00001363,-0.000
 00132,0.00000489,0.00001624,-0.00002471,-0.00004828,-0.00068267,-0.000
 36944,-0.13616120,0.22768488,0.00061144,-0.00139820,0.00010285,-0.0048
 5747,0.00102883,-0.00631376,0.00017960,0.00135003,-0.00004396,0.004544
 44,0.00209964,0.00784973,-0.00012469,-0.00017443,-0.00053929,0.0005902
 5,0.00048347,0.00014720,0.00005672,-0.00129708,0.00044835,-0.00094940,
 0.00002757,-0.00072365,0.00078588,0.00058075,0.00068009,-0.00028541,0.
 00047490,-0.00187219,0.00600810,0.00081415,0.00326777,0.00705456,-0.00
 940215,-0.00150465,0.01868087,-0.01134127,-0.04097848,-0.00446801,0.00
 417231,0.00553475,-0.00000987,-0.00011765,-0.00000665,-0.00003914,0.00
 035822,0.00014116,-0.00001557,-0.00007326,0.00004780,-0.00013346,0.000
 17101,-0.00000834,0.00007466,-0.00004951,0.00014377,-0.00015772,-0.000
 01888,0.00003064,-0.00006560,0.00020758,0.00040069,-0.00013008,-0.0002
 5133,0.00036190,-0.02735011,0.01235529,0.03283427\\0.00001554,-0.00000
 869,-0.00001462,0.00000663,0.00001140,0.00002542,-0.00001936,-0.000036
 20,-0.00003043,-0.00001479,0.00004128,0.00000586,-0.00001800,0.0000037
 4,0.00002202,-0.00000125,-0.00001569,0.00001148,0.00005332,0.00005969,
 0.00002631,0.00000912,0.00002336,-0.00008057,-0.00006620,-0.00006207,0
 .00005111,0.00004512,-0.00000046,0.00009051,-0.00002137,-0.00000931,-0
 .00004975,0.00003201,0.00000833,-0.00001168,-0.00000612,0.00001947,-0.
 00000849,-0.00002795,-0.00000986,-0.00001142,0.00000878,0.00000469,0.0
 0000766,-0.00000134,0.00000019,-0.00000823,0.00000853,-0.00002020,0.00
 001466,0.00000204,-0.00001376,-0.00001011,-0.00000904,0.00000557,-0.00
 001131,-0.00000670,-0.00000673,-0.00001036,0.00000242,0.00000124,-0.00
 001184,-0.00000178,0.00001782,-0.00000092,0.00001040,-0.00001381,0.000
 00469\\\@


 There was a great rattling of the words for the fewness of ideas.
                   -- Charles Baxter in Gryphon
 Job cpu time:       0 days  4 hours 53 minutes 26.1 seconds.
 Elapsed time:       0 days  1 hours 13 minutes 25.9 seconds.
 File lengths (MBytes):  RWF=    325 Int=      0 D2E=      0 Chk=     16 Scr=      1
 Normal termination of Gaussian 16 at Tue May 16 00:17:56 2023.
### All Done ###
