### Starting Gaussian ###
 Entering Gaussian System, Link 0=g16
 Initial command:
 /cluster/software/gaussian/gaussian-16-A.03/avx2/g16/l1.exe "/local/scratch/cz9n3/Gau-21839.inp" -scrdir="/local/scratch/cz9n3/"
 Entering Link 1 = /cluster/software/gaussian/gaussian-16-A.03/avx2/g16/l1.exe PID=     21840.
  
 Copyright (c) 1988,1990,1992,1993,1995,1998,2003,2009,2016,
            Gaussian, Inc.  All Rights Reserved.
  
 This is part of the Gaussian(R) 16 program.  It is based on
 the Gaussian(R) 09 system (copyright 2009, Gaussian, Inc.),
 the Gaussian(R) 03 system (copyright 2003, Gaussian, Inc.),
 the Gaussian(R) 98 system (copyright 1998, Gaussian, Inc.),
 the Gaussian(R) 94 system (copyright 1995, Gaussian, Inc.),
 the Gaussian 92(TM) system (copyright 1992, Gaussian, Inc.),
 the Gaussian 90(TM) system (copyright 1990, Gaussian, Inc.),
 the Gaussian 88(TM) system (copyright 1988, Gaussian, Inc.),
 the Gaussian 86(TM) system (copyright 1986, Carnegie Mellon
 University), and the Gaussian 82(TM) system (copyright 1983,
 Carnegie Mellon University). Gaussian is a federally registered
 trademark of Gaussian, Inc.
  
 This software contains proprietary and confidential information,
 including trade secrets, belonging to Gaussian, Inc.
  
 This software is provided under written license and may be
 used, copied, transmitted, or stored only in accord with that
 written license.
  
 The following legend is applicable only to US Government
 contracts under FAR:
  
                    RESTRICTED RIGHTS LEGEND
  
 Use, reproduction and disclosure by the US Government is
 subject to restrictions as set forth in subparagraphs (a)
 and (c) of the Commercial Computer Software - Restricted
 Rights clause in FAR 52.227-19.
  
 Gaussian, Inc.
 340 Quinnipiac St., Bldg. 40, Wallingford CT 06492
  
  
 ---------------------------------------------------------------
 Warning -- This program may not be used in any manner that
 competes with the business of Gaussian, Inc. or will provide
 assistance to any competitor of Gaussian, Inc.  The licensee
 of this program is prohibited from giving any competitor of
 Gaussian, Inc. access to this program.  By using this program,
 the user acknowledges that Gaussian, Inc. is engaged in the
 business of creating and licensing software in the field of
 computational chemistry and represents and warrants to the
 licensee that it is not a competitor of Gaussian, Inc. and that
 it will not use this program in any manner prohibited above.
 ---------------------------------------------------------------
  

 Cite this work as:
 Gaussian 16, Revision A.03,
 M. J. Frisch, G. W. Trucks, H. B. Schlegel, G. E. Scuseria, 
 M. A. Robb, J. R. Cheeseman, G. Scalmani, V. Barone, 
 G. A. Petersson, H. Nakatsuji, X. Li, M. Caricato, A. V. Marenich, 
 J. Bloino, B. G. Janesko, R. Gomperts, B. Mennucci, H. P. Hratchian, 
 J. V. Ortiz, A. F. Izmaylov, J. L. Sonnenberg, D. Williams-Young, 
 F. Ding, F. Lipparini, F. Egidi, J. Goings, B. Peng, A. Petrone, 
 T. Henderson, D. Ranasinghe, V. G. Zakrzewski, J. Gao, N. Rega, 
 G. Zheng, W. Liang, M. Hada, M. Ehara, K. Toyota, R. Fukuda, 
 J. Hasegawa, M. Ishida, T. Nakajima, Y. Honda, O. Kitao, H. Nakai, 
 T. Vreven, K. Throssell, J. A. Montgomery, Jr., J. E. Peralta, 
 F. Ogliaro, M. J. Bearpark, J. J. Heyd, E. N. Brothers, K. N. Kudin, 
 V. N. Staroverov, T. A. Keith, R. Kobayashi, J. Normand, 
 K. Raghavachari, A. P. Rendell, J. C. Burant, S. S. Iyengar, 
 J. Tomasi, M. Cossi, J. M. Millam, M. Klene, C. Adamo, R. Cammi, 
 J. W. Ochterski, R. L. Martin, K. Morokuma, O. Farkas, 
 J. B. Foresman, and D. J. Fox, Gaussian, Inc., Wallingford CT, 2016.
 
 ******************************************
 Gaussian 16:  ES64L-G16RevA.03 25-Dec-2016
                15-May-2023 
 ******************************************
 %chk=OdC1CdCC2dCCdNCdCCdCC1dCS2.chk
 %NProcShared=20
 Will use up to   20 processors via shared memory.
 -----------------------------
 # opt freq b3lyp/6-31g(2df,p)
 -----------------------------
 1/18=20,19=15,26=3,38=1/1,3;
 2/9=110,12=2,17=6,18=5,40=1/2;
 3/5=1,6=6,7=104,11=2,25=1,30=1,71=1,74=-5/1,2,3;
 4//1;
 5/5=2,38=5/2;
 6/7=2,8=2,9=2,10=2,28=1/1;
 7//1,2,3,16;
 1/18=20,19=15,26=3/3(2);
 2/9=110/2;
 99//99;
 2/9=110/2;
 3/5=1,6=6,7=104,11=2,25=1,30=1,71=1,74=-5/1,2,3;
 4/5=5,16=3,69=1/1;
 5/5=2,38=5/2;
 7//1,2,3,16;
 1/18=20,19=15,26=3/3(-5);
 2/9=110/2;
 6/7=2,8=2,9=2,10=2,19=2,28=1/1;
 99/9=1/99;
 -------------------
 Title Card Required
 -------------------
 Symbolic Z-matrix:
 Charge =  0 Multiplicity = 1
 O                     1.9669    0.69584  -0.45472 
 C                     3.06355   0.18822  -0.66585 
 C                     3.10892  -1.24293  -0.1917 
 C                     4.25402  -1.75485   0.0233 
 C                     5.46975  -0.97259   0.089 
 C                     6.46152  -1.40389  -0.6646 
 C                     7.71354  -0.6952   -0.54351 
 N                     8.83286  -1.10779  -1.02989 
 C                     9.54567   0.01587  -1.38031 
 C                     8.96987   0.47778  -2.50176 
 C                     7.45638   1.23718  -2.3852 
 C                     6.04363   1.38709  -1.93654 
 C                     4.48511   1.10951  -1.16126 
 C                     4.59016   1.63696   0.07834 
 S                     5.45043   0.48529   1.18413 
 H                     2.17919  -1.82551   0.00698 
 H                     4.37396  -2.83361   0.15446 
 H                     6.39188  -2.20235  -1.41027 
 H                     7.6299    0.34846  -0.17792 
 H                     9.70286   0.77267  -0.60725 
 H                     9.4748   -0.15124  -3.28722 
 H                     8.01051   2.18379  -2.62355 
 H                     5.68192   2.41059  -2.15212 
 H                     4.95238   2.66683   0.14435 
 

 GradGradGradGradGradGradGradGradGradGradGradGradGradGradGradGradGradGrad
 Berny optimization.
 Initialization pass.
                           ----------------------------
                           !    Initial Parameters    !
                           ! (Angstroms and Degrees)  !
 --------------------------                            --------------------------
 ! Name  Definition              Value          Derivative Info.                !
 --------------------------------------------------------------------------------
 ! R1    R(1,2)                  1.2267         estimate D2E/DX2                !
 ! R2    R(2,3)                  1.5083         estimate D2E/DX2                !
 ! R3    R(2,13)                 1.7649         estimate D2E/DX2                !
 ! R4    R(3,4)                  1.2726         estimate D2E/DX2                !
 ! R5    R(3,16)                 1.115          estimate D2E/DX2                !
 ! R6    R(4,5)                  1.4472         estimate D2E/DX2                !
 ! R7    R(4,17)                 1.0933         estimate D2E/DX2                !
 ! R8    R(5,6)                  1.3182         estimate D2E/DX2                !
 ! R9    R(5,15)                 1.8235         estimate D2E/DX2                !
 ! R10   R(6,7)                  1.4438         estimate D2E/DX2                !
 ! R11   R(6,18)                 1.0947         estimate D2E/DX2                !
 ! R12   R(7,8)                  1.2883         estimate D2E/DX2                !
 ! R13   R(7,19)                 1.109          estimate D2E/DX2                !
 ! R14   R(8,9)                  1.376          estimate D2E/DX2                !
 ! R15   R(9,10)                 1.3426         estimate D2E/DX2                !
 ! R16   R(9,20)                 1.0932         estimate D2E/DX2                !
 ! R17   R(10,11)                1.6973         estimate D2E/DX2                !
 ! R18   R(10,21)                1.1259         estimate D2E/DX2                !
 ! R19   R(11,12)                1.4898         estimate D2E/DX2                !
 ! R20   R(11,22)                1.1225         estimate D2E/DX2                !
 ! R21   R(12,13)                1.7627         estimate D2E/DX2                !
 ! R22   R(12,23)                1.1067         estimate D2E/DX2                !
 ! R23   R(13,14)                1.3512         estimate D2E/DX2                !
 ! R24   R(14,15)                1.8136         estimate D2E/DX2                !
 ! R25   R(14,24)                1.0937         estimate D2E/DX2                !
 ! A1    A(1,2,3)              111.4327         estimate D2E/DX2                !
 ! A2    A(1,2,13)             123.5275         estimate D2E/DX2                !
 ! A3    A(3,2,13)             124.0069         estimate D2E/DX2                !
 ! A4    A(2,3,4)              117.5065         estimate D2E/DX2                !
 ! A5    A(2,3,16)             121.7814         estimate D2E/DX2                !
 ! A6    A(4,3,16)             120.6638         estimate D2E/DX2                !
 ! A7    A(3,4,5)              123.1025         estimate D2E/DX2                !
 ! A8    A(3,4,17)             121.0569         estimate D2E/DX2                !
 ! A9    A(5,4,17)             115.8333         estimate D2E/DX2                !
 ! A10   A(4,5,6)              115.4199         estimate D2E/DX2                !
 ! A11   A(4,5,15)             116.7781         estimate D2E/DX2                !
 ! A12   A(6,5,15)             127.8008         estimate D2E/DX2                !
 ! A13   A(5,6,7)              116.3534         estimate D2E/DX2                !
 ! A14   A(5,6,18)             125.4651         estimate D2E/DX2                !
 ! A15   A(7,6,18)             118.0549         estimate D2E/DX2                !
 ! A16   A(6,7,8)              124.3735         estimate D2E/DX2                !
 ! A17   A(6,7,19)             115.0993         estimate D2E/DX2                !
 ! A18   A(8,7,19)             119.4314         estimate D2E/DX2                !
 ! A19   A(7,8,9)              106.5406         estimate D2E/DX2                !
 ! A20   A(8,9,10)             105.753          estimate D2E/DX2                !
 ! A21   A(8,9,20)             117.3684         estimate D2E/DX2                !
 ! A22   A(10,9,20)            114.4671         estimate D2E/DX2                !
 ! A23   A(9,10,11)            118.6192         estimate D2E/DX2                !
 ! A24   A(9,10,21)            101.4306         estimate D2E/DX2                !
 ! A25   A(11,10,21)           134.2495         estimate D2E/DX2                !
 ! A26   A(10,11,12)           155.6783         estimate D2E/DX2                !
 ! A27   A(10,11,22)            85.5568         estimate D2E/DX2                !
 ! A28   A(12,11,22)           116.5651         estimate D2E/DX2                !
 ! A29   A(11,12,13)           162.7507         estimate D2E/DX2                !
 ! A30   A(11,12,23)           110.1396         estimate D2E/DX2                !
 ! A31   A(13,12,23)            86.6942         estimate D2E/DX2                !
 ! A32   A(2,13,12)            156.6069         estimate D2E/DX2                !
 ! A33   A(2,13,14)             90.5083         estimate D2E/DX2                !
 ! A34   A(12,13,14)           105.8596         estimate D2E/DX2                !
 ! A35   A(13,14,15)           110.3861         estimate D2E/DX2                !
 ! A36   A(13,14,24)           116.6589         estimate D2E/DX2                !
 ! A37   A(15,14,24)           113.8321         estimate D2E/DX2                !
 ! A38   A(5,15,14)             98.4267         estimate D2E/DX2                !
 ! D1    D(1,2,3,4)           -159.4322         estimate D2E/DX2                !
 ! D2    D(1,2,3,16)            18.0547         estimate D2E/DX2                !
 ! D3    D(13,2,3,4)             9.2758         estimate D2E/DX2                !
 ! D4    D(13,2,3,16)         -173.2374         estimate D2E/DX2                !
 ! D5    D(1,2,13,12)         -152.6588         estimate D2E/DX2                !
 ! D6    D(1,2,13,14)           72.2009         estimate D2E/DX2                !
 ! D7    D(3,2,13,12)           39.9709         estimate D2E/DX2                !
 ! D8    D(3,2,13,14)          -95.1694         estimate D2E/DX2                !
 ! D9    D(2,3,4,5)             12.43           estimate D2E/DX2                !
 ! D10   D(2,3,4,17)          -166.543          estimate D2E/DX2                !
 ! D11   D(16,3,4,5)          -165.0864         estimate D2E/DX2                !
 ! D12   D(16,3,4,17)           15.9406         estimate D2E/DX2                !
 ! D13   D(3,4,5,6)           -129.143          estimate D2E/DX2                !
 ! D14   D(3,4,5,15)            50.4963         estimate D2E/DX2                !
 ! D15   D(17,4,5,6)            49.8795         estimate D2E/DX2                !
 ! D16   D(17,4,5,15)         -130.4812         estimate D2E/DX2                !
 ! D17   D(4,5,6,7)           -175.7656         estimate D2E/DX2                !
 ! D18   D(4,5,6,18)             8.4231         estimate D2E/DX2                !
 ! D19   D(15,5,6,7)             4.6419         estimate D2E/DX2                !
 ! D20   D(15,5,6,18)         -171.1693         estimate D2E/DX2                !
 ! D21   D(4,5,15,14)          -80.291          estimate D2E/DX2                !
 ! D22   D(6,5,15,14)           99.2967         estimate D2E/DX2                !
 ! D23   D(5,6,7,8)            168.1076         estimate D2E/DX2                !
 ! D24   D(5,6,7,19)           -23.9777         estimate D2E/DX2                !
 ! D25   D(18,6,7,8)           -15.7577         estimate D2E/DX2                !
 ! D26   D(18,6,7,19)          152.1569         estimate D2E/DX2                !
 ! D27   D(6,7,8,9)            147.5873         estimate D2E/DX2                !
 ! D28   D(19,7,8,9)           -19.8391         estimate D2E/DX2                !
 ! D29   D(7,8,9,10)           -74.6168         estimate D2E/DX2                !
 ! D30   D(7,8,9,20)            54.4772         estimate D2E/DX2                !
 ! D31   D(8,9,10,11)           73.2072         estimate D2E/DX2                !
 ! D32   D(8,9,10,21)          -83.9119         estimate D2E/DX2                !
 ! D33   D(20,9,10,11)         -57.5711         estimate D2E/DX2                !
 ! D34   D(20,9,10,21)         145.3098         estimate D2E/DX2                !
 ! D35   D(9,10,11,12)         -46.967          estimate D2E/DX2                !
 ! D36   D(9,10,11,22)         109.5523         estimate D2E/DX2                !
 ! D37   D(21,10,11,12)        100.8895         estimate D2E/DX2                !
 ! D38   D(21,10,11,22)       -102.5911         estimate D2E/DX2                !
 ! D39   D(10,11,12,13)          0.9787         estimate D2E/DX2                !
 ! D40   D(10,11,12,23)        167.8823         estimate D2E/DX2                !
 ! D41   D(22,11,12,13)       -152.6536         estimate D2E/DX2                !
 ! D42   D(22,11,12,23)         14.25           estimate D2E/DX2                !
 ! D43   D(11,12,13,2)         -46.6928         estimate D2E/DX2                !
 ! D44   D(11,12,13,14)         86.147          estimate D2E/DX2                !
 ! D45   D(23,12,13,2)         145.6106         estimate D2E/DX2                !
 ! D46   D(23,12,13,14)        -81.5495         estimate D2E/DX2                !
 ! D47   D(2,13,14,15)          82.4193         estimate D2E/DX2                !
 ! D48   D(2,13,14,24)        -145.5983         estimate D2E/DX2                !
 ! D49   D(12,13,14,15)        -80.6544         estimate D2E/DX2                !
 ! D50   D(12,13,14,24)         51.328          estimate D2E/DX2                !
 ! D51   D(13,14,15,5)          -9.9655         estimate D2E/DX2                !
 ! D52   D(24,14,15,5)        -143.3923         estimate D2E/DX2                !
 --------------------------------------------------------------------------------
 Trust Radius=3.00D-01 FncErr=1.00D-07 GrdErr=1.00D-06 EigMax=2.50D+02 EigMin=1.00D-04
 Number of steps in this run=    125 maximum allowed number of steps=    144.
 GradGradGradGradGradGradGradGradGradGradGradGradGradGradGradGradGradGrad

                          Input orientation:                          
 ---------------------------------------------------------------------
 Center     Atomic      Atomic             Coordinates (Angstroms)
 Number     Number       Type             X           Y           Z
 ---------------------------------------------------------------------
      1          8           0        1.966900    0.695840   -0.454720
      2          6           0        3.063550    0.188220   -0.665850
      3          6           0        3.108920   -1.242930   -0.191700
      4          6           0        4.254020   -1.754850    0.023300
      5          6           0        5.469750   -0.972590    0.089000
      6          6           0        6.461520   -1.403890   -0.664600
      7          6           0        7.713540   -0.695200   -0.543510
      8          7           0        8.832860   -1.107790   -1.029890
      9          6           0        9.545670    0.015870   -1.380310
     10          6           0        8.969870    0.477780   -2.501760
     11          6           0        7.456380    1.237180   -2.385200
     12          6           0        6.043630    1.387090   -1.936540
     13          6           0        4.485110    1.109510   -1.161260
     14          6           0        4.590160    1.636960    0.078340
     15         16           0        5.450430    0.485290    1.184130
     16          1           0        2.179190   -1.825510    0.006980
     17          1           0        4.373960   -2.833610    0.154460
     18          1           0        6.391880   -2.202350   -1.410270
     19          1           0        7.629900    0.348460   -0.177920
     20          1           0        9.702860    0.772670   -0.607250
     21          1           0        9.474800   -0.151240   -3.287220
     22          1           0        8.010510    2.183790   -2.623550
     23          1           0        5.681920    2.410590   -2.152120
     24          1           0        4.952380    2.666830    0.144350
 ---------------------------------------------------------------------
                    Distance matrix (angstroms):
                    1          2          3          4          5
     1  O    0.000000
     2  C    1.226742   0.000000
     3  C    2.265440   1.508333   0.000000
     4  C    3.386045   2.380686   1.272612   0.000000
     5  C    3.917812   2.776162   2.392780   1.447151   0.000000
     6  C    4.965332   3.752468   3.389612   2.338682   1.318158
     7  C    5.913269   4.734744   4.650409   3.662296   2.347681
     8  N    7.122170   5.924281   5.786563   4.742749   3.546929
     9  C    7.665300   6.523652   6.665517   5.753880   4.443990
    10  C    7.299282   6.191852   6.530540   5.796534   4.589820
    11  C    5.844159   4.832539   5.464686   5.000822   3.866710
    12  C    4.392419   3.454391   4.309756   4.112841   3.162316
    13  C    2.647962   1.764947   2.892736   3.108238   2.620650
    14  C    2.837491   2.232309   3.249732   3.408870   2.753823
    15  S    3.855534   3.034448   3.219056   2.792338   1.823485
    16  H    2.572050   2.299979   1.115021   2.076097   3.400292
    17  H    4.315328   3.394339   2.061654   1.093303   2.160656
    18  H    5.375224   4.164945   3.630871   2.612628   2.147194
    19  H    5.680393   4.595139   4.792909   3.982583   2.546108
    20  H    7.737845   6.665242   6.907631   6.039521   4.631405
    21  H    8.069025   6.934763   7.162294   6.386521   5.302255
    22  H    6.591133   5.682192   6.456151   6.052265   4.876077
    23  H    4.429775   3.742164   4.879732   4.911440   4.063686
    24  H    3.627227   3.219877   4.335608   4.478126   3.676427
                    6          7          8          9         10
     6  C    0.000000
     7  C    1.443765   0.000000
     8  N    2.417512   1.288283   0.000000
     9  C    3.469862   2.136014   1.376047   0.000000
    10  C    3.634234   2.605569   2.167765   1.342593   0.000000
    11  C    3.305369   2.681799   3.038165   2.620407   1.697329
    12  C    3.095486   3.010824   3.850486   3.801831   3.115959
    13  C    3.235745   3.749847   4.882275   5.182017   4.723251
    14  C    3.647015   3.947299   5.173232   5.414118   5.213681
    15  S    2.830037   3.082201   4.345184   4.854657   5.096303
    16  H    4.355127   5.675356   6.772115   7.718826   7.596858
    17  H    2.659486   4.026506   4.925741   6.100954   6.256452
    18  H    1.094720   2.183932   2.702061   3.855877   3.875626
    19  H    2.161643   1.108999   2.072108   2.286161   2.685605
    20  H    3.904739   2.473075   2.114629   1.093196   2.052657
    21  H    4.186541   3.305431   2.534288   1.915530   1.125863
    22  H    4.371304   3.564175   3.748401   2.932957   1.961039
    23  H    4.167823   4.044878   4.854567   4.610742   3.829963
    24  H    4.416182   4.404589   5.539379   5.518196   5.285269
                   11         12         13         14         15
    11  C    0.000000
    12  C    1.489843   0.000000
    13  C    3.216018   1.762695   0.000000
    14  C    3.800536   2.496948   1.351239   0.000000
    15  S    4.162846   3.302077   2.611962   1.813610   0.000000
    16  H    6.553726   5.388132   3.911060   4.219783   4.174505
    17  H    5.702852   4.997438   4.158325   4.476442   3.637871
    18  H    3.730150   3.644491   3.829647   4.494714   3.852356
    19  H    2.385795   2.586068   3.381695   3.311483   2.573712
    20  H    2.902335   3.941381   5.257880   5.230366   4.623288
    21  H    2.610626   3.995463   5.568321   6.195511   6.049272
    22  H    1.122471   2.230545   3.964948   4.392952   4.892580
    23  H    2.140076   1.106734   2.026565   2.601037   3.858877
    24  H    3.835693   2.675568   2.085235   1.093706   2.467451
                   16         17         18         19         20
    16  H    0.000000
    17  H    2.419717   0.000000
    18  H    4.460646   2.630375   0.000000
    19  H    5.871165   4.564777   3.091603   0.000000
    20  H    7.983322   6.479401   4.523071   2.159037   0.000000
    21  H    8.178072   6.712588   4.151432   3.649809   2.843916
    22  H    7.549733   6.790886   4.830138   3.081299   2.986766
    23  H    5.905538   5.876453   4.725844   3.456078   4.608401
    24  H    5.281153   5.530779   5.310171   3.556376   5.169120
                   21         22         23         24
    21  H    0.000000
    22  H    2.834955   0.000000
    23  H    4.715651   2.386633   0.000000
    24  H    6.337939   4.152922   2.423151   0.000000
 Stoichiometry    C12H9NOS
 Framework group  C1[X(C12H9NOS)]
 Deg. of freedom    66
 Full point group                 C1      NOp   1
 Largest Abelian subgroup         C1      NOp   1
 Largest concise Abelian subgroup C1      NOp   1
                         Standard orientation:                         
 ---------------------------------------------------------------------
 Center     Atomic      Atomic             Coordinates (Angstroms)
 Number     Number       Type             X           Y           Z
 ---------------------------------------------------------------------
      1          8           0       -3.735487    0.968016   -0.518296
      2          6           0       -2.623250    0.469364   -0.656746
      3          6           0       -2.710393   -1.020801   -0.873269
      4          6           0       -1.668397   -1.711332   -0.634622
      5          6           0       -0.516842   -1.187403    0.067992
      6          6           0        0.643306   -1.373044   -0.529616
      7          6           0        1.814535   -0.943128    0.196920
      8          7           0        3.024091   -1.241804   -0.130860
      9          6           0        3.806271   -0.172710    0.241611
     10          6           0        3.560255    0.790734   -0.660503
     11          6           0        2.073216    1.606333   -0.593890
     12          6           0        0.591673    1.721723   -0.487365
     13          6           0       -1.119836    1.332433   -0.325237
     14          6           0       -1.358388    1.262338    1.002930
     15         16           0       -0.834884   -0.347087    1.654754
     16          1           0       -3.659285   -1.513827   -1.189182
     17          1           0       -1.589598   -2.748385   -0.971704
     18          1           0        0.780343   -1.761119   -1.544027
     19          1           0        1.634431   -0.154235    0.955266
     20          1           0        3.745897    0.155632    1.282584
     21          1           0        4.260846    0.501153   -1.492899
     22          1           0        2.671974    2.488351   -0.242501
     23          1           0        0.303484    2.774927   -0.306898
     24          1           0       -1.027588    2.112353    1.606451
 ---------------------------------------------------------------------
 Rotational constants (GHZ):           1.1457276           0.4017894           0.3629775
 Standard basis: 6-31G(2df,p) (6D, 7F)
 There are   514 symmetry adapted cartesian basis functions of A   symmetry.
 There are   469 symmetry adapted basis functions of A   symmetry.
   469 basis functions,   747 primitive gaussians,   514 cartesian basis functions
    56 alpha electrons       56 beta electrons
       nuclear repulsion energy      1025.4177248869 Hartrees.
 NAtoms=   24 NActive=   24 NUniq=   24 SFac= 1.00D+00 NAtFMM=   60 NAOKFM=F Big=F
 Integral buffers will be    131072 words long.
 Raffenetti 2 integral format.
 Two-electron integral symmetry is turned on.
 One-electron integrals computed using PRISM.
 PrsmSu:  requested number of processors reduced to:  12 ShMem   1 Linda.
 NBasis=   469 RedAO= T EigKep=  2.20D-04  NBF=   469
 NBsUse=   469 1.00D-06 EigRej= -1.00D+00 NBFU=   469
 ExpMin= 1.17D-01 ExpMax= 2.19D+04 ExpMxC= 3.30D+03 IAcc=3 IRadAn=         5 AccDes= 0.00D+00
 Harris functional with IExCor=  402 and IRadAn=       5 diagonalized for initial guess.
 HarFok:  IExCor=  402 AccDes= 0.00D+00 IRadAn=         5 IDoV= 1 UseB2=F ITyADJ=14
 ICtDFT=  3500011 ScaDFX=  1.000000  1.000000  1.000000  1.000000
 FoFCou: FMM=F IPFlag=           0 FMFlag=      100000 FMFlg1=           0
         NFxFlg=           0 DoJE=T BraDBF=F KetDBF=T FulRan=T
         wScrn=  0.000000 ICntrl=       500 IOpCl=  0 I1Cent=   200000004 NGrid=           0
         NMat0=    1 NMatS0=      1 NMatT0=    0 NMatD0=    1 NMtDS0=    0 NMtDT0=    0
 Petite list used in FoFCou.
 Requested convergence on RMS density matrix=1.00D-08 within 128 cycles.
 Requested convergence on MAX density matrix=1.00D-06.
 Requested convergence on             energy=1.00D-06.
 No special actions if energy rises.
 Integral accuracy reduced to 1.0D-05 until final iterations.
 EnCoef did     5 forward-backward iterations
 EnCoef did     3 forward-backward iterations
 EnCoef did     1 forward-backward iterations
 EnCoef did     7 forward-backward iterations
 EnCoef did     5 forward-backward iterations
 EnCoef did     2 forward-backward iterations
 Initial convergence to 1.0D-05 achieved.  Increase integral accuracy.
 SCF Done:  E(RB3LYP) =  -990.220435792     A.U. after   26 cycles
            NFock= 26  Conv=0.60D-08     -V/T= 2.0060

 **********************************************************************

            Population analysis using the SCF density.

 **********************************************************************

 Orbital symmetries:
       Occupied  (A) (A) (A) (A) (A) (A) (A) (A) (A) (A) (A) (A)
                 (A) (A) (A) (A) (A) (A) (A) (A) (A) (A) (A) (A)
                 (A) (A) (A) (A) (A) (A) (A) (A) (A) (A) (A) (A)
                 (A) (A) (A) (A) (A) (A) (A) (A) (A) (A) (A) (A)
                 (A) (A) (A) (A) (A) (A) (A) (A)
       Virtual   (A) (A) (A) (A) (A) (A) (A) (A) (A) (A) (A) (A)
                 (A) (A) (A) (A) (A) (A) (A) (A) (A) (A) (A) (A)
                 (A) (A) (A) (A) (A) (A) (A) (A) (A) (A) (A) (A)
                 (A) (A) (A) (A) (A) (A) (A) (A) (A) (A) (A) (A)
                 (A) (A) (A) (A) (A) (A) (A) (A) (A) (A) (A) (A)
                 (A) (A) (A) (A) (A) (A) (A) (A) (A) (A) (A) (A)
                 (A) (A) (A) (A) (A) (A) (A) (A) (A) (A) (A) (A)
                 (A) (A) (A) (A) (A) (A) (A) (A) (A) (A) (A) (A)
                 (A) (A) (A) (A) (A) (A) (A) (A) (A) (A) (A) (A)
                 (A) (A) (A) (A) (A) (A) (A) (A) (A) (A) (A) (A)
                 (A) (A) (A) (A) (A) (A) (A) (A) (A) (A) (A) (A)
                 (A) (A) (A) (A) (A) (A) (A) (A) (A) (A) (A) (A)
                 (A) (A) (A) (A) (A) (A) (A) (A) (A) (A) (A) (A)
                 (A) (A) (A) (A) (A) (A) (A) (A) (A) (A) (A) (A)
                 (A) (A) (A) (A) (A) (A) (A) (A) (A) (A) (A) (A)
                 (A) (A) (A) (A) (A) (A) (A) (A) (A) (A) (A) (A)
                 (A) (A) (A) (A) (A) (A) (A) (A) (A) (A) (A) (A)
                 (A) (A) (A) (A) (A) (A) (A) (A) (A) (A) (A) (A)
                 (A) (A) (A) (A) (A) (A) (A) (A) (A) (A) (A) (A)
                 (A) (A) (A) (A) (A) (A) (A) (A) (A) (A) (A) (A)
                 (A) (A) (A) (A) (A) (A) (A) (A) (A) (A) (A) (A)
                 (A) (A) (A) (A) (A) (A) (A) (A) (A) (A) (A) (A)
                 (A) (A) (A) (A) (A) (A) (A) (A) (A) (A) (A) (A)
                 (A) (A) (A) (A) (A) (A) (A) (A) (A) (A) (A) (A)
                 (A) (A) (A) (A) (A) (A) (A) (A) (A) (A) (A) (A)
                 (A) (A) (A) (A) (A) (A) (A) (A) (A) (A) (A) (A)
                 (A) (A) (A) (A) (A) (A) (A) (A) (A) (A) (A) (A)
                 (A) (A) (A) (A) (A) (A) (A) (A) (A) (A) (A) (A)
                 (A) (A) (A) (A) (A) (A) (A) (A) (A) (A) (A) (A)
                 (A) (A) (A) (A) (A) (A) (A) (A) (A) (A) (A) (A)
                 (A) (A) (A) (A) (A) (A) (A) (A) (A) (A) (A) (A)
                 (A) (A) (A) (A) (A) (A) (A) (A) (A) (A) (A) (A)
                 (A) (A) (A) (A) (A) (A) (A) (A) (A) (A) (A) (A)
                 (A) (A) (A) (A) (A) (A) (A) (A) (A) (A) (A) (A)
                 (A) (A) (A) (A) (A)
 The electronic state is 1-A.
 Alpha  occ. eigenvalues --  -88.92422 -19.15371 -14.35287 -10.29832 -10.28110
 Alpha  occ. eigenvalues --  -10.26670 -10.24573 -10.24344 -10.23610 -10.23576
 Alpha  occ. eigenvalues --  -10.23077 -10.22397 -10.21532 -10.20388 -10.19865
 Alpha  occ. eigenvalues --   -7.98368  -5.94855  -5.94566  -5.93900  -1.04993
 Alpha  occ. eigenvalues --   -0.97077  -0.88315  -0.82752  -0.80245  -0.77318
 Alpha  occ. eigenvalues --   -0.75265  -0.70682  -0.66924  -0.62125  -0.60600
 Alpha  occ. eigenvalues --   -0.57867  -0.56549  -0.52898  -0.52251  -0.50086
 Alpha  occ. eigenvalues --   -0.49208  -0.47141  -0.46164  -0.44971  -0.43839
 Alpha  occ. eigenvalues --   -0.42492  -0.42151  -0.41713  -0.39548  -0.38897
 Alpha  occ. eigenvalues --   -0.36336  -0.35388  -0.33823  -0.32146  -0.29965
 Alpha  occ. eigenvalues --   -0.28860  -0.27606  -0.25609  -0.25125  -0.19546
 Alpha  occ. eigenvalues --   -0.17929
 Alpha virt. eigenvalues --   -0.13457  -0.11667  -0.08339  -0.04621  -0.03036
 Alpha virt. eigenvalues --   -0.00365   0.00747   0.03222   0.06331   0.07081
 Alpha virt. eigenvalues --    0.07923   0.09987   0.11778   0.12565   0.13945
 Alpha virt. eigenvalues --    0.14986   0.15281   0.16350   0.17467   0.18348
 Alpha virt. eigenvalues --    0.19690   0.21772   0.23706   0.25913   0.26873
 Alpha virt. eigenvalues --    0.27316   0.28508   0.29345   0.31312   0.32276
 Alpha virt. eigenvalues --    0.33796   0.34153   0.35966   0.38357   0.39410
 Alpha virt. eigenvalues --    0.40895   0.41603   0.41966   0.44018   0.44562
 Alpha virt. eigenvalues --    0.45836   0.46349   0.47882   0.48452   0.49683
 Alpha virt. eigenvalues --    0.50264   0.50839   0.51515   0.52472   0.54285
 Alpha virt. eigenvalues --    0.54872   0.55294   0.56427   0.57136   0.58282
 Alpha virt. eigenvalues --    0.58993   0.59374   0.60690   0.61287   0.62101
 Alpha virt. eigenvalues --    0.63157   0.63705   0.64656   0.65130   0.66185
 Alpha virt. eigenvalues --    0.66425   0.67743   0.69533   0.70664   0.70865
 Alpha virt. eigenvalues --    0.71297   0.72034   0.73142   0.74412   0.75047
 Alpha virt. eigenvalues --    0.75659   0.76137   0.76729   0.77053   0.77954
 Alpha virt. eigenvalues --    0.78321   0.78510   0.79595   0.79980   0.81115
 Alpha virt. eigenvalues --    0.81390   0.82584   0.85151   0.85591   0.85967
 Alpha virt. eigenvalues --    0.87862   0.88391   0.89240   0.90920   0.91508
 Alpha virt. eigenvalues --    0.93730   0.94040   0.96326   0.97645   0.98607
 Alpha virt. eigenvalues --    1.00143   1.00177   1.00868   1.03532   1.04311
 Alpha virt. eigenvalues --    1.05265   1.06383   1.06533   1.08814   1.10093
 Alpha virt. eigenvalues --    1.11127   1.13285   1.15933   1.17633   1.19742
 Alpha virt. eigenvalues --    1.20277   1.22044   1.23241   1.24248   1.25440
 Alpha virt. eigenvalues --    1.28849   1.29929   1.31801   1.32171   1.34469
 Alpha virt. eigenvalues --    1.35863   1.37290   1.38242   1.40051   1.40840
 Alpha virt. eigenvalues --    1.41885   1.42460   1.43406   1.44968   1.45840
 Alpha virt. eigenvalues --    1.46195   1.47828   1.48939   1.50005   1.50965
 Alpha virt. eigenvalues --    1.52291   1.52713   1.54612   1.55263   1.56127
 Alpha virt. eigenvalues --    1.56294   1.58178   1.61184   1.63046   1.63775
 Alpha virt. eigenvalues --    1.65143   1.65454   1.66597   1.67899   1.69504
 Alpha virt. eigenvalues --    1.70231   1.72215   1.72737   1.74543   1.77090
 Alpha virt. eigenvalues --    1.78885   1.79702   1.80872   1.82240   1.83726
 Alpha virt. eigenvalues --    1.84539   1.86470   1.87472   1.90424   1.90760
 Alpha virt. eigenvalues --    1.92796   1.93805   1.96635   1.97935   1.99719
 Alpha virt. eigenvalues --    2.01669   2.03472   2.05765   2.06531   2.07663
 Alpha virt. eigenvalues --    2.13432   2.15260   2.16767   2.17510   2.21774
 Alpha virt. eigenvalues --    2.24891   2.27342   2.28689   2.30304   2.30511
 Alpha virt. eigenvalues --    2.32641   2.35056   2.35428   2.36255   2.40030
 Alpha virt. eigenvalues --    2.42831   2.43252   2.45424   2.46690   2.48145
 Alpha virt. eigenvalues --    2.51977   2.52637   2.54712   2.57052   2.59025
 Alpha virt. eigenvalues --    2.60494   2.61920   2.67142   2.68417   2.70047
 Alpha virt. eigenvalues --    2.72288   2.75031   2.77393   2.78476   2.80690
 Alpha virt. eigenvalues --    2.82519   2.82807   2.84005   2.84671   2.86056
 Alpha virt. eigenvalues --    2.88915   2.89396   2.91427   2.91754   2.93384
 Alpha virt. eigenvalues --    2.95407   2.95948   2.96857   2.98613   2.99324
 Alpha virt. eigenvalues --    3.01129   3.02898   3.05185   3.05691   3.07061
 Alpha virt. eigenvalues --    3.08420   3.09297   3.11378   3.12044   3.13319
 Alpha virt. eigenvalues --    3.14527   3.15035   3.17862   3.18226   3.19473
 Alpha virt. eigenvalues --    3.21607   3.22083   3.23321   3.24398   3.25252
 Alpha virt. eigenvalues --    3.26535   3.27186   3.27920   3.28844   3.30596
 Alpha virt. eigenvalues --    3.32098   3.33183   3.34554   3.34825   3.36873
 Alpha virt. eigenvalues --    3.37359   3.38632   3.39801   3.40216   3.42516
 Alpha virt. eigenvalues --    3.43280   3.44250   3.46136   3.48348   3.50293
 Alpha virt. eigenvalues --    3.51919   3.53746   3.54254   3.56918   3.58910
 Alpha virt. eigenvalues --    3.60515   3.62308   3.66071   3.66750   3.67045
 Alpha virt. eigenvalues --    3.69599   3.72644   3.73352   3.75113   3.75594
 Alpha virt. eigenvalues --    3.78598   3.79984   3.83032   3.85807   3.86882
 Alpha virt. eigenvalues --    3.89444   3.92154   3.93420   3.95799   3.98535
 Alpha virt. eigenvalues --    3.98932   4.02216   4.03169   4.06637   4.09195
 Alpha virt. eigenvalues --    4.10115   4.11580   4.14641   4.16943   4.18009
 Alpha virt. eigenvalues --    4.20096   4.22687   4.23517   4.25342   4.26073
 Alpha virt. eigenvalues --    4.28516   4.29369   4.31216   4.33625   4.34141
 Alpha virt. eigenvalues --    4.35735   4.36991   4.40704   4.41662   4.42913
 Alpha virt. eigenvalues --    4.43544   4.44360   4.46095   4.46750   4.47661
 Alpha virt. eigenvalues --    4.50548   4.51456   4.52977   4.54775   4.55835
 Alpha virt. eigenvalues --    4.56606   4.58701   4.60001   4.61514   4.62026
 Alpha virt. eigenvalues --    4.63183   4.63665   4.64255   4.65155   4.68121
 Alpha virt. eigenvalues --    4.68276   4.68849   4.71302   4.74922   4.75107
 Alpha virt. eigenvalues --    4.76102   4.77133   4.79359   4.80114   4.82065
 Alpha virt. eigenvalues --    4.82897   4.85543   4.86522   4.88602   4.89369
 Alpha virt. eigenvalues --    4.90429   4.92844   4.94373   4.95700   4.96454
 Alpha virt. eigenvalues --    5.00006   5.02293   5.03532   5.04219   5.06676
 Alpha virt. eigenvalues --    5.09727   5.12211   5.14153   5.15392   5.18926
 Alpha virt. eigenvalues --    5.20415   5.21566   5.25443   5.26788   5.31112
 Alpha virt. eigenvalues --    5.31809   5.33100   5.37544   5.39765   5.41562
 Alpha virt. eigenvalues --    5.42721   5.46569   5.48865   5.51949   5.54374
 Alpha virt. eigenvalues --    5.57486   5.61333   5.64139   5.66289   5.74842
 Alpha virt. eigenvalues --    5.86889   5.91947   6.00157   6.08731   6.25140
 Alpha virt. eigenvalues --    6.42151   6.60669   6.84043  10.25570  10.34616
 Alpha virt. eigenvalues --   10.64230  10.75747  11.06328  11.34589  11.36683
 Alpha virt. eigenvalues --   11.50857  11.66332  11.84600  11.93060  12.12321
 Alpha virt. eigenvalues --   12.50134  13.09097  16.54550
          Condensed to atoms (all electrons):
               1          2          3          4          5          6
     1  O    7.702964   0.674747  -0.075204   0.007801   0.000200  -0.000008
     2  C    0.674747   4.525136   0.343869  -0.008105  -0.028660   0.001524
     3  C   -0.075204   0.343869   5.127212   0.471419   0.002120  -0.002412
     4  C    0.007801  -0.008105   0.471419   4.936080   0.415099  -0.025785
     5  C    0.000200  -0.028660   0.002120   0.415099   4.768502   0.536398
     6  C   -0.000008   0.001524  -0.002412  -0.025785   0.536398   4.969609
     7  C   -0.000000  -0.000020  -0.000242   0.003432  -0.018504   0.425725
     8  N   -0.000000  -0.000001   0.000004  -0.000167  -0.002432  -0.008618
     9  C    0.000000  -0.000001  -0.000000   0.000002  -0.000433   0.009737
    10  C    0.000000   0.000000  -0.000001   0.000005   0.000722  -0.001012
    11  C    0.000000  -0.000203   0.000015   0.000033  -0.000468  -0.002772
    12  C    0.000433  -0.009571   0.001778  -0.000880  -0.006808   0.002547
    13  C   -0.025575   0.317064  -0.061172  -0.000133   0.005375   0.001915
    14  C   -0.009198  -0.015219  -0.000762   0.001723  -0.013794  -0.001724
    15  S   -0.001711  -0.006749  -0.002596  -0.048476   0.288503  -0.041743
    16  H   -0.001665  -0.028262   0.361182  -0.037875   0.004628  -0.000022
    17  H   -0.000112   0.004469  -0.037063   0.365807  -0.057421  -0.005732
    18  H   -0.000000   0.000008   0.000842  -0.009065  -0.037093   0.366611
    19  H   -0.000000   0.000005  -0.000005   0.000556  -0.001766  -0.059551
    20  H    0.000000  -0.000000   0.000000   0.000000   0.000243  -0.000134
    21  H   -0.000000  -0.000000   0.000000   0.000000   0.000011   0.000109
    22  H    0.000000  -0.000006   0.000000   0.000000   0.000014   0.000078
    23  H   -0.000057   0.001808  -0.000077  -0.000003   0.000568   0.000184
    24  H    0.000254   0.003419  -0.000625  -0.000064   0.001691   0.000101
               7          8          9         10         11         12
     1  O   -0.000000  -0.000000   0.000000   0.000000   0.000000   0.000433
     2  C   -0.000020  -0.000001  -0.000001   0.000000  -0.000203  -0.009571
     3  C   -0.000242   0.000004  -0.000000  -0.000001   0.000015   0.001778
     4  C    0.003432  -0.000167   0.000002   0.000005   0.000033  -0.000880
     5  C   -0.018504  -0.002432  -0.000433   0.000722  -0.000468  -0.006808
     6  C    0.425725  -0.008618   0.009737  -0.001012  -0.002772   0.002547
     7  C    4.830332   0.617624  -0.164833  -0.048377   0.001523   0.003834
     8  N    0.617624   6.425980   0.389173  -0.090845   0.003646   0.001210
     9  C   -0.164833   0.389173   5.043764   0.559598  -0.032713  -0.005825
    10  C   -0.048377  -0.090845   0.559598   5.201495   0.360039  -0.020565
    11  C    0.001523   0.003646  -0.032713   0.360039   5.034655   0.540911
    12  C    0.003834   0.001210  -0.005825  -0.020565   0.540911   5.014438
    13  C   -0.000442   0.000014   0.000021  -0.000333  -0.012465   0.290337
    14  C    0.000214  -0.000000  -0.000012   0.000078  -0.002119  -0.015816
    15  S   -0.019579   0.001259  -0.000534  -0.000048   0.004182  -0.006492
    16  H    0.000004  -0.000000   0.000000   0.000000  -0.000000  -0.000014
    17  H    0.000043  -0.000000   0.000002   0.000001  -0.000002   0.000022
    18  H   -0.034209  -0.000955   0.000132   0.000420   0.000055  -0.000276
    19  H    0.379958  -0.074786  -0.010988   0.002077   0.003449  -0.003313
    20  H   -0.000839  -0.083458   0.352410  -0.083405  -0.009488  -0.001319
    21  H   -0.001605  -0.006410  -0.059833   0.338002  -0.033611  -0.001226
    22  H   -0.000245   0.000928   0.001641  -0.061661   0.352601  -0.034444
    23  H    0.000420  -0.000024  -0.000038   0.002150  -0.036423   0.347385
    24  H   -0.000078  -0.000003   0.000002   0.000013  -0.000280   0.006084
              13         14         15         16         17         18
     1  O   -0.025575  -0.009198  -0.001711  -0.001665  -0.000112  -0.000000
     2  C    0.317064  -0.015219  -0.006749  -0.028262   0.004469   0.000008
     3  C   -0.061172  -0.000762  -0.002596   0.361182  -0.037063   0.000842
     4  C   -0.000133   0.001723  -0.048476  -0.037875   0.365807  -0.009065
     5  C    0.005375  -0.013794   0.288503   0.004628  -0.057421  -0.037093
     6  C    0.001915  -0.001724  -0.041743  -0.000022  -0.005732   0.366611
     7  C   -0.000442   0.000214  -0.019579   0.000004   0.000043  -0.034209
     8  N    0.000014  -0.000000   0.001259  -0.000000  -0.000000  -0.000955
     9  C    0.000021  -0.000012  -0.000534   0.000000   0.000002   0.000132
    10  C   -0.000333   0.000078  -0.000048   0.000000   0.000001   0.000420
    11  C   -0.012465  -0.002119   0.004182  -0.000000  -0.000002   0.000055
    12  C    0.290337  -0.015816  -0.006492  -0.000014   0.000022  -0.000276
    13  C    5.304445   0.515998  -0.091819   0.002204   0.000059  -0.000123
    14  C    0.515998   4.987573   0.261101  -0.000154  -0.000083  -0.000064
    15  S   -0.091819   0.261101  15.789242  -0.000823   0.004879   0.005713
    16  H    0.002204  -0.000154  -0.000823   0.583116  -0.006392  -0.000034
    17  H    0.000059  -0.000083   0.004879  -0.006392   0.613327   0.001816
    18  H   -0.000123  -0.000064   0.005713  -0.000034   0.001816   0.564775
    19  H   -0.000434   0.000549   0.003539   0.000000  -0.000014   0.004853
    20  H   -0.000010  -0.000001  -0.000203  -0.000000   0.000000   0.000037
    21  H   -0.000001  -0.000001  -0.000001  -0.000000   0.000000   0.000067
    22  H    0.001392  -0.000037  -0.000028  -0.000000   0.000000   0.000006
    23  H   -0.056992  -0.000578  -0.001180   0.000001   0.000000  -0.000004
    24  H   -0.068904   0.346495  -0.074567   0.000011   0.000001   0.000003
              19         20         21         22         23         24
     1  O   -0.000000   0.000000  -0.000000   0.000000  -0.000057   0.000254
     2  C    0.000005  -0.000000  -0.000000  -0.000006   0.001808   0.003419
     3  C   -0.000005   0.000000   0.000000   0.000000  -0.000077  -0.000625
     4  C    0.000556   0.000000   0.000000   0.000000  -0.000003  -0.000064
     5  C   -0.001766   0.000243   0.000011   0.000014   0.000568   0.001691
     6  C   -0.059551  -0.000134   0.000109   0.000078   0.000184   0.000101
     7  C    0.379958  -0.000839  -0.001605  -0.000245   0.000420  -0.000078
     8  N   -0.074786  -0.083458  -0.006410   0.000928  -0.000024  -0.000003
     9  C   -0.010988   0.352410  -0.059833   0.001641  -0.000038   0.000002
    10  C    0.002077  -0.083405   0.338002  -0.061661   0.002150   0.000013
    11  C    0.003449  -0.009488  -0.033611   0.352601  -0.036423  -0.000280
    12  C   -0.003313  -0.001319  -0.001226  -0.034444   0.347385   0.006084
    13  C   -0.000434  -0.000010  -0.000001   0.001392  -0.056992  -0.068904
    14  C    0.000549  -0.000001  -0.000001  -0.000037  -0.000578   0.346495
    15  S    0.003539  -0.000203  -0.000001  -0.000028  -0.001180  -0.074567
    16  H    0.000000  -0.000000  -0.000000  -0.000000   0.000001   0.000011
    17  H   -0.000014   0.000000   0.000000   0.000000   0.000000   0.000001
    18  H    0.004853   0.000037   0.000067   0.000006  -0.000004   0.000003
    19  H    0.602431   0.020182   0.000765   0.001159   0.000153   0.000197
    20  H    0.020182   0.707495   0.013020   0.001785  -0.000014   0.000000
    21  H    0.000765   0.013020   0.615393   0.003790  -0.000036  -0.000000
    22  H    0.001159   0.001785   0.003790   0.581503  -0.010603  -0.000070
    23  H    0.000153  -0.000014  -0.000036  -0.010603   0.581159   0.005986
    24  H    0.000197   0.000000  -0.000000  -0.000070   0.005986   0.667082
 Mulliken charges:
               1
     1  O   -0.272866
     2  C    0.224749
     3  C   -0.128285
     4  C   -0.071406
     5  C    0.143307
     6  C   -0.165027
     7  C    0.025864
     8  N   -0.172140
     9  C   -0.081272
    10  C   -0.158354
    11  C   -0.170567
    12  C   -0.102430
    13  C   -0.120420
    14  C   -0.054168
    15  S   -0.061869
    16  H    0.124095
    17  H    0.116389
    18  H    0.136484
    19  H    0.130985
    20  H    0.083699
    21  H    0.131566
    22  H    0.162198
    23  H    0.166217
    24  H    0.113253
 Sum of Mulliken charges =  -0.00000
 Mulliken charges with hydrogens summed into heavy atoms:
               1
     1  O   -0.272866
     2  C    0.224749
     3  C   -0.004190
     4  C    0.044983
     5  C    0.143307
     6  C   -0.028543
     7  C    0.156849
     8  N   -0.172140
     9  C    0.002427
    10  C   -0.026789
    11  C   -0.008369
    12  C    0.063786
    13  C   -0.120420
    14  C    0.059085
    15  S   -0.061869
 Electronic spatial extent (au):  <R**2>=           3156.6260
 Charge=             -0.0000 electrons
 Dipole moment (field-independent basis, Debye):
    X=              1.7737    Y=             -0.3143    Z=             -0.0168  Tot=              1.8014
 Quadrupole moment (field-independent basis, Debye-Ang):
   XX=           -103.1912   YY=            -90.0691   ZZ=            -92.8805
   XY=             10.2806   XZ=              1.5875   YZ=              4.8145
 Traceless Quadrupole moment (field-independent basis, Debye-Ang):
   XX=             -7.8109   YY=              5.3112   ZZ=              2.4998
   XY=             10.2806   XZ=              1.5875   YZ=              4.8145
 Octapole moment (field-independent basis, Debye-Ang**2):
  XXX=             32.6182  YYY=              1.4534  ZZZ=              1.8223  XYY=            -11.1767
  XXY=            -11.9885  XXZ=             -1.6563  XZZ=             -5.3134  YZZ=             -2.4025
  YYZ=              0.8409  XYZ=             -9.3371
 Hexadecapole moment (field-independent basis, Debye-Ang**3):
 XXXX=          -3052.9786 YYYY=           -846.0312 ZZZZ=           -500.9223 XXXY=            123.8067
 XXXZ=             -6.2480 YYYX=             24.2251 YYYZ=             24.0541 ZZZX=             11.9303
 ZZZY=             17.0952 XXYY=           -662.1807 XXZZ=           -556.1675 YYZZ=           -226.8764
 XXYZ=             17.7899 YYXZ=             12.2382 ZZXY=            -13.9553
 N-N= 1.025417724887D+03 E-N=-4.372306014445D+03  KE= 9.843330848166D+02
 PrsmSu:  requested number of processors reduced to:  13 ShMem   1 Linda.
 Calling FoFJK, ICntrl=      2127 FMM=F ISym2X=0 I1Cent= 0 IOpClX= 0 NMat=1 NMatS=1 NMatT=0.
 ***** Axes restored to original set *****
 -------------------------------------------------------------------
 Center     Atomic                   Forces (Hartrees/Bohr)
 Number     Number              X              Y              Z
 -------------------------------------------------------------------
      1        8           0.042539250    0.020460174   -0.027847866
      2        6          -0.036617823   -0.034135166    0.009991913
      3        6          -0.060094945    0.026187895   -0.019471558
      4        6           0.051179275   -0.046652056    0.017084377
      5        6          -0.030141143   -0.001541076    0.007143291
      6        6           0.059300770    0.004924604    0.011376775
      7        6          -0.003403884   -0.011819031    0.008671810
      8        7           0.006478820   -0.024868066   -0.028786037
      9        6           0.002318143    0.049339439    0.079721953
     10        6          -0.031600932   -0.025380453   -0.065370075
     11        6           0.006457787    0.035475959    0.005477259
     12        6           0.020740349    0.033976482   -0.030704274
     13        6          -0.017799632   -0.056480518   -0.016090998
     14        6           0.059421110    0.037143229    0.007344917
     15       16          -0.024650066   -0.007688445    0.014352181
     16        1           0.010368461    0.016468514   -0.013475574
     17        1          -0.000423215    0.002815182    0.007072131
     18        1          -0.001911684   -0.000852916    0.012066300
     19        1           0.002263465   -0.015378537    0.002977361
     20        1          -0.000300939   -0.002373865    0.020031240
     21        1          -0.050709765    0.000659966   -0.013084269
     22        1          -0.041977103    0.003767324    0.002107347
     23        1           0.024116721   -0.003531297   -0.001984767
     24        1           0.014446982   -0.000517342    0.011396561
 -------------------------------------------------------------------
 Cartesian Forces:  Max     0.079721953 RMS     0.028082152

 GradGradGradGradGradGradGradGradGradGradGradGradGradGradGradGradGradGrad
 Berny optimization.
 FormGI is forming the generalized inverse of G from B-inverse, IUseBI=4.
 Internal  Forces:  Max     0.093626993 RMS     0.024921928
 Search for a local minimum.
 Step number   1 out of a maximum of  125
 All quantities printed in internal units (Hartrees-Bohrs-Radians)
 Mixed Optimization -- RFO/linear search
 Second derivative matrix not updated -- first step.
 ITU=  0
     Eigenvalues ---    0.00350   0.00467   0.00607   0.00645   0.00736
     Eigenvalues ---    0.00831   0.01392   0.01704   0.01893   0.01988
     Eigenvalues ---    0.02145   0.02211   0.02295   0.02752   0.02860
     Eigenvalues ---    0.03064   0.03407   0.03790   0.04420   0.05926
     Eigenvalues ---    0.08365   0.10644   0.11537   0.14298   0.15142
     Eigenvalues ---    0.15496   0.15688   0.15782   0.15945   0.15969
     Eigenvalues ---    0.15977   0.15998   0.16076   0.17677   0.18106
     Eigenvalues ---    0.18800   0.20220   0.20960   0.21490   0.22128
     Eigenvalues ---    0.22342   0.23541   0.23702   0.24026   0.24318
     Eigenvalues ---    0.24691   0.30661   0.30977   0.31315   0.32074
     Eigenvalues ---    0.32706   0.32883   0.32948   0.34273   0.34388
     Eigenvalues ---    0.34434   0.34446   0.37394   0.38601   0.49240
     Eigenvalues ---    0.51850   0.55737   0.60810   0.69120   0.72221
     Eigenvalues ---    0.92458
 RFO step:  Lambda=-1.88668349D-01 EMin= 3.50341589D-03
 Linear search not attempted -- first point.
 Maximum step size (   0.300) exceeded in Quadratic search.
    -- Step size scaled by   0.597
 Iteration  1 RMS(Cart)=  0.10552451 RMS(Int)=  0.00262615
 Iteration  2 RMS(Cart)=  0.00414141 RMS(Int)=  0.00080920
 Iteration  3 RMS(Cart)=  0.00000463 RMS(Int)=  0.00080919
 Iteration  4 RMS(Cart)=  0.00000000 RMS(Int)=  0.00080919
 Variable       Old X    -DE/DX   Delta X   Delta X   Delta X     New X
                                 (Linear)    (Quad)   (Total)
    R1        2.31821  -0.03435   0.00000  -0.01842  -0.01842   2.29978
    R2        2.85034  -0.00193   0.00000   0.00068   0.00068   2.85101
    R3        3.33527  -0.01298   0.00000  -0.02245  -0.02267   3.31260
    R4        2.40489   0.07750   0.00000   0.05012   0.05038   2.45527
    R5        2.10708  -0.01965   0.00000  -0.02303  -0.02303   2.08406
    R6        2.73472   0.01282   0.00000   0.01147   0.01176   2.74648
    R7        2.06604  -0.00198   0.00000  -0.00221  -0.00221   2.06383
    R8        2.49096   0.02167   0.00000   0.01970   0.02028   2.51124
    R9        3.44589   0.00466   0.00000   0.00132   0.00150   3.44739
   R10        2.72832  -0.02212   0.00000  -0.01975  -0.01915   2.70917
   R11        2.06872  -0.00748   0.00000  -0.00840  -0.00840   2.06032
   R12        2.43450  -0.01506   0.00000  -0.00664  -0.00600   2.42850
   R13        2.09570  -0.01366   0.00000  -0.01581  -0.01581   2.07989
   R14        2.60035   0.02310   0.00000   0.02182   0.02211   2.62247
   R15        2.53713   0.09163   0.00000   0.07249   0.07218   2.60932
   R16        2.06584   0.01248   0.00000   0.01397   0.01397   2.07981
   R17        3.20749  -0.03836   0.00000  -0.06916  -0.06981   3.13768
   R18        2.12757  -0.01398   0.00000  -0.01675  -0.01675   2.11083
   R19        2.81539  -0.09363   0.00000  -0.11250  -0.11319   2.70221
   R20        2.12116  -0.01799   0.00000  -0.02140  -0.02140   2.09976
   R21        3.33101  -0.02857   0.00000  -0.05833  -0.05896   3.27205
   R22        2.09142  -0.01076   0.00000  -0.01240  -0.01240   2.07903
   R23        2.55347   0.04500   0.00000   0.03925   0.03910   2.59257
   R24        3.42723   0.00722   0.00000   0.01109   0.01121   3.43843
   R25        2.06680   0.00499   0.00000   0.00559   0.00559   2.07239
    A1        1.94487   0.02984   0.00000   0.03864   0.03889   1.98376
    A2        2.15596  -0.05720   0.00000  -0.08375  -0.08360   2.07236
    A3        2.16433   0.02788   0.00000   0.04741   0.04693   2.21126
    A4        2.05088   0.00877   0.00000   0.02575   0.02567   2.07655
    A5        2.12549  -0.01571   0.00000  -0.03269  -0.03274   2.09275
    A6        2.10598   0.00659   0.00000   0.00614   0.00608   2.11206
    A7        2.14854  -0.02442   0.00000  -0.02740  -0.02717   2.12138
    A8        2.11284   0.01296   0.00000   0.01506   0.01495   2.12779
    A9        2.02167   0.01148   0.00000   0.01238   0.01226   2.03393
   A10        2.01446   0.01567   0.00000   0.02177   0.02171   2.03616
   A11        2.03816   0.01194   0.00000   0.01052   0.01091   2.04908
   A12        2.23054  -0.02770   0.00000  -0.03252  -0.03351   2.19704
   A13        2.03075   0.01094   0.00000   0.01989   0.01916   2.04991
   A14        2.18978  -0.01189   0.00000  -0.02158  -0.02229   2.16749
   A15        2.06045  -0.00081   0.00000  -0.00280  -0.00350   2.05695
   A16        2.17073   0.00364   0.00000   0.01026   0.01045   2.18118
   A17        2.00886  -0.00232   0.00000  -0.00751  -0.00800   2.00086
   A18        2.08447  -0.00532   0.00000  -0.01228  -0.01292   2.07155
   A19        1.85948  -0.01498   0.00000  -0.01612  -0.01539   1.84410
   A20        1.84574   0.02650   0.00000   0.04904   0.04821   1.89395
   A21        2.04847   0.00084   0.00000   0.00563   0.00270   2.05116
   A22        1.99783   0.00892   0.00000   0.03256   0.03080   2.02862
   A23        2.07030   0.00637   0.00000   0.01083   0.01030   2.08060
   A24        1.77030   0.03602   0.00000   0.06837   0.06918   1.83948
   A25        2.34310  -0.04007   0.00000  -0.07215  -0.07233   2.27076
   A26        2.71710  -0.02409   0.00000  -0.05224  -0.05369   2.66341
   A27        1.49325   0.04999   0.00000   0.09099   0.09172   1.58497
   A28        2.03444  -0.02713   0.00000  -0.04057  -0.03967   1.99478
   A29        2.84054   0.00196   0.00000  -0.01423  -0.01552   2.82502
   A30        1.92230  -0.02342   0.00000  -0.03166  -0.03104   1.89126
   A31        1.51310   0.02147   0.00000   0.04548   0.04612   1.55922
   A32        2.73331   0.02309   0.00000   0.02976   0.02939   2.76270
   A33        1.57967   0.01004   0.00000   0.02548   0.02397   1.60364
   A34        1.84760  -0.02704   0.00000  -0.04349  -0.04199   1.80561
   A35        1.92660   0.02437   0.00000   0.05746   0.05545   1.98205
   A36        2.03608   0.00886   0.00000   0.02200   0.02172   2.05780
   A37        1.98674  -0.00381   0.00000  -0.00702  -0.00881   1.97793
   A38        1.71787   0.01587   0.00000   0.02824   0.02756   1.74543
    D1       -2.78262   0.02235   0.00000   0.04354   0.04324  -2.73938
    D2        0.31511   0.01342   0.00000   0.02306   0.02286   0.33797
    D3        0.16189   0.01829   0.00000   0.04587   0.04611   0.20801
    D4       -3.02356   0.00936   0.00000   0.02539   0.02574  -2.99783
    D5       -2.66440   0.02331   0.00000   0.06526   0.06523  -2.59916
    D6        1.26014   0.02927   0.00000   0.06141   0.06093   1.32107
    D7        0.69762   0.01675   0.00000   0.04682   0.04779   0.74541
    D8       -1.66102   0.02271   0.00000   0.04297   0.04349  -1.61753
    D9        0.21694  -0.00350   0.00000  -0.01648  -0.01679   0.20016
   D10       -2.90672  -0.00570   0.00000  -0.01950  -0.01976  -2.92648
   D11       -2.88130   0.00591   0.00000   0.00479   0.00484  -2.87646
   D12        0.27822   0.00372   0.00000   0.00178   0.00187   0.28009
   D13       -2.25397   0.01068   0.00000   0.02452   0.02483  -2.22914
   D14        0.88133  -0.00358   0.00000  -0.01146  -0.01184   0.86948
   D15        0.87056   0.01281   0.00000   0.02744   0.02770   0.89826
   D16       -2.27733  -0.00145   0.00000  -0.00854  -0.00897  -2.28630
   D17       -3.06769  -0.03525   0.00000  -0.09131  -0.08979   3.12571
   D18        0.14701  -0.00623   0.00000  -0.01725  -0.01701   0.13000
   D19        0.08102  -0.01933   0.00000  -0.05088  -0.04982   0.03120
   D20       -2.98747   0.00969   0.00000   0.02318   0.02296  -2.96451
   D21       -1.40134  -0.00295   0.00000  -0.00987  -0.00835  -1.40969
   D22        1.73305  -0.01904   0.00000  -0.05074  -0.04855   1.68450
   D23        2.93403   0.04829   0.00000   0.12263   0.12200   3.05603
   D24       -0.41849   0.02580   0.00000   0.06907   0.06923  -0.34926
   D25       -0.27502   0.02098   0.00000   0.05337   0.05303  -0.22199
   D26        2.65564  -0.00151   0.00000  -0.00019   0.00026   2.65590
   D27        2.57588  -0.01495   0.00000  -0.03619  -0.03472   2.54116
   D28       -0.34626   0.00805   0.00000   0.01884   0.01931  -0.32695
   D29       -1.30231  -0.01570   0.00000  -0.06002  -0.06041  -1.36272
   D30        0.95081   0.02096   0.00000   0.03301   0.03283   0.98364
   D31        1.27771   0.04142   0.00000   0.10508   0.10623   1.38394
   D32       -1.46454   0.04786   0.00000   0.11122   0.11100  -1.35354
   D33       -1.00481   0.01110   0.00000   0.03124   0.03087  -0.97394
   D34        2.53613   0.01754   0.00000   0.03738   0.03564   2.57177
   D35       -0.81973  -0.01604   0.00000  -0.04831  -0.04762  -0.86735
   D36        1.91205  -0.01369   0.00000  -0.03698  -0.03681   1.87524
   D37        1.76085   0.00347   0.00000  -0.00461  -0.00518   1.75568
   D38       -1.79055   0.00583   0.00000   0.00672   0.00563  -1.78492
   D39        0.01708  -0.00220   0.00000  -0.01080  -0.01078   0.00631
   D40        2.93010  -0.00186   0.00000  -0.01097  -0.01083   2.91927
   D41       -2.66431  -0.00969   0.00000  -0.03028  -0.03069  -2.69500
   D42        0.24871  -0.00934   0.00000  -0.03045  -0.03074   0.21797
   D43       -0.81494  -0.00245   0.00000  -0.01532  -0.01484  -0.82979
   D44        1.50355  -0.00054   0.00000   0.00242   0.00194   1.50549
   D45        2.54139  -0.00117   0.00000  -0.01320  -0.01277   2.52862
   D46       -1.42331   0.00074   0.00000   0.00454   0.00401  -1.41929
   D47        1.43849  -0.03487   0.00000  -0.09469  -0.09622   1.34227
   D48       -2.54117  -0.00742   0.00000  -0.02605  -0.02547  -2.56664
   D49       -1.40768  -0.05162   0.00000  -0.12057  -0.12124  -1.52893
   D50        0.89584  -0.02417   0.00000  -0.05193  -0.05049   0.84535
   D51       -0.17393   0.02080   0.00000   0.05908   0.06139  -0.11254
   D52       -2.50267  -0.01178   0.00000  -0.02113  -0.01980  -2.52246
         Item               Value     Threshold  Converged?
 Maximum Force            0.093627     0.000450     NO 
 RMS     Force            0.024922     0.000300     NO 
 Maximum Displacement     0.348081     0.001800     NO 
 RMS     Displacement     0.105604     0.001200     NO 
 Predicted change in Energy=-9.918754D-02
 GradGradGradGradGradGradGradGradGradGradGradGradGradGradGradGradGradGrad

                          Input orientation:                          
 ---------------------------------------------------------------------
 Center     Atomic      Atomic             Coordinates (Angstroms)
 Number     Number       Type             X           Y           Z
 ---------------------------------------------------------------------
      1          8           0        2.081733    0.777288   -0.552491
      2          6           0        3.133602    0.189619   -0.723630
      3          6           0        3.113602   -1.240152   -0.242486
      4          6           0        4.237848   -1.820796    0.052534
      5          6           0        5.475412   -1.067508    0.167814
      6          6           0        6.509896   -1.508082   -0.540482
      7          6           0        7.733529   -0.765996   -0.454879
      8          7           0        8.843387   -1.109673   -1.004061
      9          6           0        9.460143    0.076422   -1.376401
     10          6           0        8.864708    0.535505   -2.534539
     11          6           0        7.407627    1.325772   -2.438205
     12          6           0        6.054376    1.443601   -1.991471
     13          6           0        4.541979    1.108983   -1.217671
     14          6           0        4.711412    1.614604    0.046383
     15         16           0        5.453285    0.429236    1.210535
     16          1           0        2.150579   -1.754996   -0.088320
     17          1           0        4.306124   -2.898904    0.213077
     18          1           0        6.451586   -2.311273   -1.275456
     19          1           0        7.618588    0.268924   -0.098346
     20          1           0        9.637331    0.826102   -0.590346
     21          1           0        9.290603   -0.091008   -3.355384
     22          1           0        7.900876    2.295713   -2.663062
     23          1           0        5.715757    2.473341   -2.179505
     24          1           0        5.115725    2.629400    0.143283
 ---------------------------------------------------------------------
                    Distance matrix (angstroms):
                    1          2          3          4          5
     1  O    0.000000
     2  C    1.216994   0.000000
     3  C    2.287121   1.508690   0.000000
     4  C    3.430004   2.421478   1.299273   0.000000
     5  C    3.929271   2.803411   2.403393   1.453375   0.000000
     6  C    4.983140   3.783529   3.419853   2.368894   1.328889
     7  C    5.859526   4.705821   4.649049   3.686442   2.361725
     8  N    7.034522   5.862460   5.781648   4.778397   3.566276
     9  C    7.457277   6.361135   6.580100   5.737043   4.423941
    10  C    7.070765   6.020349   6.440627   5.801115   4.621654
    11  C    5.676433   4.743194   5.462948   5.113919   4.031449
    12  C    4.277444   3.422106   4.348520   4.258405   3.362050
    13  C    2.570078   1.752950   2.917137   3.207729   2.743717
    14  C    2.823997   2.261191   3.284216   3.467892   2.791445
    15  S    3.820571   3.029742   3.220596   2.807294   1.824280
    16  H    2.575395   2.269687   1.102835   2.093050   3.404814
    17  H    4.364447   3.433832   2.093108   1.092132   2.173314
    18  H    5.399769   4.191418   3.654650   2.627691   2.140770
    19  H    5.578659   4.529057   4.753207   3.977323   2.539703
    20  H    7.555850   6.536158   6.851967   6.047626   4.634882
    21  H    7.783184   6.701756   7.011848   6.335330   5.284142
    22  H    6.373582   5.560929   6.424915   6.143117   5.020756
    23  H    4.327805   3.741989   4.930850   5.060220   4.255030
    24  H    3.622089   3.260810   4.373871   4.536866   3.714446
                    6          7          8          9         10
     6  C    0.000000
     7  C    1.433631   0.000000
     8  N    2.412222   1.285107   0.000000
     9  C    3.451576   2.130744   1.387749   0.000000
    10  C    3.701034   2.701565   2.247093   1.380791   0.000000
    11  C    3.526755   2.900912   3.170105   2.627000   1.660388
    12  C    3.320437   3.172221   3.908039   3.721121   3.002920
    13  C    3.343698   3.779337   4.844602   5.027894   4.555107
    14  C    3.651044   3.879653   5.059479   5.190449   5.007542
    15  S    2.817035   3.066219   4.331913   4.782429   5.067019
    16  H    4.389653   5.681709   6.785919   7.644800   7.503993
    17  H    2.712720   4.091768   5.026881   6.159783   6.334449
    18  H    1.090276   2.169010   2.690392   3.842225   3.938603
    19  H    2.140662   1.100631   2.054503   2.249847   2.749349
    20  H    3.902788   2.485476   2.132775   1.100589   2.112174
    21  H    4.202869   3.360508   2.601230   1.993276   1.117001
    22  H    4.572640   3.778643   3.903494   3.002010   2.010926
    23  H    4.378217   4.187964   4.899155   4.517812   3.714451
    24  H    4.419277   4.328904   5.403011   5.263184   5.060632
                   11         12         13         14         15
    11  C    0.000000
    12  C    1.429945   0.000000
    13  C    3.122280   1.731495   0.000000
    14  C    3.677795   2.446557   1.371930   0.000000
    15  S    4.235155   3.412197   2.681179   1.819539   0.000000
    16  H    6.530669   5.393759   3.898283   4.234408   4.167224
    17  H    5.873373   5.174337   4.262139   4.534732   3.658881
    18  H    3.936254   3.843115   3.917664   4.493103   3.832381
    19  H    2.576116   2.722232   3.379957   3.206785   2.535233
    20  H    2.938679   3.896412   5.141611   5.029099   4.572408
    21  H    2.528653   3.832552   5.344083   5.954000   5.986926
    22  H    1.111145   2.141657   3.844434   4.240010   4.947646
    23  H    2.060646   1.100174   2.040673   2.588573   3.967320
    24  H    3.690033   2.616172   2.119681   1.096663   2.468542
                   16         17         18         19         20
    16  H    0.000000
    17  H    2.458808   0.000000
    18  H    4.496376   2.676574   0.000000
    19  H    5.830563   4.593967   3.066741   0.000000
    20  H    7.935083   6.553085   4.523435   2.151241   0.000000
    21  H    8.026363   6.742643   4.161213   3.678789   2.933725
    22  H    7.490224   6.941071   5.024960   3.281057   3.077529
    23  H    5.912899   6.047522   4.924559   3.579307   4.540657
    24  H    5.297986   5.587707   5.311083   3.448848   4.922908
                   21         22         23         24
    21  H    0.000000
    22  H    2.847295   0.000000
    23  H    4.553911   2.245022   0.000000
    24  H    6.088588   3.967869   2.404108   0.000000
 Stoichiometry    C12H9NOS
 Framework group  C1[X(C12H9NOS)]
 Deg. of freedom    66
 Full point group                 C1      NOp   1
 Largest Abelian subgroup         C1      NOp   1
 Largest concise Abelian subgroup C1      NOp   1
                         Standard orientation:                         
 ---------------------------------------------------------------------
 Center     Atomic      Atomic             Coordinates (Angstroms)
 Number     Number       Type             X           Y           Z
 ---------------------------------------------------------------------
      1          8           0       -3.600772    1.143431   -0.451033
      2          6           0       -2.550249    0.559190   -0.641129
      3          6           0       -2.720450   -0.907961   -0.948773
      4          6           0       -1.727822   -1.716691   -0.727960
      5          6           0       -0.559037   -1.297502    0.027369
      6          6           0        0.623776   -1.497817   -0.544270
      7          6           0        1.787135   -1.072320    0.177427
      8          7           0        3.000191   -1.274526   -0.195543
      9          6           0        3.711236   -0.157994    0.221132
     10          6           0        3.461784    0.874909   -0.660608
     11          6           0        2.044768    1.729952   -0.526979
     12          6           0        0.622635    1.819815   -0.407797
     13          6           0       -1.048172    1.385293   -0.274859
     14          6           0       -1.224403    1.203509    1.073506
     15         16           0       -0.845554   -0.485106    1.635448
     16          1           0       -3.695741   -1.287230   -1.296921
     17          1           0       -1.720633   -2.739745   -1.110140
     18          1           0        0.758047   -1.840701   -1.570479
     19          1           0        1.592953   -0.323998    0.960814
     20          1           0        3.676589    0.096846    1.291251
     21          1           0        4.087609    0.655215   -1.559368
     22          1           0        2.593753    2.607056   -0.122078
     23          1           0        0.362326    2.853396   -0.135161
     24          1           0       -0.848415    1.980793    1.749622
 ---------------------------------------------------------------------
 Rotational constants (GHZ):           1.0678185           0.4165472           0.3667633
 Standard basis: 6-31G(2df,p) (6D, 7F)
 There are   514 symmetry adapted cartesian basis functions of A   symmetry.
 There are   469 symmetry adapted basis functions of A   symmetry.
   469 basis functions,   747 primitive gaussians,   514 cartesian basis functions
    56 alpha electrons       56 beta electrons
       nuclear repulsion energy      1021.9807171539 Hartrees.
 NAtoms=   24 NActive=   24 NUniq=   24 SFac= 1.00D+00 NAtFMM=   60 NAOKFM=F Big=F
 Integral buffers will be    131072 words long.
 Raffenetti 2 integral format.
 Two-electron integral symmetry is turned on.
 One-electron integrals computed using PRISM.
 PrsmSu:  requested number of processors reduced to:  12 ShMem   1 Linda.
 NBasis=   469 RedAO= T EigKep=  2.33D-04  NBF=   469
 NBsUse=   469 1.00D-06 EigRej= -1.00D+00 NBFU=   469
 Initial guess from the checkpoint file:  "OdC1CdCC2dCCdNCdCCdCC1dCS2.chk"
 B after Tr=    -0.000000    0.000000   -0.000000
         Rot=    0.999547   -0.029341   -0.001356    0.006613 Ang=  -3.45 deg.
 ExpMin= 1.17D-01 ExpMax= 2.19D+04 ExpMxC= 3.30D+03 IAcc=2 IRadAn=         4 AccDes= 0.00D+00
 Harris functional with IExCor=  402 and IRadAn=       4 diagonalized for initial guess.
 HarFok:  IExCor=  402 AccDes= 0.00D+00 IRadAn=         4 IDoV= 1 UseB2=F ITyADJ=14
 ICtDFT=  3500011 ScaDFX=  1.000000  1.000000  1.000000  1.000000
 FoFCou: FMM=F IPFlag=           0 FMFlag=      100000 FMFlg1=           0
         NFxFlg=           0 DoJE=T BraDBF=F KetDBF=T FulRan=T
         wScrn=  0.000000 ICntrl=       500 IOpCl=  0 I1Cent=   200000004 NGrid=           0
         NMat0=    1 NMatS0=      1 NMatT0=    0 NMatD0=    1 NMtDS0=    0 NMtDT0=    0
 Petite list used in FoFCou.
 Requested convergence on RMS density matrix=1.00D-08 within 128 cycles.
 Requested convergence on MAX density matrix=1.00D-06.
 Requested convergence on             energy=1.00D-06.
 No special actions if energy rises.
 Integral accuracy reduced to 1.0D-05 until final iterations.
 Initial convergence to 1.0D-05 achieved.  Increase integral accuracy.
 SCF Done:  E(RB3LYP) =  -990.318716458     A.U. after   17 cycles
            NFock= 17  Conv=0.38D-08     -V/T= 2.0062
 PrsmSu:  requested number of processors reduced to:  13 ShMem   1 Linda.
 Calling FoFJK, ICntrl=      2127 FMM=F ISym2X=0 I1Cent= 0 IOpClX= 0 NMat=1 NMatS=1 NMatT=0.
 ***** Axes restored to original set *****
 -------------------------------------------------------------------
 Center     Atomic                   Forces (Hartrees/Bohr)
 Number     Number              X              Y              Z
 -------------------------------------------------------------------
      1        8           0.030167142    0.012402996   -0.020617637
      2        6          -0.022751644   -0.022756313    0.001155499
      3        6          -0.025674406    0.017580597   -0.015948499
      4        6           0.022668200   -0.024877932    0.011681685
      5        6          -0.022059936   -0.001027438    0.000947075
      6        6           0.041231763    0.004665241    0.013600642
      7        6           0.002170471   -0.006058823    0.007815509
      8        7           0.009923508   -0.018771937   -0.031691671
      9        6          -0.014719089    0.050842356    0.039260020
     10        6          -0.022143647   -0.031155166   -0.027776341
     11        6           0.030754109    0.022685138    0.007963487
     12        6          -0.003974758    0.029237445   -0.018980926
     13        6          -0.004933113   -0.043552942    0.008291801
     14        6           0.053699686    0.020072427   -0.006525542
     15       16          -0.025513598   -0.002749220    0.008425729
     16        1           0.006760552    0.010204911   -0.011772841
     17        1          -0.001763110    0.002984251    0.005890418
     18        1          -0.001448167   -0.003829697    0.010218243
     19        1           0.000018089   -0.008147637    0.003590508
     20        1          -0.005193150   -0.004211930    0.011311389
     21        1          -0.041592935   -0.001010355   -0.004305488
     22        1          -0.032827379    0.003246172   -0.000338600
     23        1           0.015671963   -0.001554017   -0.000960559
     24        1           0.011529450   -0.004218128    0.008766101
 -------------------------------------------------------------------
 Cartesian Forces:  Max     0.053699686 RMS     0.019850880

 GradGradGradGradGradGradGradGradGradGradGradGradGradGradGradGradGradGrad
 Berny optimization.
 Using GEDIIS/GDIIS optimizer.
 FormGI is forming the generalized inverse of G from B-inverse, IUseBI=4.
 Internal  Forces:  Max     0.061984013 RMS     0.017621420
 Search for a local minimum.
 Step number   2 out of a maximum of  125
 All quantities printed in internal units (Hartrees-Bohrs-Radians)
 Mixed Optimization -- RFO/linear search
 Update second derivatives using D2CorX and points    1    2
 DE= -9.83D-02 DEPred=-9.92D-02 R= 9.91D-01
 TightC=F SS=  1.41D+00  RLast= 4.63D-01 DXNew= 5.0454D-01 1.3889D+00
 Trust test= 9.91D-01 RLast= 4.63D-01 DXMaxT set to 5.05D-01
 ITU=  1  0
 Use linear search instead of GDIIS.
 Linear search step of   0.600 exceeds DXMaxT=   0.505 but not scaled.
 Quartic linear search produced a step of  2.00000.
 Iteration  1 RMS(Cart)=  0.19474746 RMS(Int)=  0.01089804
 Iteration  2 RMS(Cart)=  0.01814088 RMS(Int)=  0.00449654
 Iteration  3 RMS(Cart)=  0.00014965 RMS(Int)=  0.00449543
 Iteration  4 RMS(Cart)=  0.00000108 RMS(Int)=  0.00449543
 Iteration  5 RMS(Cart)=  0.00000001 RMS(Int)=  0.00449543
 Variable       Old X    -DE/DX   Delta X   Delta X   Delta X     New X
                                 (Linear)    (Quad)   (Total)
    R1        2.29978  -0.02298  -0.03684   0.00000  -0.03684   2.26294
    R2        2.85101  -0.00621   0.00135   0.00000   0.00109   2.85210
    R3        3.31260  -0.01626  -0.04534   0.00000  -0.04652   3.26608
    R4        2.45527   0.03986   0.10077   0.00000   0.10202   2.55729
    R5        2.08406  -0.01231  -0.04606   0.00000  -0.04606   2.03800
    R6        2.74648   0.00715   0.02352   0.00000   0.02518   2.77166
    R7        2.06383  -0.00219  -0.00443   0.00000  -0.00443   2.05940
    R8        2.51124   0.01331   0.04056   0.00000   0.04339   2.55463
    R9        3.44739   0.00121   0.00300   0.00000   0.00406   3.45145
   R10        2.70917  -0.01400  -0.03830   0.00000  -0.03564   2.67353
   R11        2.06032  -0.00399  -0.01679   0.00000  -0.01679   2.04353
   R12        2.42850  -0.00809  -0.01200   0.00000  -0.00917   2.41933
   R13        2.07989  -0.00650  -0.03163   0.00000  -0.03163   2.04826
   R14        2.62247   0.01273   0.04423   0.00000   0.04504   2.66751
   R15        2.60932   0.03322   0.14437   0.00000   0.14282   2.75213
   R16        2.07981   0.00437   0.02794   0.00000   0.02794   2.10776
   R17        3.13768  -0.04235  -0.13962   0.00000  -0.14256   2.99512
   R18        2.11083  -0.01213  -0.03349   0.00000  -0.03349   2.07733
   R19        2.70221  -0.06198  -0.22638   0.00000  -0.22955   2.47266
   R20        2.09976  -0.01167  -0.04281   0.00000  -0.04281   2.05695
   R21        3.27205  -0.03313  -0.11792   0.00000  -0.12070   3.15135
   R22        2.07903  -0.00611  -0.02479   0.00000  -0.02479   2.05423
   R23        2.59257   0.01959   0.07820   0.00000   0.07753   2.67010
   R24        3.43843  -0.00201   0.02241   0.00000   0.02276   3.46119
   R25        2.07239   0.00112   0.01118   0.00000   0.01118   2.08357
    A1        1.98376   0.02067   0.07777   0.00000   0.07922   2.06297
    A2        2.07236  -0.04171  -0.16721   0.00000  -0.16629   1.90607
    A3        2.21126   0.02167   0.09386   0.00000   0.09088   2.30213
    A4        2.07655   0.00627   0.05135   0.00000   0.05027   2.12682
    A5        2.09275  -0.01205  -0.06547   0.00000  -0.06546   2.02729
    A6        2.11206   0.00541   0.01216   0.00000   0.01215   2.12421
    A7        2.12138  -0.01678  -0.05433   0.00000  -0.05304   2.06834
    A8        2.12779   0.00788   0.02989   0.00000   0.02924   2.15702
    A9        2.03393   0.00890   0.02452   0.00000   0.02385   2.05778
   A10        2.03616   0.00919   0.04341   0.00000   0.04260   2.07877
   A11        2.04908   0.00996   0.02183   0.00000   0.02375   2.07283
   A12        2.19704  -0.01963  -0.06701   0.00000  -0.07193   2.12510
   A13        2.04991   0.00571   0.03832   0.00000   0.03499   2.08490
   A14        2.16749  -0.00930  -0.04458   0.00000  -0.04869   2.11880
   A15        2.05695   0.00081  -0.00699   0.00000  -0.01120   2.04575
   A16        2.18118  -0.00101   0.02090   0.00000   0.02358   2.20476
   A17        2.00086  -0.00181  -0.01600   0.00000  -0.01931   1.98155
   A18        2.07155  -0.00116  -0.02584   0.00000  -0.02993   2.04162
   A19        1.84410  -0.01371  -0.03077   0.00000  -0.02811   1.81599
   A20        1.89395   0.02048   0.09642   0.00000   0.09005   1.98400
   A21        2.05116  -0.00073   0.00540   0.00000  -0.01062   2.04055
   A22        2.02862   0.00442   0.06159   0.00000   0.05138   2.08000
   A23        2.08060   0.00614   0.02061   0.00000   0.01854   2.09914
   A24        1.83948   0.02581   0.13837   0.00000   0.14174   1.98122
   A25        2.27076  -0.02942  -0.14467   0.00000  -0.14601   2.12475
   A26        2.66341  -0.02003  -0.10738   0.00000  -0.11413   2.54928
   A27        1.58497   0.03985   0.18344   0.00000   0.18698   1.77195
   A28        1.99478  -0.02014  -0.07933   0.00000  -0.07472   1.92005
   A29        2.82502   0.00008  -0.03104   0.00000  -0.03722   2.78780
   A30        1.89126  -0.01468  -0.06207   0.00000  -0.05904   1.83223
   A31        1.55922   0.01467   0.09224   0.00000   0.09527   1.65449
   A32        2.76270   0.01313   0.05878   0.00000   0.05726   2.81996
   A33        1.60364   0.01002   0.04795   0.00000   0.03824   1.64188
   A34        1.80561  -0.01904  -0.08398   0.00000  -0.07451   1.73110
   A35        1.98205   0.01799   0.11089   0.00000   0.09724   2.07929
   A36        2.05780   0.00773   0.04343   0.00000   0.04067   2.09846
   A37        1.97793  -0.00470  -0.01762   0.00000  -0.02664   1.95129
[...]
   A34        2.06465   0.00009  -0.00152   0.00015  -0.00060   2.06405
   A35        2.24133   0.00036   0.00130   0.00887   0.00898   2.25030
   A36        2.07586   0.00032  -0.00078  -0.00268  -0.00300   2.07286
   A37        1.96458  -0.00067  -0.00072  -0.00670  -0.00692   1.95766
   A38        1.73111  -0.00049   0.00274  -0.00048   0.00138   1.73249
    D1        2.90287   0.00034  -0.01143  -0.08257  -0.09373   2.80914
    D2       -0.08506   0.00057  -0.00950  -0.05404  -0.06356  -0.14862
    D3       -0.18617  -0.00078  -0.01035  -0.10975  -0.12003  -0.30620
    D4        3.10908  -0.00055  -0.00842  -0.08122  -0.08986   3.01922
    D5       -0.39016  -0.00006   0.00558   0.06381   0.06943  -0.32073
    D6        2.62921  -0.00036   0.01055   0.06043   0.07120   2.70041
    D7        2.69898   0.00101   0.00451   0.09067   0.09555   2.79454
    D8       -0.56483   0.00071   0.00948   0.08729   0.09732  -0.46751
    D9        0.13570   0.00029  -0.00062   0.02017   0.01908   0.15478
   D10       -2.92346   0.00017   0.00068   0.01417   0.01444  -2.90903
   D11        3.11311   0.00002  -0.00267  -0.01041  -0.01325   3.09986
   D12        0.05395  -0.00010  -0.00136  -0.01640  -0.01789   0.03605
   D13       -1.91438   0.00039   0.00534   0.05079   0.05603  -1.85835
   D14        0.94057   0.00062   0.00484   0.04504   0.04948   0.99006
   D15        1.14442   0.00052   0.00404   0.05676   0.06065   1.20507
   D16       -2.28381   0.00075   0.00353   0.05101   0.05410  -2.22971
   D17        2.41495   0.00036   0.00141   0.02498   0.02581   2.44076
   D18       -0.20393  -0.00013   0.00052   0.00002   0.00014  -0.20378
   D19       -0.41862  -0.00031   0.00192   0.03036   0.03210  -0.38653
   D20       -3.03750  -0.00080   0.00103   0.00541   0.00643  -3.03107
   D21       -1.41890  -0.00049   0.00093  -0.01160  -0.01082  -1.42972
   D22        1.43527   0.00033   0.00038  -0.01377  -0.01396   1.42131
   D23       -1.90749  -0.00127  -0.00184  -0.02656  -0.02847  -1.93596
   D24        0.74923  -0.00081   0.00025  -0.02041  -0.02004   0.72920
   D25        0.71802  -0.00055  -0.00070  -0.00065  -0.00161   0.71641
   D26       -2.90844  -0.00009   0.00139   0.00550   0.00682  -2.90162
   D27        2.20846   0.00032  -0.00224   0.00204   0.00013   2.20860
   D28       -0.41796  -0.00014  -0.00426  -0.00418  -0.00834  -0.42630
   D29       -2.21642  -0.00011  -0.00772  -0.05774  -0.06618  -2.28260
   D30        0.55453  -0.00071  -0.00982  -0.08128  -0.09122   0.46330
   D31        2.40492  -0.00067  -0.00338  -0.04084  -0.04335   2.36158
   D32       -0.37877  -0.00022  -0.00282  -0.02494  -0.02744  -0.40621
   D33       -0.34878  -0.00039  -0.00136  -0.01946  -0.02067  -0.36945
   D34       -3.13247   0.00006  -0.00080  -0.00356  -0.00477  -3.13724
   D35       -1.22637   0.00036   0.01842   0.07028   0.08837  -1.13800
   D36        2.07430   0.00158   0.00546   0.17262   0.17715   2.25145
   D37        1.56011  -0.00015   0.01806   0.05462   0.07294   1.63305
   D38       -1.42241   0.00106   0.00510   0.15696   0.16172  -1.26070
   D39        0.10689   0.00125  -0.01187   0.01574   0.00313   0.11002
   D40       -2.90643   0.00018  -0.00262  -0.03722  -0.04042  -2.94685
   D41        3.09260  -0.00005   0.00081  -0.08531  -0.08502   3.00757
   D42        0.07927  -0.00112   0.01006  -0.13827  -0.12857  -0.04930
   D43       -1.92587  -0.00031   0.01887   0.01669   0.03504  -1.89083
   D44        1.32942  -0.00008   0.01428   0.01943   0.03316   1.36258
   D45        1.09044   0.00064   0.00981   0.06778   0.07715   1.16758
   D46       -1.93745   0.00086   0.00522   0.07052   0.07527  -1.86218
   D47        0.32796   0.00003   0.00299   0.01182   0.01500   0.34296
   D48       -2.87539   0.00020  -0.00358   0.00051  -0.00330  -2.87869
   D49       -2.93799  -0.00035   0.00846   0.00802   0.01673  -2.92126
   D50        0.14184  -0.00018   0.00189  -0.00329  -0.00157   0.14027
   D51        0.68189   0.00003  -0.00958  -0.04930  -0.05966   0.62223
   D52       -2.40117  -0.00016  -0.00335  -0.03866  -0.04241  -2.44358
         Item               Value     Threshold  Converged?
 Maximum Force            0.003489     0.000450     NO 
 RMS     Force            0.000872     0.000300     NO 
 Maximum Displacement     0.219269     0.001800     NO 
 RMS     Displacement     0.062268     0.001200     NO 
 Predicted change in Energy=-9.978460D-04
 GradGradGradGradGradGradGradGradGradGradGradGradGradGradGradGradGradGrad

                          Input orientation:                          
 ---------------------------------------------------------------------
 Center     Atomic      Atomic             Coordinates (Angstroms)
 Number     Number       Type             X           Y           Z
 ---------------------------------------------------------------------
      1          8           0        3.457032    0.614048   -2.387780
      2          6           0        4.090635    0.272005   -1.398605
      3          6           0        3.646657   -0.986036   -0.727402
      4          6           0        4.294202   -1.795943    0.128167
      5          6           0        5.589832   -1.427903    0.710443
      6          6           0        6.748046   -2.006168    0.317182
      7          6           0        7.916612   -1.132602    0.185459
      8          7           0        8.296712   -0.966079   -1.034645
      9          6           0        8.398090    0.389908   -1.378994
     10          6           0        7.792144    0.739002   -2.524408
     11          6           0        6.948462    1.928765   -2.710395
     12          6           0        5.775950    2.064631   -2.061191
     13          6           0        5.250204    1.141219   -1.004746
     14          6           0        5.753138    1.244415    0.239991
     15         16           0        5.577003    0.135410    1.604181
     16          1           0        2.709692   -1.328786   -1.156838
     17          1           0        3.877032   -2.780178    0.335876
     18          1           0        6.710264   -2.894788   -0.309232
     19          1           0        8.068680   -0.377733    0.963138
     20          1           0        8.596957    1.114821   -0.586930
     21          1           0        7.635879   -0.060006   -3.250082
     22          1           0        7.148091    2.600413   -3.544046
     23          1           0        5.109235    2.865703   -2.370102
     24          1           0        6.419161    2.072002    0.467848
 ---------------------------------------------------------------------
                    Distance matrix (angstroms):
                    1          2          3          4          5
     1  O    0.000000
     2  C    1.223483   0.000000
     3  C    2.313673   1.493418   0.000000
     4  C    3.583141   2.578543   1.344344   0.000000
     5  C    4.279881   3.096024   2.457351   1.467364   0.000000
     6  C    5.001312   3.898183   3.427891   2.470076   1.352961
     7  C    5.436929   4.372675   4.368902   3.683091   2.403480
     8  N    5.267853   4.399591   4.660236   4.249811   3.253584
     9  C    5.047964   4.309114   4.989380   4.887881   3.944173
    10  C    4.339064   3.897010   4.836326   5.069290   4.473245
    11  C    3.744681   3.554268   4.830139   5.382934   4.981488
    12  C    2.754674   2.548100   3.952145   4.678985   4.462554
    13  C    2.325114   1.501752   2.678338   3.290038   3.107669
    14  C    3.546074   2.528734   3.216834   3.374133   2.718323
    15  S    4.545230   3.353308   3.228026   2.748512   1.800800
    16  H    2.418335   2.127907   1.086185   2.092879   3.433915
    17  H    4.372125   3.517083   2.098232   1.088987   2.214189
    18  H    5.216877   4.251796   3.633715   2.690006   2.108757
    19  H    5.786154   4.671706   4.773075   4.117668   2.703960
    20  H    5.469247   4.655760   5.379480   5.243817   4.146254
    21  H    4.319800   4.013347   4.809921   5.058937   4.662961
    22  H    4.348162   4.401414   5.749448   6.399827   6.062688
    23  H    2.792854   2.951037   4.435481   5.351314   5.306203
    24  H    4.365140   3.485064   4.297325   4.426266   3.604993
                    6          7          8          9         10
     6  C    0.000000
     7  C    1.464928   0.000000
     8  N    2.303820   1.288744   0.000000
     9  C    3.367616   2.235481   1.402696   0.000000
    10  C    4.086653   3.295721   2.319759   1.342017   0.000000
    11  C    4.968911   4.323801   3.606388   2.498425   1.470349
    12  C    4.813838   4.455577   4.073480   3.185233   2.457011
    13  C    3.727877   3.700889   3.704431   3.257870   2.988747
    14  C    3.400307   3.214623   3.602880   3.216686   3.472015
    15  S    2.759359   3.015691   3.946327   4.113714   4.724026
    16  H    4.351998   5.380731   5.600114   5.946523   5.654849
    17  H    2.973578   4.365242   4.970197   5.781886   5.991157
    18  H    1.087873   2.192098   2.600569   3.844786   4.391116
    19  H    2.193886   1.094412   2.095062   2.486638   3.672404
    20  H    3.738511   2.471915   2.149591   1.091977   2.131382
    21  H    4.159467   3.610016   2.483108   2.069869   1.090611
    22  H    6.024094   5.332470   4.509578   3.337106   2.217954
    23  H    5.800200   5.513501   5.160039   4.234197   3.427050
    24  H    4.094183   3.548463   3.874612   3.186915   3.551841
                   11         12         13         14         15
    11  C    0.000000
    12  C    1.347112   0.000000
    13  C    2.532498   1.498391   0.000000
    14  C    3.256057   2.443094   1.346462   0.000000
    15  S    4.869557   4.146857   2.815129   1.766899   0.000000
    16  H    5.567077   4.662089   3.546584   4.223157   4.241293
    17  H    6.394341   5.729223   4.365802   4.441432   3.605434
    18  H    5.393420   5.342110   4.347972   4.283776   3.758660
    19  H    4.479918   4.513127   3.758136   2.918226   2.623492
    20  H    2.808762   3.321696   3.372836   2.964439   3.857504
    21  H    2.172329   3.063802   3.489401   4.174546   5.276459
    22  H    1.089008   2.090142   3.489881   4.254828   5.920203
    23  H    2.091986   1.087038   2.204068   3.139390   4.844402
    24  H    3.225199   2.609562   2.097940   1.086465   2.398097
                   16         17         18         19         20
    16  H    0.000000
    17  H    2.386926   0.000000
    18  H    4.378969   2.908007   0.000000
    19  H    5.841024   4.871870   3.130461   0.000000
    20  H    6.399680   6.188723   4.440011   2.215740   0.000000
    21  H    5.500799   5.864074   4.188240   4.247292   3.065333
    22  H    6.390365   7.396242   6.391632   5.480105   3.612580
    23  H    4.982324   6.380957   6.324060   5.512593   4.290629
    24  H    5.288207   5.479370   5.035633   2.994566   2.602220
                   21         22         23         24
    21  H    0.000000
    22  H    2.720695   0.000000
    23  H    3.964602   2.367585   0.000000
    24  H    4.455207   4.111673   3.224877   0.000000
 Stoichiometry    C12H9NOS
 Framework group  C1[X(C12H9NOS)]
 Deg. of freedom    66
 Full point group                 C1      NOp   1
 Largest Abelian subgroup         C1      NOp   1
 Largest concise Abelian subgroup C1      NOp   1
                         Standard orientation:                         
 ---------------------------------------------------------------------
 Center     Atomic      Atomic             Coordinates (Angstroms)
 Number     Number       Type             X           Y           Z
 ---------------------------------------------------------------------
      1          8           0        0.319573    2.981671   -0.728646
      2          6           0       -0.238122    1.962370   -0.345353
      3          6           0       -1.603763    1.706162   -0.892784
      4          6           0       -2.322376    0.571666   -0.954211
      5          6           0       -1.892327   -0.653626   -0.270929
      6          6           0       -1.387287   -1.714537   -0.941679
      7          6           0       -0.252935   -2.410249   -0.329108
      8          7           0        0.852392   -2.253470   -0.972951
      9          6           0        1.884934   -1.782282   -0.148697
     10          6           0        2.566176   -0.729082   -0.625865
     11          6           0        2.944622    0.460296    0.151366
     12          6           0        2.013993    1.299672    0.645417
     13          6           0        0.531735    1.085200    0.599714
     14          6           0       -0.016688    0.232510    1.485780
     15         16           0       -1.642887   -0.458254    1.501778
     16          1           0       -1.951410    2.570567   -1.451124
     17          1           0       -3.208305    0.545923   -1.586951
     18          1           0       -1.470157   -1.743745   -2.025998
     19          1           0       -0.291994   -2.578404    0.751603
     20          1           0        1.842030   -2.006253    0.919202
     21          1           0        2.543424   -0.590068   -1.707341
     22          1           0        3.979272    0.799830    0.138928
     23          1           0        2.346396    2.252647    1.049146
     24          1           0        0.605839   -0.166103    2.282004
 ---------------------------------------------------------------------
 Rotational constants (GHZ):           0.7088091           0.6509723           0.4545681
 Standard basis: 6-31G(2df,p) (6D, 7F)
 There are   514 symmetry adapted cartesian basis functions of A   symmetry.
 There are   469 symmetry adapted basis functions of A   symmetry.
   469 basis functions,   747 primitive gaussians,   514 cartesian basis functions
    56 alpha electrons       56 beta electrons
       nuclear repulsion energy      1052.2114695193 Hartrees.
 NAtoms=   24 NActive=   24 NUniq=   24 SFac= 1.00D+00 NAtFMM=   60 NAOKFM=F Big=F
 Integral buffers will be    131072 words long.
 Raffenetti 2 integral format.
 Two-electron integral symmetry is turned on.
 One-electron integrals computed using PRISM.
 PrsmSu:  requested number of processors reduced to:  12 ShMem   1 Linda.
 NBasis=   469 RedAO= T EigKep=  3.70D-04  NBF=   469
 NBsUse=   469 1.00D-06 EigRej= -1.00D+00 NBFU=   469
 Initial guess from the checkpoint file:  "OdC1CdCC2dCCdNCdCCdCC1dCS2.chk"
 B after Tr=    -0.000000    0.000000   -0.000000
         Rot=    0.999969   -0.006775    0.003793   -0.001130 Ang=  -0.90 deg.
 ExpMin= 1.17D-01 ExpMax= 2.19D+04 ExpMxC= 3.30D+03 IAcc=2 IRadAn=         4 AccDes= 0.00D+00
 Harris functional with IExCor=  402 and IRadAn=       4 diagonalized for initial guess.
 HarFok:  IExCor=  402 AccDes= 0.00D+00 IRadAn=         4 IDoV= 1 UseB2=F ITyADJ=14
 ICtDFT=  3500011 ScaDFX=  1.000000  1.000000  1.000000  1.000000
 FoFCou: FMM=F IPFlag=           0 FMFlag=      100000 FMFlg1=           0
         NFxFlg=           0 DoJE=T BraDBF=F KetDBF=T FulRan=T
         wScrn=  0.000000 ICntrl=       500 IOpCl=  0 I1Cent=   200000004 NGrid=           0
         NMat0=    1 NMatS0=      1 NMatT0=    0 NMatD0=    1 NMtDS0=    0 NMtDT0=    0
 Petite list used in FoFCou.
 Requested convergence on RMS density matrix=1.00D-08 within 128 cycles.
 Requested convergence on MAX density matrix=1.00D-06.
 Requested convergence on             energy=1.00D-06.
 No special actions if energy rises.
 Integral accuracy reduced to 1.0D-05 until final iterations.
 Initial convergence to 1.0D-05 achieved.  Increase integral accuracy.
 SCF Done:  E(RB3LYP) =  -990.706436714     A.U. after   13 cycles
            NFock= 13  Conv=0.81D-08     -V/T= 2.0059
 PrsmSu:  requested number of processors reduced to:  13 ShMem   1 Linda.
 Calling FoFJK, ICntrl=      2127 FMM=F ISym2X=0 I1Cent= 0 IOpClX= 0 NMat=1 NMatS=1 NMatT=0.
 ***** Axes restored to original set *****
 -------------------------------------------------------------------
 Center     Atomic                   Forces (Hartrees/Bohr)
 Number     Number              X              Y              Z
 -------------------------------------------------------------------
      1        8          -0.001729990    0.000465483   -0.001503956
      2        6           0.001138662    0.000819290   -0.004004259
      3        6          -0.000367685   -0.000531361    0.000979826
      4        6          -0.000834329   -0.000853976   -0.000753439
      5        6           0.000666025    0.001021441    0.001289283
      6        6           0.001879740    0.000324210   -0.000000056
      7        6           0.000293041   -0.001598307   -0.000177580
      8        7           0.000446629    0.000788259    0.000121608
      9        6          -0.000368034   -0.002793639    0.003128798
     10        6          -0.000024449   -0.001924935   -0.002474022
     11        6          -0.002019663   -0.000005390   -0.000986587
     12        6          -0.002318374    0.001773621    0.000697025
     13        6           0.002495738   -0.000742739    0.002303581
     14        6           0.001509112    0.000138130    0.001080943
     15       16          -0.000842494   -0.000945865    0.000365825
     16        1          -0.000175257    0.000491521   -0.000016957
     17        1          -0.000329111    0.000552272    0.000753211
     18        1          -0.000087715    0.000462925    0.000255277
     19        1          -0.000105522    0.000444323   -0.000665182
     20        1           0.000314040    0.000733724   -0.000499914
     21        1           0.000981991    0.000437852   -0.000410247
     22        1           0.000394204    0.001127325    0.000939277
     23        1          -0.000636466   -0.000406455   -0.001089078
     24        1          -0.000280091    0.000222292    0.000666621
 -------------------------------------------------------------------
 Cartesian Forces:  Max     0.004004259 RMS     0.001208098

 GradGradGradGradGradGradGradGradGradGradGradGradGradGradGradGradGradGrad
 Berny optimization.
 Using GEDIIS/GDIIS optimizer.
 FormGI is forming the generalized inverse of G from B-inverse, IUseBI=4.
 Internal  Forces:  Max     0.003274305 RMS     0.000905679
 Search for a local minimum.
 Step number  14 out of a maximum of  125
 All quantities printed in internal units (Hartrees-Bohrs-Radians)
 Mixed Optimization -- En-DIIS/RFO-DIIS
 Swapping is turned off.
 Update second derivatives using D2CorX and points   13   14
 DE= -8.91D-04 DEPred=-9.98D-04 R= 8.92D-01
 TightC=F SS=  1.41D+00  RLast= 4.68D-01 DXNew= 5.0454D+00 1.4035D+00
 Trust test= 8.92D-01 RLast= 4.68D-01 DXMaxT set to 3.00D+00
 ITU=  1  1  1  0  1  1  1  1  1  1  1  0  1  0
     Eigenvalues ---    0.00221   0.00480   0.00771   0.01047   0.01418
     Eigenvalues ---    0.01476   0.01826   0.01962   0.02087   0.02237
     Eigenvalues ---    0.02380   0.02559   0.02694   0.02887   0.02988
     Eigenvalues ---    0.03203   0.03848   0.03988   0.05305   0.05732
     Eigenvalues ---    0.08295   0.11715   0.12399   0.14118   0.14291
     Eigenvalues ---    0.15140   0.15341   0.15527   0.15735   0.15900
     Eigenvalues ---    0.15994   0.16241   0.16796   0.16926   0.18556
     Eigenvalues ---    0.20058   0.21196   0.21701   0.21926   0.22661
     Eigenvalues ---    0.23109   0.23790   0.23934   0.24754   0.25788
     Eigenvalues ---    0.28286   0.30537   0.31111   0.31313   0.32080
     Eigenvalues ---    0.32803   0.33100   0.34307   0.34386   0.34429
     Eigenvalues ---    0.34465   0.37355   0.38705   0.47652   0.50546
     Eigenvalues ---    0.51948   0.53068   0.61551   0.68452   0.70397
     Eigenvalues ---    0.91404
 En-DIIS/RFO-DIIS/Sim-DIIS IScMMF=       -3 using points:    14   13
 RFO step:  Lambda=-1.09915021D-03.
 DidBck=F Rises=F RFO-DIIS coefs:    1.78448   -0.78448
slurmstepd: error: *** JOB 27447056 ON lewis4-r630-hpc4-node227 CANCELLED AT 2023-05-16T00:42:00 DUE TO TIME LIMIT ***
