### Starting Gaussian ###
 Entering Gaussian System, Link 0=g16
 Initial command:
 /cluster/software/gaussian/gaussian-16-A.03/avx2/g16/l1.exe "/local/scratch/cz9n3/Gau-28041.inp" -scrdir="/local/scratch/cz9n3/"
 Entering Link 1 = /cluster/software/gaussian/gaussian-16-A.03/avx2/g16/l1.exe PID=     28043.
  
 Copyright (c) 1988,1990,1992,1993,1995,1998,2003,2009,2016,
            Gaussian, Inc.  All Rights Reserved.
  
 This is part of the Gaussian(R) 16 program.  It is based on
 the Gaussian(R) 09 system (copyright 2009, Gaussian, Inc.),
 the Gaussian(R) 03 system (copyright 2003, Gaussian, Inc.),
 the Gaussian(R) 98 system (copyright 1998, Gaussian, Inc.),
 the Gaussian(R) 94 system (copyright 1995, Gaussian, Inc.),
 the Gaussian 92(TM) system (copyright 1992, Gaussian, Inc.),
 the Gaussian 90(TM) system (copyright 1990, Gaussian, Inc.),
 the Gaussian 88(TM) system (copyright 1988, Gaussian, Inc.),
 the Gaussian 86(TM) system (copyright 1986, Carnegie Mellon
 University), and the Gaussian 82(TM) system (copyright 1983,
 Carnegie Mellon University). Gaussian is a federally registered
 trademark of Gaussian, Inc.
  
 This software contains proprietary and confidential information,
 including trade secrets, belonging to Gaussian, Inc.
  
 This software is provided under written license and may be
 used, copied, transmitted, or stored only in accord with that
 written license.
  
 The following legend is applicable only to US Government
 contracts under FAR:
  
                    RESTRICTED RIGHTS LEGEND
  
 Use, reproduction and disclosure by the US Government is
 subject to restrictions as set forth in subparagraphs (a)
 and (c) of the Commercial Computer Software - Restricted
 Rights clause in FAR 52.227-19.
  
 Gaussian, Inc.
 340 Quinnipiac St., Bldg. 40, Wallingford CT 06492
  
  
 ---------------------------------------------------------------
 Warning -- This program may not be used in any manner that
 competes with the business of Gaussian, Inc. or will provide
 assistance to any competitor of Gaussian, Inc.  The licensee
 of this program is prohibited from giving any competitor of
 Gaussian, Inc. access to this program.  By using this program,
 the user acknowledges that Gaussian, Inc. is engaged in the
 business of creating and licensing software in the field of
 computational chemistry and represents and warrants to the
 licensee that it is not a competitor of Gaussian, Inc. and that
 it will not use this program in any manner prohibited above.
 ---------------------------------------------------------------
  

 Cite this work as:
 Gaussian 16, Revision A.03,
 M. J. Frisch, G. W. Trucks, H. B. Schlegel, G. E. Scuseria, 
 M. A. Robb, J. R. Cheeseman, G. Scalmani, V. Barone, 
 G. A. Petersson, H. Nakatsuji, X. Li, M. Caricato, A. V. Marenich, 
 J. Bloino, B. G. Janesko, R. Gomperts, B. Mennucci, H. P. Hratchian, 
 J. V. Ortiz, A. F. Izmaylov, J. L. Sonnenberg, D. Williams-Young, 
 F. Ding, F. Lipparini, F. Egidi, J. Goings, B. Peng, A. Petrone, 
 T. Henderson, D. Ranasinghe, V. G. Zakrzewski, J. Gao, N. Rega, 
 G. Zheng, W. Liang, M. Hada, M. Ehara, K. Toyota, R. Fukuda, 
 J. Hasegawa, M. Ishida, T. Nakajima, Y. Honda, O. Kitao, H. Nakai, 
 T. Vreven, K. Throssell, J. A. Montgomery, Jr., J. E. Peralta, 
 F. Ogliaro, M. J. Bearpark, J. J. Heyd, E. N. Brothers, K. N. Kudin, 
 V. N. Staroverov, T. A. Keith, R. Kobayashi, J. Normand, 
 K. Raghavachari, A. P. Rendell, J. C. Burant, S. S. Iyengar, 
 J. Tomasi, M. Cossi, J. M. Millam, M. Klene, C. Adamo, R. Cammi, 
 J. W. Ochterski, R. L. Martin, K. Morokuma, O. Farkas, 
 J. B. Foresman, and D. J. Fox, Gaussian, Inc., Wallingford CT, 2016.
 
 ******************************************
 Gaussian 16:  ES64L-G16RevA.03 25-Dec-2016
                15-May-2023 
 ******************************************
 %chk=Odc1c2cqccccccc3c1dNCdN3rCdCCd2.chk
 %NProcShared=20
 Will use up to   20 processors via shared memory.
 -----------------------------
 # opt freq b3lyp/6-31g(2df,p)
 -----------------------------
 1/18=20,19=15,26=3,38=1/1,3;
 2/9=110,12=2,17=6,18=5,40=1/2;
 3/5=1,6=6,7=104,11=2,25=1,30=1,71=1,74=-5/1,2,3;
 4//1;
 5/5=2,38=5/2;
 6/7=2,8=2,9=2,10=2,28=1/1;
 7//1,2,3,16;
 1/18=20,19=15,26=3/3(2);
 2/9=110/2;
 99//99;
 2/9=110/2;
 3/5=1,6=6,7=104,11=2,25=1,30=1,71=1,74=-5/1,2,3;
 4/5=5,16=3,69=1/1;
 5/5=2,38=5/2;
 7//1,2,3,16;
 1/18=20,19=15,26=3/3(-5);
 2/9=110/2;
 6/7=2,8=2,9=2,10=2,19=2,28=1/1;
 99/9=1/99;
 -------------------
 Title Card Required
 -------------------
 Symbolic Z-matrix:
 Charge =  0 Multiplicity = 1
 O                     1.54345   1.20992   2.52631 
 C                     2.64344   1.47591   3.12821 
 C                     2.8344    0.52607   0.97888 
 C                     4.09728  -0.08172  -0.39646 
 C                     5.29953   0.19405   0.22756 
 C                     4.92977   0.69453   1.36008 
 C                     5.62562   1.10268   2.28364 
 C                     5.23749   1.59215   3.39123 
 C                     5.50858   2.07999   4.49514 
 C                     4.31868   2.3267    5.05339 
 C                     4.68102   2.81295   6.1537 
 C                     2.9884    2.39823   5.21526 
 N                     3.0447    3.13913   6.89178 
 C                     4.2233    3.71543   8.19587 
 N                     5.09694   3.34021   7.34682 
 C                     4.02149  -0.88842  -2.22189 
 C                     5.04533  -0.61343  -1.59962 
 C                     3.28608  -0.18581  -0.632 
 H                     6.29588   0.06929  -0.05475 
 H                     4.09151   0.9154    1.85987 
 H                     6.57888   1.06987   2.20941 
 H                     4.31272   1.58366   3.37203 
 H                     6.48696   2.15214   4.6584 
 H                     3.45877   1.93165   4.15946 
 H                     5.58538   4.0155    8.87488 
 H                     4.55988  -1.33788  -3.23895 
 H                     6.39701  -0.79546  -2.01154 
 H                     2.37754  -0.64217  -1.66465 
 
 Add virtual bond connecting atoms H24        and C2         Dist= 2.63D+00.
 Add virtual bond connecting atoms H27        and C17        Dist= 2.69D+00.
 Add virtual bond connecting atoms H28        and C18        Dist= 2.74D+00.
 Add virtual bond connecting atoms H25        and C14        Dist= 2.93D+00.
 Add virtual bond connecting atoms N13        and C11        Dist= 3.45D+00.
 Add virtual bond connecting atoms N13        and C12        Dist= 3.47D+00.
 Add virtual bond connecting atoms N13        and C14        Dist= 3.50D+00.

 GradGradGradGradGradGradGradGradGradGradGradGradGradGradGradGradGradGrad
 Berny optimization.
 Initialization pass.
                           ----------------------------
                           !    Initial Parameters    !
                           ! (Angstroms and Degrees)  !
 --------------------------                            --------------------------
 ! Name  Definition              Value          Derivative Info.                !
 --------------------------------------------------------------------------------
 ! R1    R(1,2)                  1.2818         estimate D2E/DX2                !
 ! R2    R(2,24)                 1.3914         estimate D2E/DX2                !
 ! R3    R(3,18)                 1.8182         estimate D2E/DX2                !
 ! R4    R(4,5)                  1.3823         estimate D2E/DX2                !
 ! R5    R(4,17)                 1.6215         estimate D2E/DX2                !
 ! R6    R(4,18)                 0.8511         estimate D2E/DX2                !
 ! R7    R(5,6)                  1.2922         estimate D2E/DX2                !
 ! R8    R(5,19)                 1.0431         estimate D2E/DX2                !
 ! R9    R(6,7)                  1.2263         estimate D2E/DX2                !
 ! R10   R(6,20)                 1.0006         estimate D2E/DX2                !
 ! R11   R(7,8)                  1.2716         estimate D2E/DX2                !
 ! R12   R(7,21)                 0.9567         estimate D2E/DX2                !
 ! R13   R(8,9)                  1.237          estimate D2E/DX2                !
 ! R14   R(8,22)                 0.925          estimate D2E/DX2                !
 ! R15   R(9,10)                 1.3373         estimate D2E/DX2                !
 ! R16   R(9,23)                 0.9945         estimate D2E/DX2                !
 ! R17   R(10,11)                1.2563         estimate D2E/DX2                !
 ! R18   R(10,12)                1.342          estimate D2E/DX2                !
 ! R19   R(11,13)                1.8245         estimate D2E/DX2                !
 ! R20   R(11,15)                1.3691         estimate D2E/DX2                !
 ! R21   R(12,13)                1.8338         estimate D2E/DX2                !
 ! R22   R(12,24)                1.2465         estimate D2E/DX2                !
 ! R23   R(13,14)                1.8498         estimate D2E/DX2                !
 ! R24   R(14,15)                1.2747         estimate D2E/DX2                !
 ! R25   R(14,25)                1.5512         estimate D2E/DX2                !
 ! R26   R(16,17)                1.2293         estimate D2E/DX2                !
 ! R27   R(16,26)                1.2354         estimate D2E/DX2                !
 ! R28   R(17,27)                1.4247         estimate D2E/DX2                !
 ! R29   R(18,28)                1.4492         estimate D2E/DX2                !
 ! A1    A(1,2,24)             156.7621         estimate D2E/DX2                !
 ! A2    A(5,4,17)              83.7923         estimate D2E/DX2                !
 ! A3    A(17,4,18)            108.1692         estimate D2E/DX2                !
 ! A4    A(4,5,6)              102.9462         estimate D2E/DX2                !
 ! A5    A(4,5,19)             133.2146         estimate D2E/DX2                !
 ! A6    A(6,5,19)             123.8392         estimate D2E/DX2                !
 ! A7    A(5,6,7)              128.8001         estimate D2E/DX2                !
 ! A8    A(5,6,20)             139.7256         estimate D2E/DX2                !
 ! A9    A(7,6,20)              91.4743         estimate D2E/DX2                !
 ! A10   A(6,7,8)              127.6556         estimate D2E/DX2                !
 ! A11   A(6,7,21)             119.7063         estimate D2E/DX2                !
 ! A12   A(8,7,21)             112.6382         estimate D2E/DX2                !
 ! A13   A(7,8,9)              149.5686         estimate D2E/DX2                !
 ! A14   A(7,8,22)             106.4714         estimate D2E/DX2                !
 ! A15   A(9,8,22)             103.9599         estimate D2E/DX2                !
 ! A16   A(8,9,10)             104.4951         estimate D2E/DX2                !
 ! A17   A(8,9,23)             112.9986         estimate D2E/DX2                !
 ! A18   A(10,9,23)            142.5062         estimate D2E/DX2                !
 ! A19   A(9,10,11)            100.392          estimate D2E/DX2                !
 ! A20   A(9,10,12)            160.4231         estimate D2E/DX2                !
 ! A21   A(11,10,12)            99.1849         estimate D2E/DX2                !
 ! A22   A(10,11,13)            99.4873         estimate D2E/DX2                !
 ! A23   A(13,11,15)            81.435          estimate D2E/DX2                !
 ! A24   A(10,12,13)            95.8184         estimate D2E/DX2                !
 ! A25   A(10,12,24)            60.2517         estimate D2E/DX2                !
 ! A26   A(13,12,24)           156.0701         estimate D2E/DX2                !
 ! A27   A(11,13,12)            65.5094         estimate D2E/DX2                !
 ! A28   A(11,13,14)            76.6711         estimate D2E/DX2                !
 ! A29   A(12,13,14)           142.1805         estimate D2E/DX2                !
 ! A30   A(13,14,15)            82.8425         estimate D2E/DX2                !
 ! A31   A(13,14,25)           158.1701         estimate D2E/DX2                !
 ! A32   A(15,14,25)            75.3276         estimate D2E/DX2                !
 ! A33   A(11,15,14)           119.0514         estimate D2E/DX2                !
 ! A34   A(17,16,26)            97.7677         estimate D2E/DX2                !
 ! A35   A(4,17,16)             87.8221         estimate D2E/DX2                !
 ! A36   A(4,17,27)            144.2081         estimate D2E/DX2                !
 ! A37   A(16,17,27)           127.9698         estimate D2E/DX2                !
 ! A38   A(3,18,4)              86.7724         estimate D2E/DX2                !
 ! A39   A(3,18,28)            126.7908         estimate D2E/DX2                !
 ! A40   A(4,18,28)            146.4368         estimate D2E/DX2                !
 ! A41   A(2,24,12)            121.9567         estimate D2E/DX2                !
 ! A42   L(5,4,18,17,-1)       191.9616         estimate D2E/DX2                !
 ! A43   L(10,11,15,13,-1)     180.9224         estimate D2E/DX2                !
 ! A44   L(5,4,18,17,-2)       180.0            estimate D2E/DX2                !
 ! A45   L(10,11,15,13,-2)     179.9998         estimate D2E/DX2                !
 ! D1    D(1,2,24,12)            0.0012         estimate D2E/DX2                !
 ! D2    D(17,4,5,6)          -179.9995         estimate D2E/DX2                !
 ! D3    D(17,4,5,19)            0.0001         estimate D2E/DX2                !
 ! D4    D(6,5,18,3)             0.0001         estimate D2E/DX2                !
 ! D5    D(6,5,18,28)         -179.9991         estimate D2E/DX2                !
 ! D6    D(19,5,18,3)          179.9998         estimate D2E/DX2                !
 ! D7    D(19,5,18,28)           0.0006         estimate D2E/DX2                !
 ! D8    D(5,4,17,16)         -179.9997         estimate D2E/DX2                !
 ! D9    D(5,4,17,27)           -0.0006         estimate D2E/DX2                !
 ! D10   D(18,4,17,16)           0.0003         estimate D2E/DX2                !
 ! D11   D(18,4,17,27)         179.9993         estimate D2E/DX2                !
 ! D12   D(17,4,18,3)          179.9997         estimate D2E/DX2                !
 ! D13   D(17,4,18,28)           0.0004         estimate D2E/DX2                !
 ! D14   D(4,5,6,7)           -179.9995         estimate D2E/DX2                !
 ! D15   D(4,5,6,20)            -0.0005         estimate D2E/DX2                !
 ! D16   D(19,5,6,7)             0.0009         estimate D2E/DX2                !
 ! D17   D(19,5,6,20)          179.9998         estimate D2E/DX2                !
 ! D18   D(5,6,7,8)            179.9996         estimate D2E/DX2                !
 ! D19   D(5,6,7,21)            -0.0012         estimate D2E/DX2                !
 ! D20   D(20,6,7,8)             0.0003         estimate D2E/DX2                !
 ! D21   D(20,6,7,21)          179.9995         estimate D2E/DX2                !
 ! D22   D(6,7,8,9)            179.9993         estimate D2E/DX2                !
 ! D23   D(6,7,8,22)            -0.0001         estimate D2E/DX2                !
 ! D24   D(21,7,8,9)             0.0            estimate D2E/DX2                !
 ! D25   D(21,7,8,22)         -179.9993         estimate D2E/DX2                !
 ! D26   D(7,8,9,10)           180.0            estimate D2E/DX2                !
 ! D27   D(7,8,9,23)             0.0004         estimate D2E/DX2                !
 ! D28   D(22,8,9,10)           -0.0006         estimate D2E/DX2                !
 ! D29   D(22,8,9,23)          179.9998         estimate D2E/DX2                !
 ! D30   D(8,9,10,11)         -179.9999         estimate D2E/DX2                !
 ! D31   D(8,9,10,12)            0.0014         estimate D2E/DX2                !
 ! D32   D(23,9,10,11)          -0.0006         estimate D2E/DX2                !
 ! D33   D(23,9,10,12)        -179.9993         estimate D2E/DX2                !
 ! D34   D(9,10,11,13)        -179.9999         estimate D2E/DX2                !
 ! D35   D(12,10,11,13)         -0.0004         estimate D2E/DX2                !
 ! D36   D(9,10,12,13)         179.999          estimate D2E/DX2                !
 ! D37   D(9,10,12,24)          -0.0012         estimate D2E/DX2                !
 ! D38   D(11,10,12,13)          0.0003         estimate D2E/DX2                !
 ! D39   D(11,10,12,24)       -179.9999         estimate D2E/DX2                !
 ! D40   D(9,10,15,14)         179.9999         estimate D2E/DX2                !
 ! D41   D(12,10,15,14)         -0.0005         estimate D2E/DX2                !
 ! D42   D(10,11,13,12)          0.0003         estimate D2E/DX2                !
 ! D43   D(10,11,13,14)        179.9999         estimate D2E/DX2                !
 ! D44   D(15,11,13,12)       -179.9995         estimate D2E/DX2                !
 ! D45   D(15,11,13,14)          0.0001         estimate D2E/DX2                !
 ! D46   D(13,11,15,14)         -0.0002         estimate D2E/DX2                !
 ! D47   D(10,12,13,11)         -0.0003         estimate D2E/DX2                !
 ! D48   D(10,12,13,14)         -0.0008         estimate D2E/DX2                !
 ! D49   D(24,12,13,11)         -0.0008         estimate D2E/DX2                !
 ! D50   D(24,12,13,14)         -0.0013         estimate D2E/DX2                !
 ! D51   D(10,12,24,2)         179.9998         estimate D2E/DX2                !
 ! D52   D(13,12,24,2)        -179.9996         estimate D2E/DX2                !
 ! D53   D(11,13,14,15)         -0.0001         estimate D2E/DX2                !
 ! D54   D(11,13,14,25)          0.0006         estimate D2E/DX2                !
 ! D55   D(12,13,14,15)          0.0004         estimate D2E/DX2                !
 ! D56   D(12,13,14,25)          0.0011         estimate D2E/DX2                !
 ! D57   D(13,14,15,11)          0.0002         estimate D2E/DX2                !
 ! D58   D(25,14,15,11)       -179.9995         estimate D2E/DX2                !
 ! D59   D(26,16,17,4)         179.9998         estimate D2E/DX2                !
 ! D60   D(26,16,17,27)          0.0004         estimate D2E/DX2                !
 --------------------------------------------------------------------------------
 Trust Radius=3.00D-01 FncErr=1.00D-07 GrdErr=1.00D-06 EigMax=2.50D+02 EigMin=1.00D-04
 Number of steps in this run=    144 maximum allowed number of steps=    168.
 GradGradGradGradGradGradGradGradGradGradGradGradGradGradGradGradGradGrad

                          Input orientation:                          
 ---------------------------------------------------------------------
 Center     Atomic      Atomic             Coordinates (Angstroms)
 Number     Number       Type             X           Y           Z
 ---------------------------------------------------------------------
      1          8           0        1.543450    1.209920    2.526310
      2          6           0        2.643440    1.475910    3.128210
      3          6           0        2.834400    0.526070    0.978880
      4          6           0        4.097280   -0.081720   -0.396460
      5          6           0        5.299530    0.194050    0.227560
      6          6           0        4.929770    0.694530    1.360080
      7          6           0        5.625620    1.102680    2.283640
      8          6           0        5.237490    1.592150    3.391230
      9          6           0        5.508580    2.079990    4.495140
     10          6           0        4.318680    2.326700    5.053390
     11          6           0        4.681020    2.812950    6.153700
     12          6           0        2.988400    2.398230    5.215260
     13          7           0        3.044700    3.139130    6.891780
     14          6           0        4.223300    3.715430    8.195870
     15          7           0        5.096940    3.340210    7.346820
     16          6           0        4.021490   -0.888420   -2.221890
     17          6           0        5.045330   -0.613430   -1.599620
     18          6           0        3.286080   -0.185810   -0.632000
     19          1           0        6.295880    0.069290   -0.054750
     20          1           0        4.091510    0.915400    1.859870
     21          1           0        6.578880    1.069870    2.209410
     22          1           0        4.312720    1.583660    3.372030
     23          1           0        6.486960    2.152140    4.658400
     24          1           0        3.458770    1.931650    4.159460
     25          1           0        5.585380    4.015500    8.874880
     26          1           0        4.559880   -1.337880   -3.238950
     27          1           0        6.397010   -0.795460   -2.011540
     28          1           0        2.377540   -0.642170   -1.664650
 ---------------------------------------------------------------------
                    Distance matrix (angstroms):
                    1          2          3          4          5
     1  O    0.000000
     2  C    1.281800   0.000000
     3  C    2.128084   2.357601   0.000000
     4  C    4.090595   4.118636   1.963628   0.000000
     5  C    4.519334   4.136635   2.598381   1.382337   0.000000
     6  C    3.618409   2.994018   2.136415   2.093093   1.292209
     7  C    4.090782   3.121858   3.134611   3.304779   2.271433
     8  C    3.813151   2.609940   3.568025   4.295173   3.459384
     9  C    4.511715   3.231476   4.682947   5.531049   4.670408
    10  C    3.916023   2.690091   4.695422   5.962413   5.366460
    11  C    5.056877   3.884971   5.951352   7.185017   6.508481
    12  C    3.275731   2.307693   4.634179   6.234675   5.922574
    13  N    5.003292   4.134219   6.467975   8.037428   7.626899
    14  C    6.753006   5.761301   8.011617   9.394805   8.777947
    15  N    6.356315   5.224170   7.320460   8.524512   7.786092
    16  C    5.752314   6.009380   3.695253   1.997174   2.967311
    17  C    5.710610   5.699719   3.582643   1.621453   2.013760
    18  C    3.867783   4.160947   1.818165   0.851093   2.221963
    19  H    5.527070   5.044812   3.641275   2.230115   1.043062
    20  H    2.650188   2.004935   1.583681   2.466841   2.155016
    21  H    5.047335   4.061619   3.978826   3.778235   2.516252
    22  H    2.919551   1.690430   3.005178   4.125703   3.576661
    23  H    5.465517   4.191827   5.433614   6.020989   4.987630
    24  H    2.618496   1.391380   3.532928   5.021729   4.676269
    25  H    8.031987   6.937488   9.060399  10.244969   9.458400
    26  H    6.987729   7.220172   4.923584   3.141924   3.861422
    27  H    6.940510   6.757621   4.835416   2.899425   2.682753
    28  H    4.657262   5.246758   2.926048   2.209053   3.580188
                    6          7          8          9         10
     6  C    0.000000
     7  C    1.226278   0.000000
     8  C    2.241871   1.271606   0.000000
     9  C    3.476078   2.420654   1.236970   0.000000
    10  C    4.083864   3.298156   2.036308   1.337300   0.000000
    11  C    5.246749   4.335281   3.071034   1.993215   1.256348
    12  C    4.640466   4.150635   3.005870   2.640295   1.342000
    13  N    6.334766   5.660674   4.410819   3.596716   2.379652
    14  C    7.506861   6.614184   5.349903   4.245234   3.436983
    15  N    6.547414   5.560740   4.326911   3.144786   2.625398
    16  C    4.020101   5.180493   6.256117   7.492756   7.959587
    17  C    3.237891   4.285030   5.459862   6.679462   7.309920
    18  C    2.728571   3.954063   4.812019   6.030002   6.301002
    19  H    2.063716   2.642955   3.913320   5.036294   5.924383
    20  H    1.000627   1.602544   2.028873   3.210764   3.498849
    21  H    1.892566   0.956709   1.862472   2.718537   3.844002
    22  H    2.284567   1.771903   0.925008   1.714001   1.838237
    23  H    3.927898   2.735463   1.865606   0.994528   2.210866
    24  H    3.395708   2.983476   1.967049   2.082404   1.301776
    25  H    8.242019   7.206288   6.005337   4.788969   4.365817
    26  H    5.041685   6.131161   7.280351   8.508702   9.069191
    27  H    3.967453   4.758839   6.019559   7.168989   7.998786
    28  H    4.177276   5.402177   6.223618   7.426748   7.596991
                   11         12         13         14         15
    11  C    0.000000
    12  C    1.979299   0.000000
    13  N    1.824472   1.833800   0.000000
    14  C    2.279131   3.484829   1.849830   0.000000
    15  N    1.369134   3.142740   2.111678   1.274725   0.000000
    16  C    9.180720   8.196374  10.011706  11.391483  10.516564
    17  C    8.484502   7.729401   9.496742  10.740875   9.781243
    18  C    7.548784   6.399713   8.229262   9.696873   8.909186
    19  H    6.977127   6.643522   8.261257   9.255412   8.180441
    20  H    4.731299   3.830702   5.600081   6.928379   6.082533
    21  H    4.711435   4.867363   6.220680   6.955965   5.808922
    22  H    3.063411   2.411399   4.051667   5.274644   4.415815
    23  H    2.435983   3.551137   4.220342   4.481264   3.251349
    24  H    2.499516   1.246458   3.015797   4.478726   3.850572
    25  H    3.109472   4.769978   3.340025   1.551244   1.740562
    26  H   10.269661   9.375592  11.179046  12.506172  11.585831
    27  H    9.090456   8.604936  10.295052  11.369449  10.313721
    28  H    8.852710   7.546545   9.378477  10.937338  10.220620
                   16         17         18         19         20
    16  C    0.000000
    17  C    1.229263   0.000000
    18  C    1.887389   2.052829   0.000000
    19  H    3.284289   2.101572   3.075254   0.000000
    20  H    4.463119   3.900662   2.840915   3.039888   0.000000
    21  H    5.478281   4.437790   4.526906   2.491520   2.516555
    22  H    6.122739   5.484635   4.496362   4.238993   1.667973
    23  H    7.915929   6.992102   6.610596   5.156409   3.885805
    24  H    6.999363   6.493197   5.241331   5.410836   2.592535
    25  H   12.232436  11.464458  10.645119   9.788548   7.813618
    26  H    1.235431   1.856850   3.121862   3.890110   5.594158
    27  H    2.386626   1.424729   3.457266   2.141739   4.819770
    28  H    1.753205   2.668737   1.449164   4.295502   4.217340
                   21         22         23         24         25
    21  H    0.000000
    22  H    2.598297   0.000000
    23  H    2.679050   2.589447   0.000000
    24  H    3.778948   1.212590   3.076929   0.000000
    25  H    7.354745   6.149379   4.697197   5.576745   0.000000
    26  H    6.289535   7.231980   8.846582   8.163255  13.283644
    27  H    4.618328   6.243981   7.292773   7.358779  11.929720
    28  H    5.965792   5.836727   8.042168   6.458627  11.961012
                   26         27         28
    26  H    0.000000
    27  H    2.275039   0.000000
    28  H    2.779396   4.037322   0.000000
 Stoichiometry    C15H10N2O
 Framework group  C1[X(C15H10N2O)]
 Deg. of freedom    78
 Full point group                 C1      NOp   1
 Largest Abelian subgroup         C1      NOp   1
 Largest concise Abelian subgroup C1      NOp   1
                         Standard orientation:                         
 ---------------------------------------------------------------------
 Center     Atomic      Atomic             Coordinates (Angstroms)
 Number     Number       Type             X           Y           Z
 ---------------------------------------------------------------------
      1          8           0       -0.393235    2.619546    0.000000
      2          6           0        0.265751    1.520114    0.000003
      3          6           0       -2.083941    1.327162    0.000004
      4          6           0       -3.586522    0.063008   -0.000001
      5          6           0       -2.903263   -1.138663   -0.000002
      6          6           0       -1.665401   -0.767854    0.000004
      7          6           0       -0.655084   -1.462847   -0.000002
      8          6           0        0.555511   -1.073691   -0.000002
      9          6           0        1.762639   -1.343758    0.000001
     10          6           0        2.371965   -0.153341   -0.000004
     11          6           0        3.575235   -0.514661   -0.000002
     12          6           0        2.547807    1.177089    0.000000
     13          7           0        4.380790    1.122343   -0.000006
     14          6           0        5.807542   -0.055048    0.000001
     15          7           0        4.880018   -0.929474    0.000005
     16          6           0       -5.582320    0.137106   -0.000002
     17          6           0       -4.901130   -0.886157    0.000003
     18          6           0       -3.844724    0.873989   -0.000002
     19          1           0       -3.211067   -2.135275   -0.000002
     20          1           0       -1.119693    0.070869    0.000004
     21          1           0       -0.735433   -2.416176    0.000003
     22          1           0        0.533733   -0.148939    0.000003
     23          1           0        1.941961   -2.321986   -0.000000
     24          1           0        1.393906    0.705741   -0.000003
     25          1           0        6.551055   -1.416498    0.000001
     26          1           0       -6.693810   -0.402227   -0.000004
     27          1           0       -5.350331   -2.238219   -0.000004
     28          1           0       -4.974489    1.781572    0.000006
 ---------------------------------------------------------------------
 Rotational constants (GHZ):           1.4964027           0.1874860           0.1666111
 Standard basis: 6-31G(2df,p) (6D, 7F)
 There are   608 symmetry adapted cartesian basis functions of A   symmetry.
 There are   554 symmetry adapted basis functions of A   symmetry.
   554 basis functions,   862 primitive gaussians,   608 cartesian basis functions
    61 alpha electrons       61 beta electrons
       nuclear repulsion energy      1130.1154648810 Hartrees.
 NAtoms=   28 NActive=   28 NUniq=   28 SFac= 1.00D+00 NAtFMM=   60 NAOKFM=F Big=F
 Integral buffers will be    131072 words long.
 Raffenetti 2 integral format.
 Two-electron integral symmetry is turned on.
 One-electron integrals computed using PRISM.
 PrsmSu:  requested number of processors reduced to:  12 ShMem   1 Linda.
 NBasis=   554 RedAO= T EigKep=  3.12D-05  NBF=   554
 NBsUse=   554 1.00D-06 EigRej= -1.00D+00 NBFU=   554
 ExpMin= 1.61D-01 ExpMax= 5.48D+03 ExpMxC= 8.25D+02 IAcc=3 IRadAn=         5 AccDes= 0.00D+00
 Harris functional with IExCor=  402 and IRadAn=       5 diagonalized for initial guess.
 HarFok:  IExCor=  402 AccDes= 0.00D+00 IRadAn=         5 IDoV= 1 UseB2=F ITyADJ=14
 ICtDFT=  3500011 ScaDFX=  1.000000  1.000000  1.000000  1.000000
 FoFCou: FMM=F IPFlag=           0 FMFlag=      100000 FMFlg1=           0
         NFxFlg=           0 DoJE=T BraDBF=F KetDBF=T FulRan=T
         wScrn=  0.000000 ICntrl=       500 IOpCl=  0 I1Cent=   200000004 NGrid=           0
         NMat0=    1 NMatS0=      1 NMatT0=    0 NMatD0=    1 NMtDS0=    0 NMtDT0=    0
 Petite list used in FoFCou.
 Requested convergence on RMS density matrix=1.00D-08 within 128 cycles.
 Requested convergence on MAX density matrix=1.00D-06.
 Requested convergence on             energy=1.00D-06.
 No special actions if energy rises.
 Integral accuracy reduced to 1.0D-05 until final iterations.
 Rare condition: small coef for last iteration:  0.000D+00
 EnCoef did   100 forward-backward iterations
 EnCoef did   100 forward-backward iterations
 EnCoef did   100 forward-backward iterations
 EnCoef did     8 forward-backward iterations
 EnCoef did     6 forward-backward iterations
 EnCoef did     6 forward-backward iterations
 EnCoef did    18 forward-backward iterations
 EnCoef did    35 forward-backward iterations
 EnCoef did   100 forward-backward iterations
 EnCoef did    44 forward-backward iterations
 EnCoef did    66 forward-backward iterations
 EnCoef did    39 forward-backward iterations
 Problem detected with inexpensive integrals.
 Switching to full accuracy and repeating last cycle.
 EnCoef did     4 forward-backward iterations
 EnCoef did   100 forward-backward iterations
 EnCoef did   100 forward-backward iterations
 EnCoef did   100 forward-backward iterations
 EnCoef did   100 forward-backward iterations
 EnCoef did   100 forward-backward iterations
 EnCoef did    12 forward-backward iterations
 EnCoef did    13 forward-backward iterations
 EnCoef did   100 forward-backward iterations
 EnCoef did   100 forward-backward iterations
 EnCoef did   100 forward-backward iterations
 EnCoef did   100 forward-backward iterations
 EnCoef did   100 forward-backward iterations
 EnCoef did   100 forward-backward iterations
 EnCoef did    35 forward-backward iterations
 EnCoef did    93 forward-backward iterations
 EnCoef did   100 forward-backward iterations
 EnCoef did   100 forward-backward iterations
 Restarting incremental Fock formation.
 EnCoef did    20 forward-backward iterations
 SCF Done:  E(RB3LYP) =  -759.753527676     A.U. after   55 cycles
            NFock= 55  Conv=0.34D-08     -V/T= 1.9960

 **********************************************************************

            Population analysis using the SCF density.

 **********************************************************************

 Orbital symmetries:
       Occupied  (A) (A) (A) (A) (A) (A) (A) (A) (A) (A) (A) (A)
                 (A) (A) (A) (A) (A) (A) (A) (A) (A) (A) (A) (A)
                 (A) (A) (A) (A) (A) (A) (A) (A) (A) (A) (A) (A)
                 (A) (A) (A) (A) (A) (A) (A) (A) (A) (A) (A) (A)
                 (A) (A) (A) (A) (A) (A) (A) (A) (A) (A) (A) (A)
                 (A)
       Virtual   (A) (A) (A) (A) (A) (A) (A) (A) (A) (A) (A) (A)
                 (A) (A) (A) (A) (A) (A) (A) (A) (A) (A) (A) (A)
                 (A) (A) (A) (A) (A) (A) (A) (A) (A) (A) (A) (A)
                 (A) (A) (A) (A) (A) (A) (A) (A) (A) (A) (A) (A)
                 (A) (A) (A) (A) (A) (A) (A) (A) (A) (A) (A) (A)
                 (A) (A) (A) (A) (A) (A) (A) (A) (A) (A) (A) (A)
                 (A) (A) (A) (A) (A) (A) (A) (A) (A) (A) (A) (A)
                 (A) (A) (A) (A) (A) (A) (A) (A) (A) (A) (A) (A)
                 (A) (A) (A) (A) (A) (A) (A) (A) (A) (A) (A) (A)
                 (A) (A) (A) (A) (A) (A) (A) (A) (A) (A) (A) (A)
                 (A) (A) (A) (A) (A) (A) (A) (A) (A) (A) (A) (A)
                 (A) (A) (A) (A) (A) (A) (A) (A) (A) (A) (A) (A)
                 (A) (A) (A) (A) (A) (A) (A) (A) (A) (A) (A) (A)
                 (A) (A) (A) (A) (A) (A) (A) (A) (A) (A) (A) (A)
                 (A) (A) (A) (A) (A) (A) (A) (A) (A) (A) (A) (A)
                 (A) (A) (A) (A) (A) (A) (A) (A) (A) (A) (A) (A)
                 (A) (A) (A) (A) (A) (A) (A) (A) (A) (A) (A) (A)
                 (A) (A) (A) (A) (A) (A) (A) (A) (A) (A) (A) (A)
                 (A) (A) (A) (A) (A) (A) (A) (A) (A) (A) (A) (A)
                 (A) (A) (A) (A) (A) (A) (A) (A) (A) (A) (A) (A)
                 (A) (A) (A) (A) (A) (A) (A) (A) (A) (A) (A) (A)
                 (A) (A) (A) (A) (A) (A) (A) (A) (A) (A) (A) (A)
                 (A) (A) (A) (A) (A) (A) (A) (A) (A) (A) (A) (A)
                 (A) (A) (A) (A) (A) (A) (A) (A) (A) (A) (A) (A)
                 (A) (A) (A) (A) (A) (A) (A) (A) (A) (A) (A) (A)
                 (A) (A) (A) (A) (A) (A) (A) (A) (A) (A) (A) (A)
                 (A) (A) (A) (A) (A) (A) (A) (A) (A) (A) (A) (A)
                 (A) (A) (A) (A) (A) (A) (A) (A) (A) (A) (A) (A)
                 (A) (A) (A) (A) (A) (A) (A) (A) (A) (A) (A) (A)
                 (A) (A) (A) (A) (A) (A) (A) (A) (A) (A) (A) (A)
                 (A) (A) (A) (A) (A) (A) (A) (A) (A) (A) (A) (A)
                 (A) (A) (A) (A) (A) (A) (A) (A) (A) (A) (A) (A)
                 (A) (A) (A) (A) (A) (A) (A) (A) (A) (A) (A) (A)
                 (A) (A) (A) (A) (A) (A) (A) (A) (A) (A) (A) (A)
                 (A) (A) (A) (A) (A) (A) (A) (A) (A) (A) (A) (A)
                 (A) (A) (A) (A) (A) (A) (A) (A) (A) (A) (A) (A)
                 (A) (A) (A) (A) (A) (A) (A) (A) (A) (A) (A) (A)
                 (A) (A) (A) (A) (A) (A) (A) (A) (A) (A) (A) (A)
                 (A) (A) (A) (A) (A) (A) (A) (A) (A) (A) (A) (A)
                 (A) (A) (A) (A) (A) (A) (A) (A) (A) (A) (A) (A)
                 (A) (A) (A) (A) (A) (A) (A) (A) (A) (A) (A) (A)
                 (A)
 The electronic state is 1-A.
 Alpha  occ. eigenvalues --  -19.22285 -14.36181 -14.34441 -10.31987 -10.31152
 Alpha  occ. eigenvalues --  -10.29344 -10.29239 -10.24886 -10.23822 -10.23719
 Alpha  occ. eigenvalues --  -10.23530 -10.22707 -10.21613 -10.21308 -10.19627
 Alpha  occ. eigenvalues --  -10.19352 -10.18440 -10.16195  -1.06814  -1.00522
 Alpha  occ. eigenvalues --   -0.97813  -0.96153  -0.92687  -0.86220  -0.81257
 Alpha  occ. eigenvalues --   -0.79937  -0.77993  -0.72302  -0.69211  -0.66789
 Alpha  occ. eigenvalues --   -0.63963  -0.63464  -0.59620  -0.57453  -0.56244
 Alpha  occ. eigenvalues --   -0.54143  -0.52550  -0.50688  -0.50299  -0.47420
 Alpha  occ. eigenvalues --   -0.47221  -0.44800  -0.43689  -0.43298  -0.42000
 Alpha  occ. eigenvalues --   -0.41956  -0.41303  -0.40885  -0.36613  -0.36320
 Alpha  occ. eigenvalues --   -0.35136  -0.31840  -0.31273  -0.30414  -0.30126
 Alpha  occ. eigenvalues --   -0.27502  -0.22608  -0.20685  -0.19902  -0.19515
 Alpha  occ. eigenvalues --   -0.16793
 Alpha virt. eigenvalues --   -0.15852  -0.13576  -0.12377  -0.09855  -0.07157
 Alpha virt. eigenvalues --   -0.06441  -0.04575  -0.04218  -0.01588   0.00530
 Alpha virt. eigenvalues --    0.01547   0.02534   0.03617   0.06513   0.08701
 Alpha virt. eigenvalues --    0.10393   0.10796   0.11264   0.11494   0.13588
 Alpha virt. eigenvalues --    0.14553   0.18190   0.18525   0.20017   0.22267
 Alpha virt. eigenvalues --    0.23328   0.27890   0.29221   0.32131   0.33077
 Alpha virt. eigenvalues --    0.33568   0.33893   0.34890   0.35813   0.37612
 Alpha virt. eigenvalues --    0.38373   0.38523   0.39763   0.41505   0.41559
 Alpha virt. eigenvalues --    0.43190   0.43907   0.44421   0.45239   0.46214
 Alpha virt. eigenvalues --    0.47127   0.48472   0.49589   0.50181   0.50876
 Alpha virt. eigenvalues --    0.50923   0.51810   0.53436   0.53857   0.55994
 Alpha virt. eigenvalues --    0.56402   0.56443   0.56761   0.57560   0.57676
 Alpha virt. eigenvalues --    0.58427   0.59270   0.59845   0.60202   0.60563
 Alpha virt. eigenvalues --    0.62088   0.62321   0.62375   0.62822   0.63434
 Alpha virt. eigenvalues --    0.63912   0.65087   0.66143   0.67452   0.68479
 Alpha virt. eigenvalues --    0.69663   0.70267   0.70393   0.71482   0.72343
 Alpha virt. eigenvalues --    0.73153   0.74928   0.75238   0.76119   0.76567
 Alpha virt. eigenvalues --    0.76846   0.77711   0.79251   0.80810   0.80892
 Alpha virt. eigenvalues --    0.82233   0.82915   0.83197   0.84087   0.84885
 Alpha virt. eigenvalues --    0.84979   0.86368   0.86752   0.87716   0.87824
 Alpha virt. eigenvalues --    0.88435   0.89507   0.89733   0.91269   0.91890
 Alpha virt. eigenvalues --    0.93497   0.94250   0.95724   0.97483   0.97962
 Alpha virt. eigenvalues --    0.98710   0.99350   1.00175   1.01614   1.02949
 Alpha virt. eigenvalues --    1.03795   1.04792   1.05081   1.05646   1.06458
 Alpha virt. eigenvalues --    1.07807   1.08362   1.09423   1.10932   1.11274
 Alpha virt. eigenvalues --    1.11903   1.14842   1.15748   1.15855   1.16919
 Alpha virt. eigenvalues --    1.17527   1.19613   1.20696   1.20910   1.22285
 Alpha virt. eigenvalues --    1.23604   1.24424   1.27297   1.27622   1.28574
 Alpha virt. eigenvalues --    1.28941   1.30176   1.31247   1.32049   1.32825
 Alpha virt. eigenvalues --    1.35136   1.36803   1.36834   1.37935   1.40161
 Alpha virt. eigenvalues --    1.40307   1.40552   1.42198   1.43933   1.44560
 Alpha virt. eigenvalues --    1.46141   1.47814   1.48332   1.49054   1.49185
 Alpha virt. eigenvalues --    1.50169   1.52672   1.54733   1.55174   1.55975
 Alpha virt. eigenvalues --    1.57111   1.57711   1.58803   1.60935   1.61232
 Alpha virt. eigenvalues --    1.61740   1.62338   1.63630   1.64664   1.65969
 Alpha virt. eigenvalues --    1.66641   1.68665   1.69053   1.69534   1.71028
 Alpha virt. eigenvalues --    1.72854   1.75395   1.76913   1.77796   1.78981
 Alpha virt. eigenvalues --    1.79804   1.81271   1.83397   1.85572   1.89711
 Alpha virt. eigenvalues --    1.91103   1.92356   1.92688   1.93590   1.96433
 Alpha virt. eigenvalues --    1.96692   2.00645   2.03494   2.03632   2.05235
 Alpha virt. eigenvalues --    2.07723   2.09678   2.10148   2.13228   2.14814
 Alpha virt. eigenvalues --    2.16051   2.20032   2.20612   2.21091   2.23051
 Alpha virt. eigenvalues --    2.23285   2.26745   2.28793   2.30109   2.32776
 Alpha virt. eigenvalues --    2.33928   2.35839   2.39110   2.39515   2.41072
 Alpha virt. eigenvalues --    2.43870   2.46851   2.48476   2.49376   2.50392
 Alpha virt. eigenvalues --    2.50862   2.52938   2.54312   2.55027   2.56599
 Alpha virt. eigenvalues --    2.58934   2.60083   2.63521   2.67046   2.67996
 Alpha virt. eigenvalues --    2.70681   2.70866   2.71208   2.72650   2.72996
 Alpha virt. eigenvalues --    2.75642   2.76221   2.77096   2.79359   2.80933
 Alpha virt. eigenvalues --    2.82572   2.84085   2.84755   2.84761   2.85918
 Alpha virt. eigenvalues --    2.88359   2.89101   2.89211   2.90705   2.91711
 Alpha virt. eigenvalues --    2.93539   2.94505   2.96534   2.96537   2.98186
 Alpha virt. eigenvalues --    2.98519   3.00432   3.01017   3.01903   3.03590
 Alpha virt. eigenvalues --    3.04294   3.05120   3.07238   3.07943   3.08589
 Alpha virt. eigenvalues --    3.10681   3.11652   3.12222   3.12680   3.13539
 Alpha virt. eigenvalues --    3.13702   3.17129   3.17743   3.18011   3.20202
 Alpha virt. eigenvalues --    3.20222   3.20595   3.20899   3.22522   3.23559
 Alpha virt. eigenvalues --    3.24029   3.26580   3.27316   3.28164   3.30032
 Alpha virt. eigenvalues --    3.31026   3.31314   3.32501   3.33636   3.34945
 Alpha virt. eigenvalues --    3.35373   3.37153   3.38425   3.38625   3.40359
 Alpha virt. eigenvalues --    3.42200   3.44009   3.44954   3.45672   3.47217
 Alpha virt. eigenvalues --    3.47951   3.49957   3.50538   3.51311   3.53977
 Alpha virt. eigenvalues --    3.55376   3.57275   3.58957   3.60966   3.63193
 Alpha virt. eigenvalues --    3.63384   3.64699   3.65447   3.66279   3.68594
 Alpha virt. eigenvalues --    3.70911   3.71169   3.73461   3.74125   3.74694
 Alpha virt. eigenvalues --    3.75314   3.75786   3.76559   3.76787   3.78559
 Alpha virt. eigenvalues --    3.82252   3.82348   3.83993   3.84576   3.86283
 Alpha virt. eigenvalues --    3.88299   3.92158   3.93306   3.93663   3.94134
 Alpha virt. eigenvalues --    3.96489   3.98881   4.00251   4.00311   4.02222
 Alpha virt. eigenvalues --    4.02764   4.07154   4.07657   4.07851   4.09478
 Alpha virt. eigenvalues --    4.09665   4.11888   4.14305   4.14896   4.15570
 Alpha virt. eigenvalues --    4.17679   4.19176   4.19746   4.21280   4.21498
 Alpha virt. eigenvalues --    4.23358   4.23387   4.25829   4.28552   4.28574
 Alpha virt. eigenvalues --    4.29348   4.31375   4.32452   4.33419   4.33975
 Alpha virt. eigenvalues --    4.35146   4.36444   4.39344   4.39578   4.39776
 Alpha virt. eigenvalues --    4.41522   4.42171   4.42916   4.45285   4.45700
 Alpha virt. eigenvalues --    4.47047   4.47568   4.49103   4.50618   4.51927
 Alpha virt. eigenvalues --    4.53113   4.54506   4.54771   4.56222   4.58437
 Alpha virt. eigenvalues --    4.59199   4.59954   4.61854   4.64051   4.64279
 Alpha virt. eigenvalues --    4.66413   4.66658   4.67412   4.69903   4.74460
 Alpha virt. eigenvalues --    4.75011   4.75319   4.77042   4.77799   4.80919
 Alpha virt. eigenvalues --    4.81323   4.81775   4.83302   4.83718   4.85995
 Alpha virt. eigenvalues --    4.87429   4.88135   4.88587   4.91453   4.92085
 Alpha virt. eigenvalues --    4.94621   4.96201   4.97070   4.98215   5.00666
 Alpha virt. eigenvalues --    5.00995   5.01492   5.03295   5.03846   5.07736
 Alpha virt. eigenvalues --    5.07854   5.11604   5.14875   5.15984   5.20984
 Alpha virt. eigenvalues --    5.21039   5.21297   5.26355   5.27169   5.28514
 Alpha virt. eigenvalues --    5.29742   5.30163   5.31377   5.33993   5.34955
 Alpha virt. eigenvalues --    5.36293   5.40245   5.42701   5.44649   5.50482
 Alpha virt. eigenvalues --    5.55858   5.58448   5.60366   5.66936   5.68251
 Alpha virt. eigenvalues --    5.71169   5.75902   5.79643   5.81551   5.82285
 Alpha virt. eigenvalues --    5.95150   5.97155   6.04801   6.06491   6.17860
 Alpha virt. eigenvalues --    6.22285   6.33817   6.34351   6.36333   6.39975
 Alpha virt. eigenvalues --    6.47100   6.70633   6.82858   6.91013   7.21780
 Alpha virt. eigenvalues --    7.82758   7.87146   8.18245   9.82299   9.88268
 Alpha virt. eigenvalues --   10.05354  10.22671  10.36762  10.43380  10.61327
 Alpha virt. eigenvalues --   10.83380  11.01874  11.21915  11.35221  11.41898
 Alpha virt. eigenvalues --   11.47431  11.70407  12.04266  12.50154  12.65011
 Alpha virt. eigenvalues --   13.14041  13.28666  22.05173
          Condensed to atoms (all electrons):
               1          2          3          4          5          6
     1  O    7.766783   0.509159  -0.014468   0.000436   0.000035   0.003040
     2  C    0.509159   5.488781  -0.004582   0.000152  -0.000109  -0.040169
     3  C   -0.014468  -0.004582   6.173571  -0.026149   0.015835   0.007871
     4  C    0.000436   0.000152  -0.026149  11.158232   0.364883   0.104387
     5  C    0.000035  -0.000109   0.015835   0.364883   5.893250   0.368462
     6  C    0.003040  -0.040169   0.007871   0.104387   0.368462   5.141018
     7  C   -0.000621  -0.010059  -0.029216   0.001329  -0.017348   0.131380
     8  C    0.006664  -0.077929   0.008133  -0.002557  -0.000443   0.225686
     9  C   -0.000582  -0.000273   0.000019   0.000011  -0.001527   0.013842
    10  C    0.004820  -0.006323   0.000144  -0.000003   0.000051   0.012280
    11  C    0.000128   0.024151   0.000001  -0.000000  -0.000000   0.001022
    12  C    0.000716   0.001715   0.000173   0.000000   0.000008   0.001039
    13  N    0.000003  -0.000167  -0.000000   0.000000   0.000000  -0.000001
    14  C   -0.000000   0.000001   0.000000  -0.000000   0.000000   0.000000
    15  N    0.000000   0.000114  -0.000000  -0.000000   0.000000   0.000001
    16  C    0.000000  -0.000000   0.001570  -0.501942  -0.059344  -0.002246
    17  C   -0.000003  -0.000018   0.006523  -0.316339   0.101429  -0.021306
    18  C   -0.000196   0.000745   0.115982  -5.803373  -0.158301  -0.106517
    19  H    0.000002  -0.000036   0.002594  -0.069726   0.324310  -0.025340
    20  H   -0.002637   0.063942  -0.088994  -0.007612  -0.100849   0.184137
    21  H    0.000011  -0.001236   0.000006   0.002214  -0.020415  -0.054718
    22  H   -0.020393  -0.054549   0.003464   0.000003   0.001840  -0.154190
    23  H    0.000000  -0.000775   0.000003  -0.000002   0.000039  -0.001359
    24  H   -0.032930   0.080401  -0.001456   0.000014  -0.000270  -0.002822
    25  H    0.000000   0.000000  -0.000000  -0.000000   0.000000   0.000000
    26  H   -0.000000  -0.000000  -0.000130   0.050631   0.002843   0.000175
    27  H    0.000000   0.000000   0.000108  -0.061514  -0.016485  -0.000288
    28  H    0.000025   0.000012  -0.007068   0.021088   0.001042   0.000149
               7          8          9         10         11         12
     1  O   -0.000621   0.006664  -0.000582   0.004820   0.000128   0.000716
     2  C   -0.010059  -0.077929  -0.000273  -0.006323   0.024151   0.001715
     3  C   -0.029216   0.008133   0.000019   0.000144   0.000001   0.000173
     4  C    0.001329  -0.002557   0.000011  -0.000003  -0.000000   0.000000
     5  C   -0.017348  -0.000443  -0.001527   0.000051  -0.000000   0.000008
     6  C    0.131380   0.225686   0.013842   0.012280   0.001022   0.001039
     7  C    5.311837   0.315506  -0.061548  -0.014175  -0.011430   0.000347
     8  C    0.315506   4.852936   0.323356   0.113773  -0.076182   0.010795
     9  C   -0.061548   0.323356   5.722014   0.504133  -0.287756  -0.040917
    10  C   -0.014175   0.113773   0.504133   5.498304  -0.826354   0.576379
    11  C   -0.011430  -0.076182  -0.287756  -0.826354   6.772969  -0.141251
    12  C    0.000347   0.010795  -0.040917   0.576379  -0.141251   5.838591
    13  N    0.000024   0.000979   0.003547   0.087308   0.109152   0.103659
    14  C   -0.000002  -0.000094   0.000238  -0.015966  -0.154021   0.000439
    15  N   -0.000032  -0.002145  -0.015435  -0.235717   0.675699   0.004365
    16  C    0.000024  -0.000007  -0.000000  -0.000000  -0.000000   0.000000
    17  C   -0.000640   0.000135   0.000001   0.000000   0.000000  -0.000000
    18  C    0.011231   0.001245   0.000009  -0.000004  -0.000000  -0.000001
    19  H   -0.007692   0.000093   0.000004   0.000001   0.000000   0.000000
    20  H    0.083103  -0.115019   0.002138  -0.006433  -0.000941  -0.001652
    21  H    0.302476  -0.038823  -0.028709  -0.000124   0.000055   0.000005
    22  H    0.056522   0.233575  -0.055985  -0.150609  -0.040880  -0.023174
    23  H   -0.014875  -0.000347   0.317618  -0.011668  -0.027988   0.002241
    24  H    0.019015  -0.061194  -0.014668   0.009081  -0.117121   0.005562
    25  H    0.000000   0.000002  -0.000255  -0.000853   0.001515  -0.000312
    26  H   -0.000001  -0.000000  -0.000000   0.000000   0.000000   0.000000
    27  H    0.000064   0.000004  -0.000000  -0.000000  -0.000000  -0.000000
    28  H    0.000003   0.000000   0.000000  -0.000000  -0.000000  -0.000000
              13         14         15         16         17         18
     1  O    0.000003  -0.000000   0.000000   0.000000  -0.000003  -0.000196
     2  C   -0.000167   0.000001   0.000114  -0.000000  -0.000018   0.000745
     3  C   -0.000000   0.000000  -0.000000   0.001570   0.006523   0.115982
     4  C    0.000000  -0.000000  -0.000000  -0.501942  -0.316339  -5.803373
     5  C    0.000000   0.000000   0.000000  -0.059344   0.101429  -0.158301
     6  C   -0.000001   0.000000   0.000001  -0.002246  -0.021306  -0.106517
     7  C    0.000024  -0.000002  -0.000032   0.000024  -0.000640   0.011231
     8  C    0.000979  -0.000094  -0.002145  -0.000007   0.000135   0.001245
     9  C    0.003547   0.000238  -0.015435  -0.000000   0.000001   0.000009
    10  C    0.087308  -0.015966  -0.235717  -0.000000   0.000000  -0.000004
    11  C    0.109152  -0.154021   0.675699  -0.000000   0.000000  -0.000000
    12  C    0.103659   0.000439   0.004365   0.000000  -0.000000  -0.000001
    13  N    7.095413   0.103099  -0.212013   0.000000  -0.000000  -0.000000
    14  C    0.103099   5.452763   0.554813   0.000000  -0.000000   0.000000
    15  N   -0.212013   0.554813   6.548457  -0.000000   0.000000  -0.000000
    16  C    0.000000   0.000000  -0.000000   5.467442   0.832714   0.288141
    17  C   -0.000000  -0.000000   0.000000   0.832714   4.871784   0.302636
    18  C   -0.000000   0.000000  -0.000000   0.288141   0.302636  11.866392
    19  H    0.000000   0.000000  -0.000000   0.001267  -0.000916   0.056778
    20  H    0.000000  -0.000000  -0.000001  -0.000327  -0.001861   0.000202
    21  H    0.000000   0.000000  -0.000000   0.000011  -0.000310  -0.000514
    22  H    0.000131   0.000030  -0.000453  -0.000000  -0.000021  -0.000201
    23  H    0.000298  -0.000037  -0.000570  -0.000000   0.000000  -0.000000
    24  H    0.004896  -0.000790  -0.002139  -0.000000   0.000000   0.000049
    25  H    0.002403   0.215103  -0.075113  -0.000000   0.000000  -0.000000
    26  H   -0.000000  -0.000000   0.000000   0.167193  -0.023907  -0.023225
    27  H    0.000000   0.000000  -0.000000  -0.051577   0.324417   0.029444
    28  H   -0.000000   0.000000  -0.000000   0.136839  -0.001189   0.156446
              19         20         21         22         23         24
     1  O    0.000002  -0.002637   0.000011  -0.020393   0.000000  -0.032930
     2  C   -0.000036   0.063942  -0.001236  -0.054549  -0.000775   0.080401
     3  C    0.002594  -0.088994   0.000006   0.003464   0.000003  -0.001456
     4  C   -0.069726  -0.007612   0.002214   0.000003  -0.000002   0.000014
     5  C    0.324310  -0.100849  -0.020415   0.001840   0.000039  -0.000270
     6  C   -0.025340   0.184137  -0.054718  -0.154190  -0.001359  -0.002822
     7  C   -0.007692   0.083103   0.302476   0.056522  -0.014875   0.019015
     8  C    0.000093  -0.115019  -0.038823   0.233575  -0.000347  -0.061194
     9  C    0.000004   0.002138  -0.028709  -0.055985   0.317618  -0.014668
    10  C    0.000001  -0.006433  -0.000124  -0.150609  -0.011668   0.009081
    11  C    0.000000  -0.000941   0.000055  -0.040880  -0.027988  -0.117121
    12  C    0.000000  -0.001652   0.000005  -0.023174   0.002241   0.005562
    13  N    0.000000   0.000000   0.000000   0.000131   0.000298   0.004896
    14  C    0.000000  -0.000000   0.000000   0.000030  -0.000037  -0.000790
    15  N   -0.000000  -0.000001  -0.000000  -0.000453  -0.000570  -0.002139
    16  C    0.001267  -0.000327   0.000011  -0.000000  -0.000000  -0.000000
    17  C   -0.000916  -0.001861  -0.000310  -0.000021   0.000000   0.000000
    18  C    0.056778   0.000202  -0.000514  -0.000201  -0.000000   0.000049
    19  H    0.570632   0.003818   0.002677  -0.000216   0.000002   0.000001
    20  H    0.003818   0.733323   0.009990   0.025400  -0.000010   0.004525
    21  H    0.002677   0.009990   0.723142   0.021490   0.006736  -0.000614
    22  H   -0.000216   0.025400   0.021490   1.233632   0.022823  -0.041326
    23  H    0.000002  -0.000010   0.006736   0.022823   0.549525  -0.001508
    24  H    0.000001   0.004525  -0.000614  -0.041326  -0.001508   0.741735
    25  H    0.000000  -0.000000   0.000000  -0.000002   0.000011   0.000013
    26  H   -0.001054   0.000008   0.000000   0.000000   0.000000  -0.000000
    27  H    0.010336  -0.000035  -0.000074  -0.000000  -0.000000   0.000000
    28  H    0.000116   0.000107   0.000000  -0.000000  -0.000000  -0.000000
              25         26         27         28
     1  O    0.000000  -0.000000   0.000000   0.000025
     2  C    0.000000  -0.000000   0.000000   0.000012
     3  C   -0.000000  -0.000130   0.000108  -0.007068
     4  C   -0.000000   0.050631  -0.061514   0.021088
     5  C    0.000000   0.002843  -0.016485   0.001042
     6  C    0.000000   0.000175  -0.000288   0.000149
     7  C    0.000000  -0.000001   0.000064   0.000003
     8  C    0.000002  -0.000000   0.000004   0.000000
     9  C   -0.000255  -0.000000  -0.000000   0.000000
    10  C   -0.000853   0.000000  -0.000000  -0.000000
    11  C    0.001515   0.000000  -0.000000  -0.000000
    12  C   -0.000312   0.000000  -0.000000  -0.000000
    13  N    0.002403  -0.000000   0.000000  -0.000000
    14  C    0.215103  -0.000000   0.000000   0.000000
    15  N   -0.075113   0.000000  -0.000000  -0.000000
    16  C   -0.000000   0.167193  -0.051577   0.136839
    17  C    0.000000  -0.023907   0.324417  -0.001189
    18  C   -0.000000  -0.023225   0.029444   0.156446
    19  H    0.000000  -0.001054   0.010336   0.000116
    20  H   -0.000000   0.000008  -0.000035   0.000107
    21  H    0.000000   0.000000  -0.000074   0.000000
    22  H   -0.000002   0.000000  -0.000000  -0.000000
    23  H    0.000011   0.000000  -0.000000  -0.000000
    24  H    0.000013  -0.000000   0.000000  -0.000000
    25  H    0.770500   0.000000  -0.000000  -0.000000
    26  H    0.000000   0.851300  -0.024721  -0.007935
    27  H   -0.000000  -0.024721   0.642334   0.000576
    28  H   -0.000000  -0.007935   0.000576   0.402547
 Mulliken charges:
               1
     1  O   -0.219993
     2  C    0.027051
     3  C   -0.163933
     4  C    1.085837
     5  C   -0.698936
     6  C    0.214466
     7  C   -0.065223
     8  C    0.281856
     9  C   -0.379274
    10  C    0.461955
    11  C    0.099231
    12  C   -0.338728
    13  N   -0.298730
    14  C   -0.155576
    15  N   -0.239831
    16  C   -0.279759
    17  C   -0.073131
    18  C   -0.736968
    19  H    0.132347
    20  H    0.215676
    21  H    0.076723
    22  H   -0.056909
    23  H    0.159844
    24  H    0.411544
    25  H    0.086987
    26  H    0.008822
    27  H    0.147411
    28  H    0.297241
 Sum of Mulliken charges =  -0.00000
 Mulliken charges with hydrogens summed into heavy atoms:
               1
     1  O   -0.219993
     2  C    0.027051
     3  C   -0.163933
     4  C    1.085837
     5  C   -0.566590
     6  C    0.430142
     7  C    0.011500
     8  C    0.224948
     9  C   -0.219431
    10  C    0.461955
    11  C    0.099231
    12  C    0.072817
    13  N   -0.298730
    14  C   -0.068589
    15  N   -0.239831
    16  C   -0.270937
    17  C    0.074280
    18  C   -0.439728
 Electronic spatial extent (au):  <R**2>=           5998.3904
 Charge=             -0.0000 electrons
 Dipole moment (field-independent basis, Debye):
    X=             -7.3881    Y=             -6.1212    Z=             -0.0000  Tot=              9.5944
 Quadrupole moment (field-independent basis, Debye-Ang):
   XX=           -131.2132   YY=           -103.2545   ZZ=           -104.0806
   XY=             -3.0952   XZ=             -0.0002   YZ=             -0.0000
 Traceless Quadrupole moment (field-independent basis, Debye-Ang):
   XX=            -18.3638   YY=              9.5949   ZZ=              8.7689
   XY=             -3.0952   XZ=             -0.0002   YZ=             -0.0000
 Octapole moment (field-independent basis, Debye-Ang**2):
  XXX=           -221.1989  YYY=            -35.9936  ZZZ=             -0.0001  XYY=            -50.2083
  XXY=            -64.7940  XXZ=             -0.0005  XZZ=              9.6454  YZZ=              1.7853
  YYZ=             -0.0001  XYZ=             -0.0001
 Hexadecapole moment (field-independent basis, Debye-Ang**3):
 XXXX=          -8811.8934 YYYY=           -954.3412 ZZZZ=           -100.2182 XXXY=            -54.5396
 XXXZ=             -0.0025 YYYX=             -1.3072 YYYZ=             -0.0000 ZZZX=             -0.0000
 ZZZY=             -0.0001 XXYY=          -1331.7334 XXZZ=          -1294.9937 YYZZ=           -182.4263
 XXYZ=              0.0008 YYXZ=             -0.0006 ZZXY=             -5.7927
 N-N= 1.130115464881D+03 E-N=-4.031079863998D+03  KE= 7.628188033730D+02
 PrsmSu:  requested number of processors reduced to:  13 ShMem   1 Linda.
 Calling FoFJK, ICntrl=      2127 FMM=F ISym2X=0 I1Cent= 0 IOpClX= 0 NMat=1 NMatS=1 NMatT=0.
 ***** Axes restored to original set *****
 -------------------------------------------------------------------
 Center     Atomic                   Forces (Hartrees/Bohr)
 Number     Number              X              Y              Z
 -------------------------------------------------------------------
      1        8           0.099113045    0.044929812    0.101667563
      2        6          -0.163915925   -0.046292361   -0.104750155
      3        6          -0.017650617   -0.013109078   -0.029660745
      4        6           2.177052954    0.284222570    0.643149843
      5        6           0.017923076   -0.012031946   -0.027227056
      6        6          -0.041910478   -0.036579104   -0.082771190
      7        6           0.136616328    0.034974129    0.079140109
      8        6           0.039888309   -0.036218888   -0.081957988
      9        6           0.046346618    0.002561749    0.005796219
     10        6           0.108413828    0.025913225    0.058634226
     11        6          -0.071818878    0.120399154    0.272445681
     12        6          -0.117167735    0.006458668    0.014616890
     13        7          -0.039150068   -0.019544100   -0.044225458
     14        6           0.009842682    0.012038842    0.027238572
     15        7           0.166637415   -0.037057442   -0.083848714
     16        6          -0.051510230   -0.108141921   -0.244708061
     17        6           0.164325642   -0.010606930   -0.023998854
     18        6          -2.290023074   -0.247857811   -0.560864976
     19        1           0.021737856   -0.001973209   -0.004466268
     20        1          -0.104727779    0.000434760    0.000984117
     21        1           0.141197921   -0.010131833   -0.022926363
     22        1          -0.123983186   -0.014439239   -0.032672900
     23        1           0.072878414    0.023927468    0.054143591
     24        1          -0.079323298   -0.010360318   -0.023446645
     25        1          -0.066342794   -0.000249919   -0.000567401
     26        1          -0.027519012    0.008173672    0.018495640
     27        1          -0.080473087    0.019641379    0.044446374
     28        1           0.073542075    0.020918670    0.047333949
 -------------------------------------------------------------------
 Cartesian Forces:  Max     2.290023074 RMS     0.367106429

 GradGradGradGradGradGradGradGradGradGradGradGradGradGradGradGradGradGrad
 Berny optimization.
 FormGI is forming the generalized inverse of G from B-inverse, IUseBI=4.
 Internal  Forces:  Max     2.309098536 RMS     0.224102418
 Search for a local minimum.
 Step number   1 out of a maximum of  144
 All quantities printed in internal units (Hartrees-Bohrs-Radians)
 Mixed Optimization -- RFO/linear search
 Second derivative matrix not updated -- first step.
 ITU=  0
     Eigenvalues ---    0.00230   0.00230   0.00230   0.00298   0.00391
     Eigenvalues ---    0.00573   0.00743   0.01119   0.01476   0.01666
     Eigenvalues ---    0.02059   0.02157   0.02845   0.02918   0.03322
     Eigenvalues ---    0.03515   0.03772   0.03787   0.04014   0.04105
     Eigenvalues ---    0.04245   0.04347   0.04387   0.05001   0.06913
     Eigenvalues ---    0.10104   0.12390   0.12757   0.13347   0.13527
     Eigenvalues ---    0.13973   0.14566   0.14682   0.14886   0.16000
     Eigenvalues ---    0.16000   0.16000   0.16000   0.16000   0.16000
     Eigenvalues ---    0.16000   0.16000   0.16000   0.16000   0.16000
     Eigenvalues ---    0.20366   0.21563   0.22000   0.22000   0.22000
     Eigenvalues ---    0.22000   0.22000   0.22000   0.22000   0.22250
     Eigenvalues ---    0.22369   0.24133   0.25000   0.25000   0.25000
     Eigenvalues ---    0.40853   0.47154   0.47578   0.48663   0.48678
     Eigenvalues ---    0.51980   0.56187   0.57814   0.63735   0.68388
     Eigenvalues ---    0.69404   0.72512   0.73144   0.75738   0.88243
     Eigenvalues ---    0.91394   0.92655  12.09806
 RFO step:  Lambda=-1.25845895D+00 EMin= 2.30000000D-03
 Linear search not attempted -- first point.
 Maximum step size (   0.300) exceeded in Quadratic search.
    -- Step size scaled by   0.398
 Iteration  1 RMS(Cart)=  0.22564122 RMS(Int)=  0.01313222
 Iteration  2 RMS(Cart)=  0.16955339 RMS(Int)=  0.00424706
 Iteration  3 RMS(Cart)=  0.00760202 RMS(Int)=  0.00002249
 Iteration  4 RMS(Cart)=  0.00001017 RMS(Int)=  0.00002237
 Iteration  5 RMS(Cart)=  0.00000000 RMS(Int)=  0.00002237
 Variable       Old X    -DE/DX   Delta X   Delta X   Delta X     New X
                                 (Linear)    (Quad)   (Total)
    R1        2.42225  -0.14212   0.00000  -0.02848  -0.02848   2.39377
    R2        2.62933   0.04070   0.00000   0.01151   0.01151   2.64084
    R3        3.43583  -0.02703   0.00000  -0.00772  -0.00772   3.42811
    R4        2.61224   0.10254   0.00000   0.02336   0.02336   2.63559
    R5        3.06410   0.18532   0.00000   0.04970   0.04970   3.11381
    R6        1.60833   2.30910   0.00000   0.06872   0.06872   1.67706
    R7        2.44192   0.14044   0.00000   0.02859   0.02859   2.47051
    R8        1.97110   0.02221   0.00000   0.00530   0.00530   1.97640
    R9        2.31733   0.28777   0.00000   0.05235   0.05235   2.36968
   R10        1.89091   0.08832   0.00000   0.02025   0.02025   1.91116
   R11        2.40299   0.20597   0.00000   0.04062   0.04062   2.44360
   R12        1.80792   0.14282   0.00000   0.03119   0.03119   1.83911
   R13        2.33753   0.28867   0.00000   0.05360   0.05360   2.39114
   R14        1.74801   0.12476   0.00000   0.02616   0.02616   1.77417
   R15        2.52713   0.24543   0.00000   0.05312   0.05312   2.58025
   R16        1.87939   0.08232   0.00000   0.01875   0.01875   1.89814
   R17        2.37415   0.17335   0.00000   0.03447   0.03449   2.40864
   R18        2.53601   0.28266   0.00000   0.06332   0.06338   2.59939
   R19        3.44775  -0.03456   0.00000  -0.01273  -0.01278   3.43497
   R20        2.58729  -0.03509   0.00000  -0.00744  -0.00737   2.57992
   R21        3.46538   0.01216   0.00000   0.00238   0.00238   3.46776
   R22        2.35546  -0.02753   0.00000  -0.00742  -0.00742   2.34804
   R23        3.49567   0.01683   0.00000   0.00468   0.00461   3.50028
   R24        2.40888   0.07550   0.00000   0.01575   0.01577   2.42465
   R25        2.93143  -0.05855   0.00000  -0.01712  -0.01712   2.91431
   R26        2.32297   0.20270   0.00000   0.03709   0.03709   2.36006
   R27        2.33463  -0.03019   0.00000  -0.00810  -0.00810   2.32652
   R28        2.69235  -0.09171   0.00000  -0.02616  -0.02616   2.66619
   R29        2.73852  -0.08642   0.00000  -0.02479  -0.02479   2.71374
    A1        2.73601  -0.10780   0.00000  -0.03021  -0.03021   2.70580
    A2        1.46245   0.00462   0.00000   0.00135   0.00135   1.46380
    A3        1.88791   0.00887   0.00000   0.00247   0.00247   1.89038
    A4        1.79675   0.11938   0.00000   0.03210   0.03210   1.82885
    A5        2.32503  -0.05795   0.00000  -0.01556  -0.01556   2.30947
    A6        2.16140  -0.06143   0.00000  -0.01654  -0.01654   2.14486
    A7        2.24799  -0.06635   0.00000  -0.01784  -0.01784   2.23015
    A8        2.43867  -0.02004   0.00000  -0.00599  -0.00599   2.43268
    A9        1.59653   0.08639   0.00000   0.02383   0.02383   1.62036
   A10        2.22801   0.10161   0.00000   0.02732   0.02732   2.25533
   A11        2.08927  -0.06255   0.00000  -0.01695  -0.01695   2.07232
   A12        1.96591  -0.03906   0.00000  -0.01037  -0.01037   1.95554
   A13        2.61046  -0.20667   0.00000  -0.05557  -0.05557   2.55490
   A14        1.85828   0.07458   0.00000   0.01973   0.01973   1.87800
   A15        1.81444   0.13209   0.00000   0.03584   0.03584   1.85029
   A16        1.82378   0.41025   0.00000   0.11031   0.11031   1.93409
   A17        1.97220  -0.16270   0.00000  -0.04326  -0.04326   1.92894
   A18        2.48720  -0.24756   0.00000  -0.06705  -0.06705   2.42016
   A19        1.75217  -0.11593   0.00000  -0.03171  -0.03174   1.72043
   A20        2.79991   0.18383   0.00000   0.04729   0.04725   2.84717
   A21        1.73110  -0.06790   0.00000  -0.01558  -0.01552   1.71559
   A22        1.73638   0.01880   0.00000   0.00640   0.00633   1.74271
   A23        1.42131   0.07726   0.00000   0.02043   0.02051   1.44182
   A24        1.67235  -0.03799   0.00000  -0.01000  -0.00995   1.66240
   A25        1.05159   0.30942   0.00000   0.08639   0.08636   1.13796
   A26        2.72394   0.27142   0.00000   0.07639   0.07642   2.80035
   A27        1.14335   0.08709   0.00000   0.01918   0.01913   1.16249
   A28        1.33816  -0.02480   0.00000  -0.00655  -0.00660   1.33156
   A29        2.48152   0.06229   0.00000   0.01263   0.01253   2.49405
   A30        1.44587   0.03592   0.00000   0.00955   0.00946   1.45534
   A31        2.76059   0.06370   0.00000   0.01759   0.01755   2.77814
   A32        1.31471   0.02778   0.00000   0.00805   0.00809   1.32280
   A33        2.07784  -0.08839   0.00000  -0.02342  -0.02337   2.05446
   A34        1.70637   0.03725   0.00000   0.01044   0.01044   1.71681
   A35        1.53278   0.24498   0.00000   0.06587   0.06587   1.59865
   A36        2.51691  -0.15031   0.00000  -0.04073  -0.04073   2.47618
   A37        2.23350  -0.09467   0.00000  -0.02514  -0.02514   2.20836
   A38        1.51446   0.08030   0.00000   0.02159   0.02159   1.53605
   A39        2.21292  -0.00612   0.00000  -0.00126  -0.00126   2.21166
   A40        2.55580  -0.07418   0.00000  -0.02033  -0.02033   2.53547
   A41        2.12855  -0.24068   0.00000  -0.06343  -0.06343   2.06512
   A42        3.35036   0.01349   0.00000   0.00382   0.00382   3.35418
   A43        3.15769   0.09607   0.00000   0.02683   0.02684   3.18453
   A44        3.14159   0.00000   0.00000   0.00000   0.00000   3.14159
   A45        3.14159  -0.00000   0.00000  -0.00000  -0.00000   3.14159
    D1        0.00002   0.00000   0.00000   0.00000   0.00000   0.00002
    D2       -3.14158   0.00000   0.00000   0.00000   0.00000  -3.14158
    D3        0.00000   0.00000   0.00000   0.00000   0.00000   0.00000
    D4        0.00000  -0.00000   0.00000  -0.00000  -0.00000   0.00000
    D5       -3.14158  -0.00000   0.00000  -0.00000  -0.00000  -3.14158
    D6        3.14159  -0.00000   0.00000  -0.00000  -0.00000   3.14159
    D7        0.00001   0.00000   0.00000   0.00000   0.00000   0.00001
    D8       -3.14159  -0.00000   0.00000  -0.00000  -0.00000  -3.14159
    D9       -0.00001   0.00000   0.00000   0.00000   0.00000  -0.00001
   D10        0.00000  -0.00000   0.00000  -0.00000  -0.00000   0.00000
   D11        3.14158   0.00000   0.00000   0.00000   0.00000   3.14158
   D12        3.14159  -0.00000   0.00000  -0.00000  -0.00000   3.14159
   D13        0.00001  -0.00000   0.00000  -0.00000  -0.00000   0.00001
   D14       -3.14158  -0.00000   0.00000  -0.00000  -0.00000  -3.14158
   D15       -0.00001  -0.00000   0.00000  -0.00000  -0.00000  -0.00001
   D16        0.00001  -0.00000   0.00000  -0.00000  -0.00000   0.00001
   D17        3.14159  -0.00000   0.00000  -0.00000  -0.00000   3.14159
   D18        3.14159  -0.00000   0.00000  -0.00000  -0.00000   3.14159
   D19       -0.00002   0.00000   0.00000   0.00000   0.00000  -0.00002
   D20        0.00001  -0.00000   0.00000  -0.00000  -0.00000   0.00001
   D21        3.14158  -0.00000   0.00000  -0.00000  -0.00000   3.14158
   D22        3.14158  -0.00000   0.00000  -0.00000  -0.00000   3.14158
   D23       -0.00000  -0.00000   0.00000  -0.00000  -0.00000  -0.00000
   D24        0.00000  -0.00000   0.00000  -0.00000  -0.00000   0.00000
   D25       -3.14158  -0.00000   0.00000  -0.00000  -0.00000  -3.14158
   D26        3.14159  -0.00000   0.00000  -0.00000  -0.00000   3.14159
   D27        0.00001  -0.00000   0.00000  -0.00000  -0.00000   0.00001
   D28       -0.00001  -0.00000   0.00000  -0.00000  -0.00000  -0.00001
   D29        3.14159  -0.00000   0.00000  -0.00000  -0.00000   3.14159
   D30       -3.14159  -0.00000   0.00000  -0.00000  -0.00000  -3.14159
   D31        0.00002  -0.00000   0.00000  -0.00000  -0.00000   0.00002
   D32       -0.00001   0.00000   0.00000   0.00000   0.00000  -0.00001
   D33       -3.14158   0.00000   0.00000   0.00000   0.00000  -3.14158
   D34       -3.14159  -0.00000   0.00000  -0.00000  -0.00000  -3.14159
   D35       -0.00001   0.00000   0.00000   0.00000   0.00000  -0.00001
   D36        3.14158  -0.00000   0.00000  -0.00000  -0.00000   3.14157
   D37       -0.00002   0.00000   0.00000   0.00000   0.00000  -0.00002
   D38        0.00001  -0.00000   0.00000  -0.00000  -0.00000   0.00001
   D39       -3.14159   0.00000   0.00000   0.00000   0.00000  -3.14159
   D40        3.14159  -0.00000   0.00000  -0.00000  -0.00000   3.14159
   D41       -0.00001   0.00000   0.00000   0.00000   0.00000  -0.00001
   D42        0.00000  -0.00000   0.00000  -0.00000  -0.00000   0.00000
   D43        3.14159   0.00000   0.00000   0.00000   0.00000   3.14159
   D44       -3.14158  -0.00000   0.00000  -0.00000  -0.00000  -3.14158
   D45        0.00000   0.00000   0.00000   0.00000   0.00000   0.00000
   D46       -0.00000  -0.00000   0.00000  -0.00000  -0.00000  -0.00000
   D47       -0.00000   0.00000   0.00000   0.00000   0.00000  -0.00000
   D48       -0.00001   0.00000   0.00000   0.00000   0.00000  -0.00001
   D49       -0.00001  -0.00000   0.00000  -0.00000  -0.00000  -0.00001
   D50       -0.00002  -0.00000   0.00000  -0.00000  -0.00000  -0.00002
   D51        3.14159   0.00000   0.00000   0.00000   0.00000   3.14159
   D52       -3.14159   0.00000   0.00000   0.00000   0.00000  -3.14159
   D53       -0.00000  -0.00000   0.00000  -0.00000  -0.00000  -0.00000
   D54        0.00001   0.00000   0.00000   0.00000   0.00000   0.00001
   D55        0.00001  -0.00000   0.00000  -0.00000  -0.00000   0.00001
   D56        0.00002   0.00000   0.00000   0.00000   0.00000   0.00002
   D57        0.00000   0.00000   0.00000   0.00000   0.00000   0.00000
   D58       -3.14158  -0.00000   0.00000  -0.00000  -0.00000  -3.14158
   D59        3.14159  -0.00000   0.00000  -0.00000  -0.00000   3.14159
   D60        0.00001   0.00000   0.00000   0.00000   0.00000   0.00001
         Item               Value     Threshold  Converged?
 Maximum Force            2.309099     0.000450     NO 
 RMS     Force            0.224102     0.000300     NO 
 Maximum Displacement     1.762748     0.001800     NO 
 RMS     Displacement     0.391225     0.001200     NO 
 Predicted change in Energy=-4.574617D-01
 GradGradGradGradGradGradGradGradGradGradGradGradGradGradGradGradGradGrad

                          Input orientation:                          
 ---------------------------------------------------------------------
 Center     Atomic      Atomic             Coordinates (Angstroms)
 Number     Number       Type             X           Y           Z
 ---------------------------------------------------------------------
      1          8           0        0.665627    1.622153    3.459116
      2          6           0        1.909966    1.717991    3.675995
      3          6           0        2.703332    0.350661    0.581965
      4          6           0        4.199517   -0.180694   -0.620419
      5          6           0        5.321751    0.154040    0.137024
      6          6           0        4.839666    0.645236    1.248536
      7          6           0        5.477679    1.081606    2.235952
      8          6           0        5.031263    1.572158    3.345988
      9          6           0        5.324919    2.069654    4.471748
     10          6           0        4.196081    2.380158    5.174355
     11          6           0        4.748046    2.844548    6.225201
     12          6           0        2.883238    2.546104    5.549871
     13          7           0        3.268429    3.271335    7.190939
     14          6           0        4.670980    3.760366    8.297556
     15          7           0        5.391544    3.331239    7.326524
     16          6           0        4.417781   -1.022953   -2.526311
     17          6           0        5.313877   -0.671329   -1.730634
     18          6           0        3.390324   -0.327992   -0.953730
     19          1           0        6.347509    0.071545   -0.049650
     20          1           0        3.944588    0.835536    1.679152
     21          1           0        6.450385    1.068914    2.207243
     22          1           0        4.093373    1.554977    3.307123
     23          1           0        6.321668    2.119842    4.585311
     24          1           0        3.044015    2.048083    4.422925
     25          1           0        6.120554    3.973130    8.779011
     26          1           0        5.137680   -1.426648   -3.439814
     27          1           0        6.706139   -0.763680   -1.939630
     28          1           0        2.650100   -0.825410   -2.079285
 ---------------------------------------------------------------------
                    Distance matrix (angstroms):
                    1          2          3          4          5
     1  O    0.000000
     2  C    1.266729   0.000000
     3  C    3.747924   3.474485   0.000000
     4  C    5.690452   5.225536   1.991641   0.000000
     5  C    5.905179   5.158540   2.663222   1.394696   0.000000
     6  C    4.823239   3.953037   2.257213   2.141248   1.307340
     7  C    4.994413   3.899652   3.311639   3.374308   2.300041
     8  C    4.367387   3.142080   3.814595   4.415504   3.520353
     9  C    4.789017   3.524031   4.995805   5.679856   4.739136
    10  C    3.997590   2.812449   5.238054   6.335407   5.621160
    11  C    5.080514   3.977723   6.499727   7.504365   6.680858
    12  C    3.184767   2.268136   5.434375   6.873172   6.400564
    13  N    4.839512   4.075921   7.247635   8.590736   7.980687
    14  C    6.635157   5.757892   8.661875   9.761379   8.945578
    15  N    6.341302   5.296255   7.848529   8.769750   7.860558
    16  C    7.543248   7.229835   3.806249   2.095105   3.048907
    17  C    7.334834   6.821077   3.634215   1.647755   2.041922
    18  C    5.540781   5.273695   1.814080   0.887460   2.269915
    19  H    6.855626   6.023538   3.709025   2.236799   1.045864
    20  H    3.812955   2.984258   1.726163   2.527002   2.176964
    21  H    5.944467   4.816008   4.147025   3.824081   2.529152
    22  H    3.431772   2.220339   3.287716   4.295277   3.677100
    23  H    5.788506   4.522328   5.678832   6.074176   4.965023
    24  H    2.601360   1.397473   4.213109   5.633645   5.210032
    25  H    7.973995   6.989669   9.591207  10.454373   9.481954
    26  H    8.768676   8.422685   5.025891   3.222039   3.914873
    27  H    8.445498   7.790841   4.860314   2.891945   2.659179
    28  H    6.372016   6.335609   2.910022   2.223655   3.606810
                    6          7          8          9         10
     6  C    0.000000
     7  C    1.253982   0.000000
     8  C    2.301130   1.293100   0.000000
     9  C    3.557181   2.449154   1.265335   0.000000
    10  C    4.340071   3.458749   2.166407   1.365411   0.000000
    11  C    5.441743   4.422040   3.160547   2.001960   1.274598
    12  C    5.093368   4.456224   3.227953   2.711303   1.375539
    13  N    6.684111   5.850435   4.558337   3.614857   2.391933
    14  C    7.708513   6.676044   5.425504   4.233551   3.447446
    15  N    6.667918   5.566165   4.366788   3.121824   2.639227
    16  C    4.148531   5.313352   6.449407   7.704541   8.422029
    17  C    3.291454   4.339749   5.557445   6.781051   7.631508
    18  C    2.810292   4.064245   4.979038   6.239165   6.748092
    19  H    2.070749   2.645904   3.938871   5.047888   6.103161
    20  H    1.011340   1.649528   2.121748   3.350664   3.829563
    21  H    1.921728   0.973212   1.887830   2.719584   3.950317
    22  H    2.371152   1.813226   0.938852   1.771426   2.044023
    23  H    3.937621   2.703652   1.871102   1.004452   2.221004
    24  H    3.907568   3.411693   2.309860   2.281529   1.414983
    25  H    8.332083   7.182326   6.038953   4.775853   4.385738
    26  H    5.134407   6.214600   7.419654   8.651705   9.464792
    27  H    3.953880   4.727545   6.016569   7.144320   8.172692
    28  H    4.246339   5.500290   6.391546   7.645397   8.079667
                   11         12         13         14         15
    11  C    0.000000
    12  C    2.005654   0.000000
    13  N    1.817708   1.835058   0.000000
    14  C    2.267006   3.495744   1.852269   0.000000
    15  N    1.365236   3.172465   2.128283   1.283069   0.000000
    16  C    9.573694   8.962015  10.685826  11.836400  10.815987
    17  C    8.716471   8.322598   9.966088  10.982615   9.902459
    18  C    7.965267   7.128421   8.905372  10.195148   9.271325
    19  H    7.044260   7.034149   8.493852   9.278686   8.120802
    20  H    5.034703   4.362909   6.063835   7.272245   6.341532
    21  H    4.711138   5.106838   6.309733   6.892178   5.696165
    22  H    3.256804   2.734351   4.325557   5.486510   4.582133
    23  H    2.385525   3.596509   4.175823   4.381422   3.137972
    24  H    2.605049   1.242530   3.034568   4.537807   3.948198
    25  H    3.111176   4.789986   3.339028   1.542185   1.747340
    26  H   10.573904  10.083635  11.771918  12.840903  11.773528
    27  H    9.138813   9.036696  10.557769  11.375801  10.215583
    28  H    9.318501   8.344189  10.153950  11.523547  10.642486
[...]
 Iteration 82 RMS(Cart)=  0.00049955 RMS(Int)=  0.44093370
 Iteration 83 RMS(Cart)=  0.00046719 RMS(Int)=  0.02631421
 Iteration 84 RMS(Cart)=  0.00073794 RMS(Int)=  0.44568350
 Iteration 85 RMS(Cart)=  0.00047716 RMS(Int)=  0.44117752
 Iteration 86 RMS(Cart)=  0.00044677 RMS(Int)=  0.02401037
 Iteration 87 RMS(Cart)=  0.00066692 RMS(Int)=  0.44818208
 Iteration 88 RMS(Cart)=  0.00045469 RMS(Int)=  0.44323576
 Iteration 89 RMS(Cart)=  0.00042473 RMS(Int)=  0.02500036
 Iteration 90 RMS(Cart)=  0.00070182 RMS(Int)=  0.44706291
 Iteration 91 RMS(Cart)=  0.00043831 RMS(Int)=  0.44204580
 Iteration 92 RMS(Cart)=  0.00041094 RMS(Int)=  0.02634093
 Iteration 93 RMS(Cart)=  0.00074693 RMS(Int)=  0.44559656
 Iteration 94 RMS(Cart)=  0.00042933 RMS(Int)=  0.44096181
 Iteration 95 RMS(Cart)=  0.00040144 RMS(Int)=  0.02540802
 Iteration 96 RMS(Cart)=  0.00071866 RMS(Int)=  0.44661714
 Iteration 97 RMS(Cart)=  0.00041865 RMS(Int)=  0.44201700
 Iteration 98 RMS(Cart)=  0.00039246 RMS(Int)=  0.02415788
 Iteration 99 RMS(Cart)=  0.00068012 RMS(Int)=  0.44797255
 Iteration100 RMS(Cart)=  0.00040707 RMS(Int)=  0.44302422
 New curvilinear step not converged.
 ITry= 4 IFail=1 DXMaxC= 7.49D-01 DCOld= 1.00D+10 DXMaxT= 8.49D-01 DXLimC= 3.00D+00 Rises=F
 SLEqS3 Cycle:   841 Max:0.379958E-04 RMS:0.588034E-05 Conv:0.400319E-06
 SLEqS3 Cycle:   841 Max:0.379958E-04 RMS:0.588034E-05 Conv:0.400319E-06
 Iteration  1 RMS(Cart)=  0.01507802 RMS(Int)=  0.47514896
 Iteration  2 RMS(Cart)=  0.00169404 RMS(Int)=  0.47492173
 Iteration  3 RMS(Cart)=  0.00164278 RMS(Int)=  0.47470151
 Iteration  4 RMS(Cart)=  0.00159451 RMS(Int)=  0.47448791
 Iteration  5 RMS(Cart)=  0.00154892 RMS(Int)=  0.47428054
 Iteration  6 RMS(Cart)=  0.00150402 RMS(Int)=  0.47407931
 Iteration  7 RMS(Cart)=  0.00145765 RMS(Int)=  0.47388446
 Iteration  8 RMS(Cart)=  0.00141158 RMS(Int)=  0.47369599
 Iteration  9 RMS(Cart)=  0.00136807 RMS(Int)=  0.47351352
 Iteration 10 RMS(Cart)=  0.00132696 RMS(Int)=  0.47333672
 Iteration 11 RMS(Cart)=  0.00128806 RMS(Int)=  0.47316526
 Iteration 12 RMS(Cart)=  0.00125123 RMS(Int)=  0.47299886
 Iteration 13 RMS(Cart)=  0.00121629 RMS(Int)=  0.47283724
 Iteration 14 RMS(Cart)=  0.00118313 RMS(Int)=  0.47268016
 Iteration 15 RMS(Cart)=  0.00115162 RMS(Int)=  0.47252738
 Iteration 16 RMS(Cart)=  0.00112164 RMS(Int)=  0.47237868
 Iteration 17 RMS(Cart)=  0.00109310 RMS(Int)=  0.47222777
 Iteration 18 RMS(Cart)=  0.00922766 RMS(Int)=  0.46859739
 Iteration 19 RMS(Cart)=  0.00827124 RMS(Int)=  0.46498948
 Iteration 20 RMS(Cart)=  0.00747442 RMS(Int)=  0.46125383
 Iteration 21 RMS(Cart)=  0.00679038 RMS(Int)=  0.45700027
 Iteration 22 RMS(Cart)=  0.00617032 RMS(Int)=  0.44935898
 Iteration 23 RMS(Cart)=  0.00563696 RMS(Int)=  0.04475609
 Iteration 24 RMS(Cart)=  0.00149815 RMS(Int)=  0.45063817
 Iteration 25 RMS(Cart)=  0.00508817 RMS(Int)=  0.44486318
 Iteration 26 RMS(Cart)=  0.00464621 RMS(Int)=  0.04091029
 Iteration 27 RMS(Cart)=  0.00129787 RMS(Int)=  0.44839560
 Iteration 28 RMS(Cart)=  0.00422793 RMS(Int)=  0.44354591
 Iteration 29 RMS(Cart)=  0.00388193 RMS(Int)=  0.03434765
 Iteration 30 RMS(Cart)=  0.00088185 RMS(Int)=  0.45312514
 Iteration 31 RMS(Cart)=  0.00355767 RMS(Int)=  0.44710699
 Iteration 32 RMS(Cart)=  0.00329970 RMS(Int)=  0.03341672
 Iteration 33 RMS(Cart)=  0.00090442 RMS(Int)=  0.44927685
 Iteration 34 RMS(Cart)=  0.00301973 RMS(Int)=  0.44302306
 Iteration 35 RMS(Cart)=  0.00277810 RMS(Int)=  0.03419003
 Iteration 36 RMS(Cart)=  0.00096691 RMS(Int)=  0.44481515
 Iteration 37 RMS(Cart)=  0.00258285 RMS(Int)=  0.43995160
 Iteration 38 RMS(Cart)=  0.00239084 RMS(Int)=  0.03210899
 Iteration 39 RMS(Cart)=  0.00087467 RMS(Int)=  0.44528984
 Iteration 40 RMS(Cart)=  0.00222064 RMS(Int)=  0.44088074
 Iteration 41 RMS(Cart)=  0.00205909 RMS(Int)=  0.02485132
 Iteration 42 RMS(Cart)=  0.00057241 RMS(Int)=  0.45307115
 Iteration 43 RMS(Cart)=  0.00191482 RMS(Int)=  0.44572652
 Iteration 44 RMS(Cart)=  0.00177189 RMS(Int)=  0.02850004
 Iteration 45 RMS(Cart)=  0.00074285 RMS(Int)=  0.44671893
 Iteration 46 RMS(Cart)=  0.00166355 RMS(Int)=  0.43989978
 Iteration 47 RMS(Cart)=  0.00154924 RMS(Int)=  0.03257477
 Iteration 48 RMS(Cart)=  0.00088810 RMS(Int)=  0.44108867
 Iteration 49 RMS(Cart)=  0.00145732 RMS(Int)=  0.43667081
 Iteration 50 RMS(Cart)=  0.00135574 RMS(Int)=  0.02765362
 Iteration 51 RMS(Cart)=  0.00071639 RMS(Int)=  0.44613321
 Iteration 52 RMS(Cart)=  0.00127561 RMS(Int)=  0.44173719
 Iteration 53 RMS(Cart)=  0.00119018 RMS(Int)=  0.02266661
 Iteration 54 RMS(Cart)=  0.00056286 RMS(Int)=  0.45140967
 Iteration 55 RMS(Cart)=  0.00111778 RMS(Int)=  0.44493698
 Iteration 56 RMS(Cart)=  0.00104172 RMS(Int)=  0.02659806
 Iteration 57 RMS(Cart)=  0.00070477 RMS(Int)=  0.44634027
 Iteration 58 RMS(Cart)=  0.00099177 RMS(Int)=  0.44025781
 Iteration 59 RMS(Cart)=  0.00092231 RMS(Int)=  0.03036024
 Iteration 60 RMS(Cart)=  0.00082922 RMS(Int)=  0.44193776
 Iteration 61 RMS(Cart)=  0.00089127 RMS(Int)=  0.43755984
 Iteration 62 RMS(Cart)=  0.00083119 RMS(Int)=  0.02566508
 Iteration 63 RMS(Cart)=  0.00068460 RMS(Int)=  0.44695512
 Iteration 64 RMS(Cart)=  0.00079756 RMS(Int)=  0.44240205
 Iteration 65 RMS(Cart)=  0.00074494 RMS(Int)=  0.02371920
 Iteration 66 RMS(Cart)=  0.00062813 RMS(Int)=  0.44894264
 Iteration 67 RMS(Cart)=  0.00071828 RMS(Int)=  0.44354626
 Iteration 68 RMS(Cart)=  0.00067008 RMS(Int)=  0.02610942
 Iteration 69 RMS(Cart)=  0.00071215 RMS(Int)=  0.44613590
 Iteration 70 RMS(Cart)=  0.00065676 RMS(Int)=  0.44099039
 Iteration 71 RMS(Cart)=  0.00061392 RMS(Int)=  0.02786313
 Iteration 72 RMS(Cart)=  0.00077129 RMS(Int)=  0.44416019
 Iteration 73 RMS(Cart)=  0.00060929 RMS(Int)=  0.43972676
 Iteration 74 RMS(Cart)=  0.00056805 RMS(Int)=  0.02436884
 Iteration 75 RMS(Cart)=  0.00066415 RMS(Int)=  0.44793360
 Iteration 76 RMS(Cart)=  0.00056170 RMS(Int)=  0.44311208
 Iteration 77 RMS(Cart)=  0.00052447 RMS(Int)=  0.02465852
 Iteration 78 RMS(Cart)=  0.00067903 RMS(Int)=  0.44754387
 Iteration 79 RMS(Cart)=  0.00052506 RMS(Int)=  0.44243266
 Iteration 80 RMS(Cart)=  0.00049059 RMS(Int)=  0.02631297
 Iteration 81 RMS(Cart)=  0.00073525 RMS(Int)=  0.44569309
 Iteration 82 RMS(Cart)=  0.00049955 RMS(Int)=  0.44093370
 Iteration 83 RMS(Cart)=  0.00046719 RMS(Int)=  0.02631421
 Iteration 84 RMS(Cart)=  0.00073794 RMS(Int)=  0.44568350
 Iteration 85 RMS(Cart)=  0.00047716 RMS(Int)=  0.44117752
 Iteration 86 RMS(Cart)=  0.00044677 RMS(Int)=  0.02401037
 Iteration 87 RMS(Cart)=  0.00066692 RMS(Int)=  0.44818208
 Iteration 88 RMS(Cart)=  0.00045469 RMS(Int)=  0.44323576
 Iteration 89 RMS(Cart)=  0.00042473 RMS(Int)=  0.02500036
 Iteration 90 RMS(Cart)=  0.00070182 RMS(Int)=  0.44706291
 Iteration 91 RMS(Cart)=  0.00043831 RMS(Int)=  0.44204580
 Iteration 92 RMS(Cart)=  0.00041094 RMS(Int)=  0.02634093
 Iteration 93 RMS(Cart)=  0.00074693 RMS(Int)=  0.44559656
 Iteration 94 RMS(Cart)=  0.00042933 RMS(Int)=  0.44096181
 Iteration 95 RMS(Cart)=  0.00040144 RMS(Int)=  0.02540802
 Iteration 96 RMS(Cart)=  0.00071866 RMS(Int)=  0.44661714
 Iteration 97 RMS(Cart)=  0.00041865 RMS(Int)=  0.44201700
 Iteration 98 RMS(Cart)=  0.00039246 RMS(Int)=  0.02415788
 Iteration 99 RMS(Cart)=  0.00068012 RMS(Int)=  0.44797255
 Iteration100 RMS(Cart)=  0.00040707 RMS(Int)=  0.44302422
 New curvilinear step not converged.
 ITry= 5 IFail=1 DXMaxC= 7.49D-01 DCOld= 1.00D+10 DXMaxT= 8.49D-01 DXLimC= 3.00D+00 Rises=F
 SLEqS3 Cycle:   841 Max:0.379958E-04 RMS:0.588034E-05 Conv:0.400319E-06
 SLEqS3 Cycle:   841 Max:0.379958E-04 RMS:0.588034E-05 Conv:0.400319E-06
 Iteration  1 RMS(Cart)=  0.01507802 RMS(Int)=  0.47514896
 Iteration  2 RMS(Cart)=  0.00169404 RMS(Int)=  0.47492173
 Iteration  3 RMS(Cart)=  0.00164278 RMS(Int)=  0.47470151
 Iteration  4 RMS(Cart)=  0.00159451 RMS(Int)=  0.47448791
 Iteration  5 RMS(Cart)=  0.00154892 RMS(Int)=  0.47428054
 Iteration  6 RMS(Cart)=  0.00150402 RMS(Int)=  0.47407931
 Iteration  7 RMS(Cart)=  0.00145765 RMS(Int)=  0.47388446
 Iteration  8 RMS(Cart)=  0.00141158 RMS(Int)=  0.47369599
 Iteration  9 RMS(Cart)=  0.00136807 RMS(Int)=  0.47351352
 Iteration 10 RMS(Cart)=  0.00132696 RMS(Int)=  0.47333672
 Iteration 11 RMS(Cart)=  0.00128806 RMS(Int)=  0.47316526
 Iteration 12 RMS(Cart)=  0.00125123 RMS(Int)=  0.47299886
 Iteration 13 RMS(Cart)=  0.00121629 RMS(Int)=  0.47283724
 Iteration 14 RMS(Cart)=  0.00118313 RMS(Int)=  0.47268016
 Iteration 15 RMS(Cart)=  0.00115162 RMS(Int)=  0.47252738
 Iteration 16 RMS(Cart)=  0.00112164 RMS(Int)=  0.47237868
 Iteration 17 RMS(Cart)=  0.00109310 RMS(Int)=  0.47222777
 Iteration 18 RMS(Cart)=  0.00922766 RMS(Int)=  0.46859739
 Iteration 19 RMS(Cart)=  0.00827124 RMS(Int)=  0.46498948
 Iteration 20 RMS(Cart)=  0.00747442 RMS(Int)=  0.46125383
 Iteration 21 RMS(Cart)=  0.00679038 RMS(Int)=  0.45700027
 Iteration 22 RMS(Cart)=  0.00617032 RMS(Int)=  0.44935898
 Iteration 23 RMS(Cart)=  0.00563696 RMS(Int)=  0.04475609
 Iteration 24 RMS(Cart)=  0.00149815 RMS(Int)=  0.45063817
 Iteration 25 RMS(Cart)=  0.00508817 RMS(Int)=  0.44486318
 Iteration 26 RMS(Cart)=  0.00464621 RMS(Int)=  0.04091029
 Iteration 27 RMS(Cart)=  0.00129787 RMS(Int)=  0.44839560
 Iteration 28 RMS(Cart)=  0.00422793 RMS(Int)=  0.44354591
 Iteration 29 RMS(Cart)=  0.00388193 RMS(Int)=  0.03434765
 Iteration 30 RMS(Cart)=  0.00088185 RMS(Int)=  0.45312514
 Iteration 31 RMS(Cart)=  0.00355767 RMS(Int)=  0.44710699
 Iteration 32 RMS(Cart)=  0.00329970 RMS(Int)=  0.03341672
 Iteration 33 RMS(Cart)=  0.00090442 RMS(Int)=  0.44927685
 Iteration 34 RMS(Cart)=  0.00301973 RMS(Int)=  0.44302306
 Iteration 35 RMS(Cart)=  0.00277810 RMS(Int)=  0.03419003
 Iteration 36 RMS(Cart)=  0.00096691 RMS(Int)=  0.44481515
 Iteration 37 RMS(Cart)=  0.00258285 RMS(Int)=  0.43995160
 Iteration 38 RMS(Cart)=  0.00239084 RMS(Int)=  0.03210899
 Iteration 39 RMS(Cart)=  0.00087467 RMS(Int)=  0.44528984
 Iteration 40 RMS(Cart)=  0.00222064 RMS(Int)=  0.44088074
 Iteration 41 RMS(Cart)=  0.00205909 RMS(Int)=  0.02485132
 Iteration 42 RMS(Cart)=  0.00057241 RMS(Int)=  0.45307115
 Iteration 43 RMS(Cart)=  0.00191482 RMS(Int)=  0.44572652
 Iteration 44 RMS(Cart)=  0.00177189 RMS(Int)=  0.02850004
 Iteration 45 RMS(Cart)=  0.00074285 RMS(Int)=  0.44671893
 Iteration 46 RMS(Cart)=  0.00166355 RMS(Int)=  0.43989978
 Iteration 47 RMS(Cart)=  0.00154924 RMS(Int)=  0.03257477
 Iteration 48 RMS(Cart)=  0.00088810 RMS(Int)=  0.44108867
 Iteration 49 RMS(Cart)=  0.00145732 RMS(Int)=  0.43667081
 Iteration 50 RMS(Cart)=  0.00135574 RMS(Int)=  0.02765362
 Iteration 51 RMS(Cart)=  0.00071639 RMS(Int)=  0.44613321
 Iteration 52 RMS(Cart)=  0.00127561 RMS(Int)=  0.44173719
 Iteration 53 RMS(Cart)=  0.00119018 RMS(Int)=  0.02266661
 Iteration 54 RMS(Cart)=  0.00056286 RMS(Int)=  0.45140967
 Iteration 55 RMS(Cart)=  0.00111778 RMS(Int)=  0.44493698
 Iteration 56 RMS(Cart)=  0.00104172 RMS(Int)=  0.02659806
 Iteration 57 RMS(Cart)=  0.00070477 RMS(Int)=  0.44634027
 Iteration 58 RMS(Cart)=  0.00099177 RMS(Int)=  0.44025781
 Iteration 59 RMS(Cart)=  0.00092231 RMS(Int)=  0.03036024
 Iteration 60 RMS(Cart)=  0.00082922 RMS(Int)=  0.44193776
 Iteration 61 RMS(Cart)=  0.00089127 RMS(Int)=  0.43755984
 Iteration 62 RMS(Cart)=  0.00083119 RMS(Int)=  0.02566508
 Iteration 63 RMS(Cart)=  0.00068460 RMS(Int)=  0.44695512
 Iteration 64 RMS(Cart)=  0.00079756 RMS(Int)=  0.44240205
 Iteration 65 RMS(Cart)=  0.00074494 RMS(Int)=  0.02371920
 Iteration 66 RMS(Cart)=  0.00062813 RMS(Int)=  0.44894264
 Iteration 67 RMS(Cart)=  0.00071828 RMS(Int)=  0.44354626
 Iteration 68 RMS(Cart)=  0.00067008 RMS(Int)=  0.02610942
 Iteration 69 RMS(Cart)=  0.00071215 RMS(Int)=  0.44613590
 Iteration 70 RMS(Cart)=  0.00065676 RMS(Int)=  0.44099039
 Iteration 71 RMS(Cart)=  0.00061392 RMS(Int)=  0.02786313
 Iteration 72 RMS(Cart)=  0.00077129 RMS(Int)=  0.44416019
 Iteration 73 RMS(Cart)=  0.00060929 RMS(Int)=  0.43972676
 Iteration 74 RMS(Cart)=  0.00056805 RMS(Int)=  0.02436884
 Iteration 75 RMS(Cart)=  0.00066415 RMS(Int)=  0.44793360
 Iteration 76 RMS(Cart)=  0.00056170 RMS(Int)=  0.44311208
 Iteration 77 RMS(Cart)=  0.00052447 RMS(Int)=  0.02465852
 Iteration 78 RMS(Cart)=  0.00067903 RMS(Int)=  0.44754387
 Iteration 79 RMS(Cart)=  0.00052506 RMS(Int)=  0.44243266
 Iteration 80 RMS(Cart)=  0.00049059 RMS(Int)=  0.02631297
 Iteration 81 RMS(Cart)=  0.00073525 RMS(Int)=  0.44569309
 Iteration 82 RMS(Cart)=  0.00049955 RMS(Int)=  0.44093370
 Iteration 83 RMS(Cart)=  0.00046719 RMS(Int)=  0.02631421
 Iteration 84 RMS(Cart)=  0.00073794 RMS(Int)=  0.44568350
 Iteration 85 RMS(Cart)=  0.00047716 RMS(Int)=  0.44117752
 Iteration 86 RMS(Cart)=  0.00044677 RMS(Int)=  0.02401037
 Iteration 87 RMS(Cart)=  0.00066692 RMS(Int)=  0.44818208
 Iteration 88 RMS(Cart)=  0.00045469 RMS(Int)=  0.44323576
 Iteration 89 RMS(Cart)=  0.00042473 RMS(Int)=  0.02500036
 Iteration 90 RMS(Cart)=  0.00070182 RMS(Int)=  0.44706291
 Iteration 91 RMS(Cart)=  0.00043831 RMS(Int)=  0.44204580
 Iteration 92 RMS(Cart)=  0.00041094 RMS(Int)=  0.02634093
 Iteration 93 RMS(Cart)=  0.00074693 RMS(Int)=  0.44559656
 Iteration 94 RMS(Cart)=  0.00042933 RMS(Int)=  0.44096181
 Iteration 95 RMS(Cart)=  0.00040144 RMS(Int)=  0.02540802
 Iteration 96 RMS(Cart)=  0.00071866 RMS(Int)=  0.44661714
 Iteration 97 RMS(Cart)=  0.00041865 RMS(Int)=  0.44201700
 Iteration 98 RMS(Cart)=  0.00039246 RMS(Int)=  0.02415788
 Iteration 99 RMS(Cart)=  0.00068012 RMS(Int)=  0.44797255
 Iteration100 RMS(Cart)=  0.00040707 RMS(Int)=  0.44302422
 New curvilinear step not converged.
 ITry= 6 IFail=1 DXMaxC= 7.49D-01 DCOld= 1.00D+10 DXMaxT= 8.49D-01 DXLimC= 3.00D+00 Rises=F
 SLEqS3 Cycle:   841 Max:0.379958E-04 RMS:0.588034E-05 Conv:0.400319E-06
 SLEqS3 Cycle:   841 Max:0.379958E-04 RMS:0.588034E-05 Conv:0.400319E-06
 Iteration  1 RMS(Cart)=  0.01507802 RMS(Int)=  0.47514896
 Iteration  2 RMS(Cart)=  0.00169404 RMS(Int)=  0.47492173
 Iteration  3 RMS(Cart)=  0.00164278 RMS(Int)=  0.47470151
 Iteration  4 RMS(Cart)=  0.00159451 RMS(Int)=  0.47448791
 Iteration  5 RMS(Cart)=  0.00154892 RMS(Int)=  0.47428054
 Iteration  6 RMS(Cart)=  0.00150402 RMS(Int)=  0.47407931
 Iteration  7 RMS(Cart)=  0.00145765 RMS(Int)=  0.47388446
 Iteration  8 RMS(Cart)=  0.00141158 RMS(Int)=  0.47369599
 Iteration  9 RMS(Cart)=  0.00136807 RMS(Int)=  0.47351352
 Iteration 10 RMS(Cart)=  0.00132696 RMS(Int)=  0.47333672
 Iteration 11 RMS(Cart)=  0.00128806 RMS(Int)=  0.47316526
 Iteration 12 RMS(Cart)=  0.00125123 RMS(Int)=  0.47299886
 Iteration 13 RMS(Cart)=  0.00121629 RMS(Int)=  0.47283724
 Iteration 14 RMS(Cart)=  0.00118313 RMS(Int)=  0.47268016
 Iteration 15 RMS(Cart)=  0.00115162 RMS(Int)=  0.47252738
 Iteration 16 RMS(Cart)=  0.00112164 RMS(Int)=  0.47237868
 Iteration 17 RMS(Cart)=  0.00109310 RMS(Int)=  0.47222777
 Iteration 18 RMS(Cart)=  0.00922766 RMS(Int)=  0.46859739
 Iteration 19 RMS(Cart)=  0.00827124 RMS(Int)=  0.46498948
 Iteration 20 RMS(Cart)=  0.00747442 RMS(Int)=  0.46125383
 Iteration 21 RMS(Cart)=  0.00679038 RMS(Int)=  0.45700027
 Iteration 22 RMS(Cart)=  0.00617032 RMS(Int)=  0.44935898
 Iteration 23 RMS(Cart)=  0.00563696 RMS(Int)=  0.04475609
 Iteration 24 RMS(Cart)=  0.00149815 RMS(Int)=  0.45063817
 Iteration 25 RMS(Cart)=  0.00508817 RMS(Int)=  0.44486318
 Iteration 26 RMS(Cart)=  0.00464621 RMS(Int)=  0.04091029
 Iteration 27 RMS(Cart)=  0.00129787 RMS(Int)=  0.44839560
 Iteration 28 RMS(Cart)=  0.00422793 RMS(Int)=  0.44354591
 Iteration 29 RMS(Cart)=  0.00388193 RMS(Int)=  0.03434765
 Iteration 30 RMS(Cart)=  0.00088185 RMS(Int)=  0.45312514
 Iteration 31 RMS(Cart)=  0.00355767 RMS(Int)=  0.44710699
 Iteration 32 RMS(Cart)=  0.00329970 RMS(Int)=  0.03341672
 Iteration 33 RMS(Cart)=  0.00090442 RMS(Int)=  0.44927685
 Iteration 34 RMS(Cart)=  0.00301973 RMS(Int)=  0.44302306
 Iteration 35 RMS(Cart)=  0.00277810 RMS(Int)=  0.03419003
 Iteration 36 RMS(Cart)=  0.00096691 RMS(Int)=  0.44481515
 Iteration 37 RMS(Cart)=  0.00258285 RMS(Int)=  0.43995160
 Iteration 38 RMS(Cart)=  0.00239084 RMS(Int)=  0.03210899
 Iteration 39 RMS(Cart)=  0.00087467 RMS(Int)=  0.44528984
 Iteration 40 RMS(Cart)=  0.00222064 RMS(Int)=  0.44088074
 Iteration 41 RMS(Cart)=  0.00205909 RMS(Int)=  0.02485132
 Iteration 42 RMS(Cart)=  0.00057241 RMS(Int)=  0.45307115
 Iteration 43 RMS(Cart)=  0.00191482 RMS(Int)=  0.44572652
 Iteration 44 RMS(Cart)=  0.00177189 RMS(Int)=  0.02850004
 Iteration 45 RMS(Cart)=  0.00074285 RMS(Int)=  0.44671893
 Iteration 46 RMS(Cart)=  0.00166355 RMS(Int)=  0.43989978
 Iteration 47 RMS(Cart)=  0.00154924 RMS(Int)=  0.03257477
 Iteration 48 RMS(Cart)=  0.00088810 RMS(Int)=  0.44108867
 Iteration 49 RMS(Cart)=  0.00145732 RMS(Int)=  0.43667081
 Iteration 50 RMS(Cart)=  0.00135574 RMS(Int)=  0.02765362
 Iteration 51 RMS(Cart)=  0.00071639 RMS(Int)=  0.44613321
 Iteration 52 RMS(Cart)=  0.00127561 RMS(Int)=  0.44173719
 Iteration 53 RMS(Cart)=  0.00119018 RMS(Int)=  0.02266661
 Iteration 54 RMS(Cart)=  0.00056286 RMS(Int)=  0.45140967
 Iteration 55 RMS(Cart)=  0.00111778 RMS(Int)=  0.44493698
 Iteration 56 RMS(Cart)=  0.00104172 RMS(Int)=  0.02659806
 Iteration 57 RMS(Cart)=  0.00070477 RMS(Int)=  0.44634027
 Iteration 58 RMS(Cart)=  0.00099177 RMS(Int)=  0.44025781
 Iteration 59 RMS(Cart)=  0.00092231 RMS(Int)=  0.03036024
 Iteration 60 RMS(Cart)=  0.00082922 RMS(Int)=  0.44193776
 Iteration 61 RMS(Cart)=  0.00089127 RMS(Int)=  0.43755984
 Iteration 62 RMS(Cart)=  0.00083119 RMS(Int)=  0.02566508
 Iteration 63 RMS(Cart)=  0.00068460 RMS(Int)=  0.44695512
 Iteration 64 RMS(Cart)=  0.00079756 RMS(Int)=  0.44240205
 Iteration 65 RMS(Cart)=  0.00074494 RMS(Int)=  0.02371920
 Iteration 66 RMS(Cart)=  0.00062813 RMS(Int)=  0.44894264
 Iteration 67 RMS(Cart)=  0.00071828 RMS(Int)=  0.44354626
 Iteration 68 RMS(Cart)=  0.00067008 RMS(Int)=  0.02610942
 Iteration 69 RMS(Cart)=  0.00071215 RMS(Int)=  0.44613590
 Iteration 70 RMS(Cart)=  0.00065676 RMS(Int)=  0.44099039
 Iteration 71 RMS(Cart)=  0.00061392 RMS(Int)=  0.02786313
 Iteration 72 RMS(Cart)=  0.00077129 RMS(Int)=  0.44416019
 Iteration 73 RMS(Cart)=  0.00060929 RMS(Int)=  0.43972676
 Iteration 74 RMS(Cart)=  0.00056805 RMS(Int)=  0.02436884
 Iteration 75 RMS(Cart)=  0.00066415 RMS(Int)=  0.44793360
 Iteration 76 RMS(Cart)=  0.00056170 RMS(Int)=  0.44311208
 Iteration 77 RMS(Cart)=  0.00052447 RMS(Int)=  0.02465852
 Iteration 78 RMS(Cart)=  0.00067903 RMS(Int)=  0.44754387
 Iteration 79 RMS(Cart)=  0.00052506 RMS(Int)=  0.44243266
 Iteration 80 RMS(Cart)=  0.00049059 RMS(Int)=  0.02631297
 Iteration 81 RMS(Cart)=  0.00073525 RMS(Int)=  0.44569309
 Iteration 82 RMS(Cart)=  0.00049955 RMS(Int)=  0.44093370
 Iteration 83 RMS(Cart)=  0.00046719 RMS(Int)=  0.02631421
 Iteration 84 RMS(Cart)=  0.00073794 RMS(Int)=  0.44568350
 Iteration 85 RMS(Cart)=  0.00047716 RMS(Int)=  0.44117752
 Iteration 86 RMS(Cart)=  0.00044677 RMS(Int)=  0.02401037
 Iteration 87 RMS(Cart)=  0.00066692 RMS(Int)=  0.44818208
 Iteration 88 RMS(Cart)=  0.00045469 RMS(Int)=  0.44323576
 Iteration 89 RMS(Cart)=  0.00042473 RMS(Int)=  0.02500036
 Iteration 90 RMS(Cart)=  0.00070182 RMS(Int)=  0.44706291
 Iteration 91 RMS(Cart)=  0.00043831 RMS(Int)=  0.44204580
 Iteration 92 RMS(Cart)=  0.00041094 RMS(Int)=  0.02634093
 Iteration 93 RMS(Cart)=  0.00074693 RMS(Int)=  0.44559656
 Iteration 94 RMS(Cart)=  0.00042933 RMS(Int)=  0.44096181
 Iteration 95 RMS(Cart)=  0.00040144 RMS(Int)=  0.02540802
 Iteration 96 RMS(Cart)=  0.00071866 RMS(Int)=  0.44661714
 Iteration 97 RMS(Cart)=  0.00041865 RMS(Int)=  0.44201700
 Iteration 98 RMS(Cart)=  0.00039246 RMS(Int)=  0.02415788
 Iteration 99 RMS(Cart)=  0.00068012 RMS(Int)=  0.44797255
 Iteration100 RMS(Cart)=  0.00040707 RMS(Int)=  0.44302422
 New curvilinear step not converged.
 ITry= 7 IFail=1 DXMaxC= 7.49D-01 DCOld= 1.00D+10 DXMaxT= 8.49D-01 DXLimC= 3.00D+00 Rises=F
 SLEqS3 Cycle:   841 Max:0.379958E-04 RMS:0.588034E-05 Conv:0.400319E-06
slurmstepd: error: *** JOB 27447041 ON lewis4-r630-hpc4rc-node371 CANCELLED AT 2023-05-16T00:17:27 DUE TO TIME LIMIT ***
