### Starting Gaussian ###
 Entering Gaussian System, Link 0=g16
 Initial command:
 /cluster/software/gaussian/gaussian-16-A.03/avx2/g16/l1.exe "/local/scratch/linjian/Gau-9534.inp" -scrdir="/local/scratch/linjian/"
 Entering Link 1 = /cluster/software/gaussian/gaussian-16-A.03/avx2/g16/l1.exe PID=      9535.
  
 Copyright (c) 1988,1990,1992,1993,1995,1998,2003,2009,2016,
            Gaussian, Inc.  All Rights Reserved.
  
 This is part of the Gaussian(R) 16 program.  It is based on
 the Gaussian(R) 09 system (copyright 2009, Gaussian, Inc.),
 the Gaussian(R) 03 system (copyright 2003, Gaussian, Inc.),
 the Gaussian(R) 98 system (copyright 1998, Gaussian, Inc.),
 the Gaussian(R) 94 system (copyright 1995, Gaussian, Inc.),
 the Gaussian 92(TM) system (copyright 1992, Gaussian, Inc.),
 the Gaussian 90(TM) system (copyright 1990, Gaussian, Inc.),
 the Gaussian 88(TM) system (copyright 1988, Gaussian, Inc.),
 the Gaussian 86(TM) system (copyright 1986, Carnegie Mellon
 University), and the Gaussian 82(TM) system (copyright 1983,
 Carnegie Mellon University). Gaussian is a federally registered
 trademark of Gaussian, Inc.
  
 This software contains proprietary and confidential information,
 including trade secrets, belonging to Gaussian, Inc.
  
 This software is provided under written license and may be
 used, copied, transmitted, or stored only in accord with that
 written license.
  
 The following legend is applicable only to US Government
 contracts under FAR:
  
                    RESTRICTED RIGHTS LEGEND
  
 Use, reproduction and disclosure by the US Government is
 subject to restrictions as set forth in subparagraphs (a)
 and (c) of the Commercial Computer Software - Restricted
 Rights clause in FAR 52.227-19.
  
 Gaussian, Inc.
 340 Quinnipiac St., Bldg. 40, Wallingford CT 06492
  
  
 ---------------------------------------------------------------
 Warning -- This program may not be used in any manner that
 competes with the business of Gaussian, Inc. or will provide
 assistance to any competitor of Gaussian, Inc.  The licensee
 of this program is prohibited from giving any competitor of
 Gaussian, Inc. access to this program.  By using this program,
 the user acknowledges that Gaussian, Inc. is engaged in the
 business of creating and licensing software in the field of
 computational chemistry and represents and warrants to the
 licensee that it is not a competitor of Gaussian, Inc. and that
 it will not use this program in any manner prohibited above.
 ---------------------------------------------------------------
  

 Cite this work as:
 Gaussian 16, Revision A.03,
 M. J. Frisch, G. W. Trucks, H. B. Schlegel, G. E. Scuseria, 
 M. A. Robb, J. R. Cheeseman, G. Scalmani, V. Barone, 
 G. A. Petersson, H. Nakatsuji, X. Li, M. Caricato, A. V. Marenich, 
 J. Bloino, B. G. Janesko, R. Gomperts, B. Mennucci, H. P. Hratchian, 
 J. V. Ortiz, A. F. Izmaylov, J. L. Sonnenberg, D. Williams-Young, 
 F. Ding, F. Lipparini, F. Egidi, J. Goings, B. Peng, A. Petrone, 
 T. Henderson, D. Ranasinghe, V. G. Zakrzewski, J. Gao, N. Rega, 
 G. Zheng, W. Liang, M. Hada, M. Ehara, K. Toyota, R. Fukuda, 
 J. Hasegawa, M. Ishida, T. Nakajima, Y. Honda, O. Kitao, H. Nakai, 
 T. Vreven, K. Throssell, J. A. Montgomery, Jr., J. E. Peralta, 
 F. Ogliaro, M. J. Bearpark, J. J. Heyd, E. N. Brothers, K. N. Kudin, 
 V. N. Staroverov, T. A. Keith, R. Kobayashi, J. Normand, 
 K. Raghavachari, A. P. Rendell, J. C. Burant, S. S. Iyengar, 
 J. Tomasi, M. Cossi, J. M. Millam, M. Klene, C. Adamo, R. Cammi, 
 J. W. Ochterski, R. L. Martin, K. Morokuma, O. Farkas, 
 J. B. Foresman, and D. J. Fox, Gaussian, Inc., Wallingford CT, 2016.
 
 ******************************************
 Gaussian 16:  ES64L-G16RevA.03 25-Dec-2016
                19-May-2023 
 ******************************************
 %chk=OdC1CdCCdCCdCCdNCdCqOrCqdOrCdC1.chk
 %NProcShared=20
 Will use up to   20 processors via shared memory.
 -----------------------------
 # opt freq b3lyp/6-31g(2df,p)
 -----------------------------
 1/18=20,19=15,26=3,38=1/1,3;
 2/9=110,12=2,17=6,18=5,40=1/2;
 3/5=1,6=6,7=104,11=2,25=1,30=1,71=1,74=-5/1,2,3;
 4//1;
 5/5=2,38=5/2;
 6/7=2,8=2,9=2,10=2,28=1/1;
 7//1,2,3,16;
 1/18=20,19=15,26=3/3(2);
 2/9=110/2;
 99//99;
 2/9=110/2;
 3/5=1,6=6,7=104,11=2,25=1,30=1,71=1,74=-5/1,2,3;
 4/5=5,16=3,69=1/1;
 5/5=2,38=5/2;
 7//1,2,3,16;
 1/18=20,19=15,26=3/3(-5);
 2/9=110/2;
 6/7=2,8=2,9=2,10=2,19=2,28=1/1;
 99/9=1/99;
 -------------------
 Title Card Required
 -------------------
 Symbolic Z-matrix:
 Charge =  0 Multiplicity = 1
 O                     3.70737   0.46199   0.36808 
 C                     5.40108   1.05709   0.94249 
 C                     3.25529   1.13      1.01287 
 C                     4.70081   1.28139   1.159 
 C                     5.03584   2.26975   2.113 
 C                     6.25934   2.35236   2.19273 
 C                     7.01729   3.08932   2.90407 
 C                     8.23074   3.30081   3.1082 
 C                     8.82231   4.06313   3.84402 
 N                     9.87983   3.94475   3.72976 
 C                     10.96785   4.61979   4.38133 
 C                     12.68325   4.54405   4.30822 
 O                     13.58212   3.80413   3.59403 
 C                     11.3407   4.05409   3.83529 
 O                     12.14704   5.27815   5.0168 
 C                     9.65222   2.64345   2.4737 
 C                     7.84144   1.62914   1.49466 
 H                     2.4428    1.71397   1.57654 
 H                     5.14671   0.0861    0.00526 
 H                     4.42309   2.73192   2.5591 
 H                     7.43674   2.52432   2.35871 
 H                     6.58959   3.66546   3.46018 
 H                     8.79416   2.11206   1.96079 
 H                     8.67409   4.67722   4.43676 
 H                     10.68316   5.49559   5.22668 
 H                     12.99399   3.25839   3.06727 
 H                     11.13729   3.17577   2.98751 
 H                     6.75531   0.69911   0.59697 
 
 Add virtual bond connecting atoms H19        and O1         Dist= 2.89D+00.
 Add virtual bond connecting atoms H19        and C2         Dist= 2.60D+00.
 Add virtual bond connecting atoms H28        and C2         Dist= 2.73D+00.

 GradGradGradGradGradGradGradGradGradGradGradGradGradGradGradGradGradGrad
 Berny optimization.
 Initialization pass.
                           ----------------------------
                           !    Initial Parameters    !
                           ! (Angstroms and Degrees)  !
 --------------------------                            --------------------------
 ! Name  Definition              Value          Derivative Info.                !
 --------------------------------------------------------------------------------
 ! R1    R(1,3)                  1.0327         estimate D2E/DX2                !
 ! R2    R(1,4)                  1.5113         estimate D2E/DX2                !
 ! R3    R(1,19)                 1.5312         estimate D2E/DX2                !
 ! R4    R(2,4)                  0.7665         estimate D2E/DX2                !
 ! R5    R(2,5)                  1.7245         estimate D2E/DX2                !
 ! R6    R(2,19)                 1.3733         estimate D2E/DX2                !
 ! R7    R(2,28)                 1.4427         estimate D2E/DX2                !
 ! R8    R(3,4)                  1.4608         estimate D2E/DX2                !
 ! R9    R(3,18)                 1.1484         estimate D2E/DX2                !
 ! R10   R(4,5)                  1.4139         estimate D2E/DX2                !
 ! R11   R(5,6)                  1.2289         estimate D2E/DX2                !
 ! R12   R(5,20)                 0.8877         estimate D2E/DX2                !
 ! R13   R(6,7)                  1.2742         estimate D2E/DX2                !
 ! R14   R(6,21)                 1.2014         estimate D2E/DX2                !
 ! R15   R(7,8)                  1.2485         estimate D2E/DX2                !
 ! R16   R(7,21)                 0.8903         estimate D2E/DX2                !
 ! R17   R(7,22)                 0.9078         estimate D2E/DX2                !
 ! R18   R(8,9)                  1.2135         estimate D2E/DX2                !
 ! R19   R(8,16)                 1.6898         estimate D2E/DX2                !
 ! R20   R(9,10)                 1.0702         estimate D2E/DX2                !
 ! R21   R(9,24)                 0.8663         estimate D2E/DX2                !
 ! R22   R(10,11)                1.4367         estimate D2E/DX2                !
 ! R23   R(10,14)                1.4688         estimate D2E/DX2                !
 ! R24   R(11,12)                1.7186         estimate D2E/DX2                !
 ! R25   R(11,14)                0.8702         estimate D2E/DX2                !
 ! R26   R(11,15)                1.4926         estimate D2E/DX2                !
 ! R27   R(11,25)                1.2501         estimate D2E/DX2                !
 ! R28   R(12,13)                1.3658         estimate D2E/DX2                !
 ! R29   R(12,14)                1.5054         estimate D2E/DX2                !
 ! R30   R(12,15)                1.1526         estimate D2E/DX2                !
 ! R31   R(13,26)                0.9598         estimate D2E/DX2                !
 ! R32   R(14,27)                1.2376         estimate D2E/DX2                !
 ! R33   R(16,23)                1.1321         estimate D2E/DX2                !
 ! R34   R(17,23)                1.1654         estimate D2E/DX2                !
 ! A1    A(3,1,19)             135.9118         estimate D2E/DX2                !
 ! A2    A(4,1,19)              68.8502         estimate D2E/DX2                !
 ! A3    A(4,2,19)             103.3235         estimate D2E/DX2                !
 ! A4    A(5,2,19)             157.0984         estimate D2E/DX2                !
 ! A5    A(5,2,28)             122.4            estimate D2E/DX2                !
 ! A6    A(19,2,28)             80.5016         estimate D2E/DX2                !
 ! A7    A(1,3,18)             160.9324         estimate D2E/DX2                !
 ! A8    A(4,3,18)             126.7484         estimate D2E/DX2                !
 ! A9    A(1,4,2)              107.1011         estimate D2E/DX2                !
 ! A10   A(1,4,5)              152.6076         estimate D2E/DX2                !
 ! A11   A(2,4,3)              147.7203         estimate D2E/DX2                !
 ! A12   A(3,4,5)              111.9884         estimate D2E/DX2                !
 ! A13   A(2,5,6)               83.1335         estimate D2E/DX2                !
 ! A14   A(2,5,20)             148.578          estimate D2E/DX2                !
 ! A15   A(4,5,6)              109.0673         estimate D2E/DX2                !
 ! A16   A(4,5,20)             122.6442         estimate D2E/DX2                !
 ! A17   A(6,5,20)             128.2885         estimate D2E/DX2                !
 ! A18   A(5,6,7)              131.8621         estimate D2E/DX2                !
 ! A19   A(6,7,8)              140.1177         estimate D2E/DX2                !
 ! A20   A(6,7,22)             115.3909         estimate D2E/DX2                !
 ! A21   A(8,7,21)              75.5076         estimate D2E/DX2                !
 ! A22   A(8,7,22)             104.4914         estimate D2E/DX2                !
 ! A23   A(7,8,9)              132.793          estimate D2E/DX2                !
 ! A24   A(7,8,16)             133.6535         estimate D2E/DX2                !
 ! A25   A(9,8,16)              93.5535         estimate D2E/DX2                !
 ! A26   A(8,9,10)             110.3334         estimate D2E/DX2                !
 ! A27   A(8,9,24)             140.9716         estimate D2E/DX2                !
 ! A28   A(10,9,24)            108.695          estimate D2E/DX2                !
 ! A29   A(9,10,11)            130.3857         estimate D2E/DX2                !
 ! A30   A(10,11,12)           135.7171         estimate D2E/DX2                !
 ! A31   A(10,11,25)           117.6073         estimate D2E/DX2                !
 ! A32   A(12,11,25)           106.6756         estimate D2E/DX2                !
 ! A33   A(14,11,15)           102.4393         estimate D2E/DX2                !
 ! A34   A(15,11,25)            65.3535         estimate D2E/DX2                !
 ! A35   A(11,12,13)           134.6674         estimate D2E/DX2                !
 ! A36   A(13,12,14)           104.2606         estimate D2E/DX2                !
 ! A37   A(14,12,15)            89.1711         estimate D2E/DX2                !
 ! A38   A(12,13,26)           101.0544         estimate D2E/DX2                !
 ! A39   A(10,14,12)           159.0434         estimate D2E/DX2                !
 ! A40   A(10,14,27)            74.6012         estimate D2E/DX2                !
 ! A41   A(11,14,27)           145.1686         estimate D2E/DX2                !
 ! A42   A(12,14,27)           126.3555         estimate D2E/DX2                !
 ! A43   A(8,16,23)             73.4492         estimate D2E/DX2                !
 ! A44   A(1,19,2)              80.7253         estimate D2E/DX2                !
 ! A45   L(4,2,28,19,-1)       183.8251         estimate D2E/DX2                !
 ! A46   L(5,6,21,22,-1)       173.8864         estimate D2E/DX2                !
 ! A47   L(21,7,22,8,-1)       179.9989         estimate D2E/DX2                !
 ! A48   L(9,10,14,16,-1)      194.7816         estimate D2E/DX2                !
 ! A49   L(10,11,15,25,-1)     182.9608         estimate D2E/DX2                !
 ! A50   L(14,11,25,15,-1)     167.7928         estimate D2E/DX2                !
 ! A51   L(13,12,15,14,-1)     193.4317         estimate D2E/DX2                !
 ! A52   L(16,23,17,8,-1)      174.4453         estimate D2E/DX2                !
 ! A53   L(4,2,28,19,-2)       180.0009         estimate D2E/DX2                !
 ! A54   L(5,6,21,22,-2)       179.9998         estimate D2E/DX2                !
 ! A55   L(21,7,22,8,-2)       179.9999         estimate D2E/DX2                !
 ! A56   L(9,10,14,16,-2)      179.9996         estimate D2E/DX2                !
 ! A57   L(10,11,15,25,-2)     180.0            estimate D2E/DX2                !
 ! A58   L(14,11,25,15,-2)     179.9996         estimate D2E/DX2                !
 ! A59   L(13,12,15,14,-2)     179.9998         estimate D2E/DX2                !
 ! A60   L(16,23,17,8,-2)      179.9998         estimate D2E/DX2                !
 ! D1    D(19,1,3,18)         -180.0            estimate D2E/DX2                !
 ! D2    D(19,1,4,2)             0.0005         estimate D2E/DX2                !
 ! D3    D(19,1,4,5)           179.9997         estimate D2E/DX2                !
 ! D4    D(3,1,19,2)            -0.0004         estimate D2E/DX2                !
 ! D5    D(4,1,19,2)            -0.0003         estimate D2E/DX2                !
 ! D6    D(19,2,4,1)            -0.0005         estimate D2E/DX2                !
 ! D7    D(19,2,4,3)            -0.001          estimate D2E/DX2                !
 ! D8    D(19,2,5,6)           179.9995         estimate D2E/DX2                !
 ! D9    D(19,2,5,20)           -0.0013         estimate D2E/DX2                !
 ! D10   D(28,2,5,6)             0.0009         estimate D2E/DX2                !
 ! D11   D(28,2,5,20)         -179.9999         estimate D2E/DX2                !
 ! D12   D(4,2,19,1)             0.0005         estimate D2E/DX2                !
 ! D13   D(5,2,19,1)             0.0008         estimate D2E/DX2                !
 ! D14   D(28,2,19,1)          179.9996         estimate D2E/DX2                !
 ! D15   D(18,3,4,2)          -179.9992         estimate D2E/DX2                !
 ! D16   D(18,3,4,5)            -0.0002         estimate D2E/DX2                !
 ! D17   D(1,4,5,6)           -179.9993         estimate D2E/DX2                !
 ! D18   D(1,4,5,20)             0.0002         estimate D2E/DX2                !
 ! D19   D(3,4,5,6)           -179.9996         estimate D2E/DX2                !
 ! D20   D(3,4,5,20)            -0.0001         estimate D2E/DX2                !
 ! D21   D(2,5,6,7)           -179.9999         estimate D2E/DX2                !
 ! D22   D(4,5,6,7)           -179.9998         estimate D2E/DX2                !
 ! D23   D(20,5,6,7)             0.0006         estimate D2E/DX2                !
 ! D24   D(5,6,7,8)           -180.0            estimate D2E/DX2                !
 ! D25   D(5,6,7,22)            -0.0004         estimate D2E/DX2                !
 ! D26   D(6,7,8,9)           -180.0            estimate D2E/DX2                !
 ! D27   D(6,7,8,16)            -0.0008         estimate D2E/DX2                !
 ! D28   D(21,7,8,9)          -179.9997         estimate D2E/DX2                !
 ! D29   D(21,7,8,16)           -0.0005         estimate D2E/DX2                !
 ! D30   D(22,7,8,9)             0.0004         estimate D2E/DX2                !
 ! D31   D(22,7,8,16)          179.9996         estimate D2E/DX2                !
 ! D32   D(7,8,9,10)           179.9994         estimate D2E/DX2                !
 ! D33   D(7,8,9,24)            -0.0006         estimate D2E/DX2                !
 ! D34   D(16,8,9,10)            0.0            estimate D2E/DX2                !
 ! D35   D(16,8,9,24)          180.0            estimate D2E/DX2                !
 ! D36   D(7,8,16,23)            0.0002         estimate D2E/DX2                !
 ! D37   D(9,8,16,23)          179.9996         estimate D2E/DX2                !
 ! D38   D(8,9,10,11)          179.9998         estimate D2E/DX2                !
 ! D39   D(24,9,10,11)          -0.0002         estimate D2E/DX2                !
 ! D40   D(8,9,14,12)         -179.9998         estimate D2E/DX2                !
 ! D41   D(8,9,14,27)           -0.0003         estimate D2E/DX2                !
 ! D42   D(24,9,14,12)           0.0004         estimate D2E/DX2                !
 ! D43   D(24,9,14,27)         179.9999         estimate D2E/DX2                !
 ! D44   D(9,10,11,12)        -179.9997         estimate D2E/DX2                !
 ! D45   D(9,10,11,25)           0.0002         estimate D2E/DX2                !
 ! D46   D(10,11,12,13)         -0.0003         estimate D2E/DX2                !
 ! D47   D(25,11,12,13)        179.9998         estimate D2E/DX2                !
 ! D48   D(15,11,14,27)        179.9994         estimate D2E/DX2                !
 ! D49   D(11,12,13,26)          0.0            estimate D2E/DX2                !
 ! D50   D(14,12,13,26)         -0.0003         estimate D2E/DX2                !
 ! D51   D(13,12,14,10)        179.9989         estimate D2E/DX2                !
 ! D52   D(13,12,14,27)          0.0001         estimate D2E/DX2                !
 ! D53   D(15,12,14,10)         -0.0009         estimate D2E/DX2                !
 ! D54   D(15,12,14,27)       -179.9997         estimate D2E/DX2                !
 --------------------------------------------------------------------------------
 Trust Radius=3.00D-01 FncErr=1.00D-07 GrdErr=1.00D-06 EigMax=2.50D+02 EigMin=1.00D-04
 Number of steps in this run=    158 maximum allowed number of steps=    168.
 GradGradGradGradGradGradGradGradGradGradGradGradGradGradGradGradGradGrad

                          Input orientation:                          
 ---------------------------------------------------------------------
 Center     Atomic      Atomic             Coordinates (Angstroms)
 Number     Number       Type             X           Y           Z
 ---------------------------------------------------------------------
      1          8           0        3.707370    0.461990    0.368080
      2          6           0        5.401080    1.057090    0.942490
      3          6           0        3.255290    1.130000    1.012870
      4          6           0        4.700810    1.281390    1.159000
      5          6           0        5.035840    2.269750    2.113000
      6          6           0        6.259340    2.352360    2.192730
      7          6           0        7.017290    3.089320    2.904070
      8          6           0        8.230740    3.300810    3.108200
      9          6           0        8.822310    4.063130    3.844020
     10          7           0        9.879830    3.944750    3.729760
     11          6           0       10.967850    4.619790    4.381330
     12          6           0       12.683250    4.544050    4.308220
     13          8           0       13.582120    3.804130    3.594030
     14          6           0       11.340700    4.054090    3.835290
     15          8           0       12.147040    5.278150    5.016800
     16          6           0        9.652220    2.643450    2.473700
     17          6           0        7.841440    1.629140    1.494660
     18          1           0        2.442800    1.713970    1.576540
     19          1           0        5.146710    0.086100    0.005260
     20          1           0        4.423090    2.731920    2.559100
     21          1           0        7.436740    2.524320    2.358710
     22          1           0        6.589590    3.665460    3.460180
     23          1           0        8.794160    2.112060    1.960790
     24          1           0        8.674090    4.677220    4.436760
     25          1           0       10.683160    5.495590    5.226680
     26          1           0       12.993990    3.258390    3.067270
     27          1           0       11.137290    3.175770    2.987510
     28          1           0        6.755310    0.699110    0.596970
 ---------------------------------------------------------------------
                    Distance matrix (angstroms):
                    1          2          3          4          5
     1  O    0.000000
     2  C    1.884873   0.000000
     3  C    1.032651   2.148182   0.000000
     4  C    1.511256   0.766528   1.460754   0.000000
     5  C    2.842107   1.724540   2.383207   1.413937   0.000000
     6  C    3.662704   1.994351   3.451166   2.155131   1.228875
     7  C    4.928456   3.254211   4.644159   3.417596   2.285526
     8  C    6.002336   4.210885   5.818756   4.509750   3.501556
     9  C    7.156324   5.399997   6.900027   5.651033   4.533210
    10  N    7.844092   6.013872   7.693428   6.365889   5.374363
    11  C    9.279442   7.450328   9.110913   7.797699   6.771761
    12  C   10.618585   8.747401  10.554691   9.180517   8.274921
    13  O   10.912715   9.028084  10.975280   9.548364   8.808330
    14  C    9.120990   7.254611   9.049321   7.677144   6.775058
    15  O   10.771909   8.940097  10.597255   9.289944   8.249345
    16  C    6.673353   4.788876   6.733890   5.300953   4.645505
    17  C    4.440941   2.566611   4.638322   3.177602   2.943487
    18  H    2.151039   3.095954   1.148427   2.336680   2.705649
    19  H    1.531219   1.373290   2.383794   1.720076   3.036970
    20  H    3.235028   2.524866   2.514107   2.035054   0.887732
    21  H    4.703617   2.881381   4.608681   3.235659   2.426829
    22  H    5.303819   3.815090   4.851334   3.814015   2.485365
    23  H    5.579865   3.696334   5.704566   4.253045   3.764705
    24  H    7.680536   6.002321   7.325926   6.169467   4.942938
    25  H    9.879513   8.121264   9.591028   8.372217   7.210636
    26  H   10.067114   8.186128  10.178059   8.736524   8.075902
    27  H    8.332450   6.447869   8.379159   6.954164   6.230035
    28  H    3.065706   1.442731   3.550884   2.208144   2.778819
                    6          7          8          9         10
     6  C    0.000000
     7  C    1.274207   0.000000
     8  C    2.371510   1.248542   0.000000
     9  C    3.496042   2.256083   1.213473   0.000000
    10  N    4.243361   3.099623   1.876298   1.070242   0.000000
    11  C    5.665799   4.486821   3.294289   2.280771   1.436666
    12  C    7.109530   6.015894   4.776038   3.918370   2.924541
    13  O    7.595682   6.639578   5.396909   4.773402   3.707445
    14  C    5.604829   4.526569   3.281454   2.518421   1.468752
    15  O    7.155462   5.963970   4.784353   3.729010   2.928254
    16  C    3.416916   2.706820   1.689769   2.140565   1.822875
    17  C    1.874404   2.190385   2.355748   3.522202   3.809561
    18  H    3.918317   4.957810   6.193892   7.166461   8.057428
    19  H    3.340495   4.574003   5.428981   6.637988   7.152867
    20  H    1.910525   2.641328   3.888875   4.772450   5.711166
    21  H    1.201412   0.890270   1.339816   2.548310   3.141033
    22  H    1.854650   0.907812   1.717624   2.300112   3.313058
    23  H    2.556727   2.236533   1.745600   2.711830   2.768878
    24  H    4.033815   2.759629   1.963705   0.866266   1.578027
    25  H    6.217309   4.962183   3.913998   2.725152   2.300264
    26  H    6.851366   5.981318   4.763615   4.319012   3.256989
    27  H    5.010397   4.121752   2.911741   2.623004   1.650294
    28  H    2.350675   3.332334   3.905383   5.111991   5.487365
                   11         12         13         14         15
    11  C    0.000000
    12  C    1.718627   0.000000
    13  O    2.849482   1.365839   0.000000
    14  C    0.870169   1.505378   2.268182   0.000000
    15  O    1.492565   1.152610   2.501292   1.882677   0.000000
    16  C    3.045629   4.020558   4.248109   2.587431   4.430929
    17  C    5.201086   6.313156   6.487938   4.858369   6.652739
    18  H    9.433298  10.969879  11.511885   9.473687  10.895460
    19  H    8.578462   9.756445   9.892379   8.293346  10.053732
    20  H    7.051132   8.635594   9.279469   7.157522   8.496057
    21  H    4.577196   5.950274   6.397626   4.445378   6.069263
    22  H    4.574759   6.214804   6.995186   4.781714   5.992419
    23  H    4.107633   5.152672   5.334335   3.710808   5.532190
    24  H    2.295148   4.013430   5.055812   2.803724   3.571967
    25  H    1.250076   2.397782   3.732365   2.108613   1.494749
    26  H    2.772257   1.813681   0.959794   1.989060   2.932136
    27  H    2.014110   2.450807   2.596131   1.237559   3.091539
    28  H    6.887569   7.981066   8.076438   6.539756   8.341059
                   16         17         18         19         20
    16  C    0.000000
    17  C    2.294835   0.000000
    18  H    7.324245   5.399927   0.000000
    19  H    5.738715   3.443959   3.525622   0.000000
    20  H    5.230576   3.746235   2.433761   3.747811   0.000000
    21  H    2.221658   1.308324   5.119365   4.089973   3.027431
    22  H    3.375996   3.094672   4.955026   5.179787   2.525305
    23  H    1.132130   1.165403   6.375414   4.607874   4.455160
    24  H    2.991081   4.317412   7.469316   7.291021   5.037936
    25  H    4.095905   6.078880   9.773828   9.336921   7.344544
    26  H    3.449334   5.628173  10.767317   9.001063   8.602077
    27  H    1.659156   3.934882   8.928709   7.370680   6.742479
    28  H    3.961649   1.688337   4.537316   1.820301   3.663539
                   21         22         23         24         25
    21  H    0.000000
    22  H    1.798082   0.000000
    23  H    1.473393   3.085669   0.000000
    24  H    3.237948   2.514460   3.567196   0.000000
    25  H    5.252898   4.819462   5.067804   2.308693   0.000000
    26  H    5.650128   6.429341   4.491875   4.748696   3.874023
    27  H    3.809704   4.598346   2.770540   3.228317   3.256022
    28  H    2.626684   4.126096   2.830785   5.852441   7.737470
                   26         27         28
    26  H    0.000000
    27  H    1.860248   0.000000
    28  H    7.181464   5.572277   0.000000
 Stoichiometry    C13H11NO3
 Framework group  C1[X(C13H11NO3)]
 Deg. of freedom    78
 Full point group                 C1      NOp   1
 Largest Abelian subgroup         C1      NOp   1
 Largest concise Abelian subgroup C1      NOp   1
                         Standard orientation:                         
 ---------------------------------------------------------------------
 Center     Atomic      Atomic             Coordinates (Angstroms)
 Number     Number       Type             X           Y           Z
 ---------------------------------------------------------------------
      1          8           0        5.694787    0.632846   -0.000003
      2          6           0        3.815020    0.771494   -0.000003
      3          6           0        5.617655   -0.396920    0.000000
      4          6           0        4.262928    0.149446    0.000003
      5          6           0        3.281565   -0.868465    0.000005
      6          6           0        2.166790   -0.351347   -0.000001
      7          6           0        0.996082   -0.854383    0.000001
      8          6           0       -0.200239   -0.497067   -0.000004
      9          6           0       -1.244972   -1.114361   -0.000002
     10          7           0       -2.075655   -0.439540    0.000001
     11          6           0       -3.488150   -0.701968    0.000001
     12          6           0       -4.917004    0.253047   -0.000001
     13          8           0       -5.175500    1.594202    0.000002
     14          6           0       -3.414199    0.165052   -0.000005
     15          8           0       -4.967726   -0.898446    0.000001
     16          6           0       -0.968002    1.008210   -0.000001
     17          6           0        1.306381    1.313911    0.000003
     18          1           0        5.910707   -1.507328    0.000003
     19          1           0        4.714542    1.809176   -0.000002
     20          1           0        3.487340   -1.732019    0.000004
     21          1           0        1.029284    0.035268   -0.000002
     22          1           0        0.962208   -1.761563    0.000001
     23          1           0        0.145268    1.213998    0.000003
     24          1           0       -1.546848   -1.926326   -0.000001
     25          1           0       -3.855353   -1.896896    0.000001
     26          1           0       -4.285368    1.953187    0.000006
     27          1           0       -2.623578    1.117140   -0.000003
     28          1           0        2.895757    1.883441    0.000007
 ---------------------------------------------------------------------
 Rotational constants (GHZ):           2.8341472           0.1619335           0.1531812
 Standard basis: 6-31G(2df,p) (6D, 7F)
 There are   582 symmetry adapted cartesian basis functions of A   symmetry.
 There are   531 symmetry adapted basis functions of A   symmetry.
   531 basis functions,   825 primitive gaussians,   582 cartesian basis functions
    60 alpha electrons       60 beta electrons
       nuclear repulsion energy      1148.8257530015 Hartrees.
 NAtoms=   28 NActive=   28 NUniq=   28 SFac= 1.00D+00 NAtFMM=   60 NAOKFM=F Big=F
 Integral buffers will be    131072 words long.
 Raffenetti 2 integral format.
 Two-electron integral symmetry is turned on.
 One-electron integrals computed using PRISM.
 PrsmSu:  requested number of processors reduced to:  12 ShMem   1 Linda.
 NBasis=   531 RedAO= T EigKep=  9.87D-06  NBF=   531
 NBsUse=   531 1.00D-06 EigRej= -1.00D+00 NBFU=   531
 ExpMin= 1.61D-01 ExpMax= 5.48D+03 ExpMxC= 8.25D+02 IAcc=3 IRadAn=         5 AccDes= 0.00D+00
 Harris functional with IExCor=  402 and IRadAn=       5 diagonalized for initial guess.
 HarFok:  IExCor=  402 AccDes= 0.00D+00 IRadAn=         5 IDoV= 1 UseB2=F ITyADJ=14
 ICtDFT=  3500011 ScaDFX=  1.000000  1.000000  1.000000  1.000000
 FoFCou: FMM=F IPFlag=           0 FMFlag=      100000 FMFlg1=           0
         NFxFlg=           0 DoJE=T BraDBF=F KetDBF=T FulRan=T
         wScrn=  0.000000 ICntrl=       500 IOpCl=  0 I1Cent=   200000004 NGrid=           0
         NMat0=    1 NMatS0=      1 NMatT0=    0 NMatD0=    1 NMtDS0=    0 NMtDT0=    0
 Petite list used in FoFCou.
 Requested convergence on RMS density matrix=1.00D-08 within 128 cycles.
 Requested convergence on MAX density matrix=1.00D-06.
 Requested convergence on             energy=1.00D-06.
 No special actions if energy rises.
 Integral accuracy reduced to 1.0D-05 until final iterations.
 EnCoef did     9 forward-backward iterations
 EnCoef did   100 forward-backward iterations
 EnCoef did     4 forward-backward iterations
 EnCoef did    10 forward-backward iterations
 EnCoef did     3 forward-backward iterations
 EnCoef did     5 forward-backward iterations
 Initial convergence to 1.0D-05 achieved.  Increase integral accuracy.
 SCF Done:  E(RB3LYP) =  -778.221815335     A.U. after   33 cycles
            NFock= 33  Conv=0.31D-08     -V/T= 1.9828

 **********************************************************************

            Population analysis using the SCF density.

 **********************************************************************

 Orbital symmetries:
       Occupied  (A) (A) (A) (A) (A) (A) (A) (A) (A) (A) (A) (A)
                 (A) (A) (A) (A) (A) (A) (A) (A) (A) (A) (A) (A)
                 (A) (A) (A) (A) (A) (A) (A) (A) (A) (A) (A) (A)
                 (A) (A) (A) (A) (A) (A) (A) (A) (A) (A) (A) (A)
                 (A) (A) (A) (A) (A) (A) (A) (A) (A) (A) (A) (A)
       Virtual   (A) (A) (A) (A) (A) (A) (A) (A) (A) (A) (A) (A)
                 (A) (A) (A) (A) (A) (A) (A) (A) (A) (A) (A) (A)
                 (A) (A) (A) (A) (A) (A) (A) (A) (A) (A) (A) (A)
                 (A) (A) (A) (A) (A) (A) (A) (A) (A) (A) (A) (A)
                 (A) (A) (A) (A) (A) (A) (A) (A) (A) (A) (A) (A)
                 (A) (A) (A) (A) (A) (A) (A) (A) (A) (A) (A) (A)
                 (A) (A) (A) (A) (A) (A) (A) (A) (A) (A) (A) (A)
                 (A) (A) (A) (A) (A) (A) (A) (A) (A) (A) (A) (A)
                 (A) (A) (A) (A) (A) (A) (A) (A) (A) (A) (A) (A)
                 (A) (A) (A) (A) (A) (A) (A) (A) (A) (A) (A) (A)
                 (A) (A) (A) (A) (A) (A) (A) (A) (A) (A) (A) (A)
                 (A) (A) (A) (A) (A) (A) (A) (A) (A) (A) (A) (A)
                 (A) (A) (A) (A) (A) (A) (A) (A) (A) (A) (A) (A)
                 (A) (A) (A) (A) (A) (A) (A) (A) (A) (A) (A) (A)
                 (A) (A) (A) (A) (A) (A) (A) (A) (A) (A) (A) (A)
                 (A) (A) (A) (A) (A) (A) (A) (A) (A) (A) (A) (A)
                 (A) (A) (A) (A) (A) (A) (A) (A) (A) (A) (A) (A)
                 (A) (A) (A) (A) (A) (A) (A) (A) (A) (A) (A) (A)
                 (A) (A) (A) (A) (A) (A) (A) (A) (A) (A) (A) (A)
                 (A) (A) (A) (A) (A) (A) (A) (A) (A) (A) (A) (A)
                 (A) (A) (A) (A) (A) (A) (A) (A) (A) (A) (A) (A)
                 (A) (A) (A) (A) (A) (A) (A) (A) (A) (A) (A) (A)
                 (A) (A) (A) (A) (A) (A) (A) (A) (A) (A) (A) (A)
                 (A) (A) (A) (A) (A) (A) (A) (A) (A) (A) (A) (A)
                 (A) (A) (A) (A) (A) (A) (A) (A) (A) (A) (A) (A)
                 (A) (A) (A) (A) (A) (A) (A) (A) (A) (A) (A) (A)
                 (A) (A) (A) (A) (A) (A) (A) (A) (A) (A) (A) (A)
                 (A) (A) (A) (A) (A) (A) (A) (A) (A) (A) (A) (A)
                 (A) (A) (A) (A) (A) (A) (A) (A) (A) (A) (A) (A)
                 (A) (A) (A) (A) (A) (A) (A) (A) (A) (A) (A) (A)
                 (A) (A) (A) (A) (A) (A) (A) (A) (A) (A) (A) (A)
                 (A) (A) (A) (A) (A) (A) (A) (A) (A) (A) (A) (A)
                 (A) (A) (A) (A) (A) (A) (A) (A) (A) (A) (A) (A)
                 (A) (A) (A) (A) (A) (A) (A) (A) (A) (A) (A) (A)
                 (A) (A) (A) (A) (A) (A) (A) (A) (A) (A) (A) (A)
                 (A) (A) (A) (A) (A) (A) (A) (A) (A) (A) (A) (A)
                 (A) (A) (A) (A) (A) (A) (A) (A) (A) (A) (A) (A)
                 (A) (A) (A) (A) (A) (A) (A) (A) (A) (A) (A) (A)
                 (A) (A) (A) (A) (A) (A) (A) (A) (A) (A) (A) (A)
                 (A) (A) (A)
 The electronic state is 1-A.
 Alpha  occ. eigenvalues --  -19.20720 -19.20367 -19.18162 -14.32840 -10.33437
 Alpha  occ. eigenvalues --  -10.30105 -10.26282 -10.21593 -10.19093 -10.18124
 Alpha  occ. eigenvalues --  -10.18005 -10.16613 -10.16195 -10.15738 -10.15382
 Alpha  occ. eigenvalues --  -10.15199 -10.13958  -1.29280  -1.21535  -1.08264
 Alpha  occ. eigenvalues --   -1.08206  -0.99999  -0.93599  -0.92256  -0.78716
 Alpha  occ. eigenvalues --   -0.75268  -0.71821  -0.70381  -0.69491  -0.67857
 Alpha  occ. eigenvalues --   -0.66351  -0.61365  -0.59310  -0.59254  -0.58883
 Alpha  occ. eigenvalues --   -0.57179  -0.55832  -0.55394  -0.52863  -0.50159
 Alpha  occ. eigenvalues --   -0.49564  -0.48937  -0.47656  -0.46420  -0.45009
 Alpha  occ. eigenvalues --   -0.42440  -0.39781  -0.39514  -0.37061  -0.34050
 Alpha  occ. eigenvalues --   -0.31076  -0.27782  -0.24035  -0.23858  -0.22628
 Alpha  occ. eigenvalues --   -0.21807  -0.18373  -0.14827  -0.14425  -0.12295
 Alpha virt. eigenvalues --   -0.10199  -0.05854  -0.03113  -0.01575  -0.01078
 Alpha virt. eigenvalues --    0.03302   0.04537   0.04975   0.05468   0.08240
 Alpha virt. eigenvalues --    0.08264   0.10638   0.13162   0.14461   0.14885
 Alpha virt. eigenvalues --    0.16167   0.17880   0.19507   0.20117   0.21530
 Alpha virt. eigenvalues --    0.22196   0.23420   0.25302   0.26766   0.27788
 Alpha virt. eigenvalues --    0.29917   0.32506   0.33309   0.36711   0.37021
 Alpha virt. eigenvalues --    0.37593   0.37817   0.38510   0.40722   0.42300
 Alpha virt. eigenvalues --    0.43478   0.44054   0.44696   0.45076   0.46630
 Alpha virt. eigenvalues --    0.47931   0.49031   0.49796   0.50788   0.51215
 Alpha virt. eigenvalues --    0.52565   0.53292   0.53525   0.55239   0.55552
 Alpha virt. eigenvalues --    0.55597   0.56739   0.58690   0.58849   0.59099
 Alpha virt. eigenvalues --    0.61038   0.61858   0.62409   0.62415   0.62737
 Alpha virt. eigenvalues --    0.65541   0.66106   0.66299   0.66761   0.67043
 Alpha virt. eigenvalues --    0.70306   0.72108   0.72834   0.73740   0.74652
 Alpha virt. eigenvalues --    0.75124   0.75991   0.76694   0.77430   0.79187
 Alpha virt. eigenvalues --    0.79869   0.81621   0.83149   0.83909   0.84163
 Alpha virt. eigenvalues --    0.84166   0.85345   0.85656   0.86887   0.87702
 Alpha virt. eigenvalues --    0.89076   0.89294   0.89839   0.90726   0.91249
 Alpha virt. eigenvalues --    0.92610   0.92662   0.94746   0.95913   0.96406
 Alpha virt. eigenvalues --    0.97201   0.98037   0.99073   1.01159   1.01376
 Alpha virt. eigenvalues --    1.01717   1.03088   1.04284   1.04953   1.05477
 Alpha virt. eigenvalues --    1.07911   1.08058   1.10524   1.10816   1.11963
 Alpha virt. eigenvalues --    1.13390   1.13498   1.13931   1.14388   1.15983
 Alpha virt. eigenvalues --    1.16153   1.16765   1.19136   1.19758   1.20813
 Alpha virt. eigenvalues --    1.21283   1.22897   1.25356   1.27568   1.28184
 Alpha virt. eigenvalues --    1.28585   1.29531   1.30964   1.31677   1.32461
 Alpha virt. eigenvalues --    1.32507   1.34735   1.36278   1.38228   1.38640
 Alpha virt. eigenvalues --    1.40791   1.42518   1.42852   1.43224   1.44292
 Alpha virt. eigenvalues --    1.45249   1.45811   1.48078   1.48467   1.49523
 Alpha virt. eigenvalues --    1.52269   1.53756   1.54356   1.54599   1.55964
 Alpha virt. eigenvalues --    1.56483   1.57283   1.59941   1.62723   1.64388
 Alpha virt. eigenvalues --    1.67198   1.67279   1.67800   1.68847   1.68953
 Alpha virt. eigenvalues --    1.71056   1.72037   1.72989   1.74569   1.75875
 Alpha virt. eigenvalues --    1.77957   1.79489   1.81472   1.83249   1.85140
 Alpha virt. eigenvalues --    1.85728   1.86395   1.88069   1.88471   1.91701
 Alpha virt. eigenvalues --    1.92706   1.94280   1.94666   1.96938   2.01409
 Alpha virt. eigenvalues --    2.02930   2.03591   2.08242   2.12733   2.15200
 Alpha virt. eigenvalues --    2.17805   2.18021   2.20258   2.23455   2.23617
 Alpha virt. eigenvalues --    2.26109   2.26387   2.30339   2.32575   2.35433
 Alpha virt. eigenvalues --    2.36206   2.36622   2.38150   2.42034   2.42106
 Alpha virt. eigenvalues --    2.47232   2.48114   2.49725   2.50847   2.51420
 Alpha virt. eigenvalues --    2.52533   2.54169   2.55857   2.60064   2.62300
 Alpha virt. eigenvalues --    2.62368   2.64038   2.64083   2.67226   2.70384
 Alpha virt. eigenvalues --    2.73280   2.74684   2.75815   2.77244   2.77592
 Alpha virt. eigenvalues --    2.79578   2.80625   2.80829   2.84307   2.84597
 Alpha virt. eigenvalues --    2.85433   2.85798   2.87000   2.89549   2.91488
 Alpha virt. eigenvalues --    2.93043   2.93460   2.94793   2.96819   2.97179
 Alpha virt. eigenvalues --    2.99383   3.00189   3.01580   3.02102   3.03552
 Alpha virt. eigenvalues --    3.04333   3.06995   3.07263   3.08463   3.09130
 Alpha virt. eigenvalues --    3.09765   3.09855   3.10838   3.12881   3.16227
 Alpha virt. eigenvalues --    3.16269   3.16861   3.18489   3.19016   3.20376
 Alpha virt. eigenvalues --    3.22928   3.23175   3.24767   3.25553   3.28330
 Alpha virt. eigenvalues --    3.28734   3.30927   3.31563   3.32625   3.33078
 Alpha virt. eigenvalues --    3.33775   3.36506   3.37056   3.39382   3.39441
 Alpha virt. eigenvalues --    3.40895   3.42872   3.45346   3.45608   3.46900
 Alpha virt. eigenvalues --    3.48352   3.49364   3.49719   3.52981   3.53326
 Alpha virt. eigenvalues --    3.55614   3.56736   3.56930   3.57197   3.61057
 Alpha virt. eigenvalues --    3.61605   3.64597   3.65461   3.70581   3.71992
 Alpha virt. eigenvalues --    3.72539   3.75415   3.77043   3.77051   3.79091
 Alpha virt. eigenvalues --    3.79415   3.80514   3.82539   3.83481   3.84838
 Alpha virt. eigenvalues --    3.85354   3.86968   3.89047   3.89317   3.91674
 Alpha virt. eigenvalues --    3.92988   3.94956   3.95891   3.97582   3.98068
 Alpha virt. eigenvalues --    4.00447   4.00838   4.02694   4.04515   4.05295
 Alpha virt. eigenvalues --    4.06189   4.10614   4.10637   4.11715   4.13368
 Alpha virt. eigenvalues --    4.14550   4.16132   4.17026   4.18413   4.22602
 Alpha virt. eigenvalues --    4.24362   4.24459   4.27000   4.28056   4.29156
 Alpha virt. eigenvalues --    4.30084   4.30816   4.31862   4.34131   4.35753
 Alpha virt. eigenvalues --    4.36636   4.38103   4.39472   4.39775   4.40376
 Alpha virt. eigenvalues --    4.42659   4.43947   4.44442   4.46339   4.47321
 Alpha virt. eigenvalues --    4.47971   4.50237   4.50833   4.50939   4.54002
 Alpha virt. eigenvalues --    4.54742   4.55451   4.57699   4.58877   4.60013
 Alpha virt. eigenvalues --    4.63598   4.65397   4.66240   4.67675   4.68664
 Alpha virt. eigenvalues --    4.71607   4.73252   4.74796   4.75749   4.77262
 Alpha virt. eigenvalues --    4.77945   4.79049   4.81553   4.84378   4.85791
 Alpha virt. eigenvalues --    4.86327   4.88469   4.90366   4.90604   4.92349
 Alpha virt. eigenvalues --    4.92647   4.95738   4.96224   4.97100   4.98880
 Alpha virt. eigenvalues --    5.01436   5.04775   5.05881   5.06294   5.07256
 Alpha virt. eigenvalues --    5.13168   5.14097   5.14676   5.19606   5.20500
 Alpha virt. eigenvalues --    5.26274   5.27110   5.33596   5.34317   5.34325
 Alpha virt. eigenvalues --    5.37710   5.40093   5.42150   5.42327   5.43943
 Alpha virt. eigenvalues --    5.49691   5.49983   5.51561   5.54760   5.57388
 Alpha virt. eigenvalues --    5.58483   5.63356   5.65324   5.66935   5.68085
 Alpha virt. eigenvalues --    5.70273   5.74595   5.76939   5.81282   5.81425
 Alpha virt. eigenvalues --    5.82756   5.85353   5.87322   5.90278   5.92731
 Alpha virt. eigenvalues --    5.96699   5.98478   6.01663   6.06455   6.10483
 Alpha virt. eigenvalues --    6.15186   6.16925   6.19802   6.21983   6.25923
 Alpha virt. eigenvalues --    6.27690   6.29396   6.39257   6.46320   6.50690
 Alpha virt. eigenvalues --    6.56817   6.64093   6.68952   6.71184   6.82534
 Alpha virt. eigenvalues --    6.91622   6.97549   7.10793   7.12704   7.17265
 Alpha virt. eigenvalues --    7.23248   7.30979   7.48627   7.52655   7.62767
 Alpha virt. eigenvalues --    8.41280   8.66588   9.72507  10.23717  10.55093
 Alpha virt. eigenvalues --   10.76251  10.93735  11.24292  11.28670  11.47143
 Alpha virt. eigenvalues --   11.62195  11.81758  12.01858  12.32596  12.51704
 Alpha virt. eigenvalues --   13.01372  13.28682  13.53426  13.58149  13.79353
 Alpha virt. eigenvalues --   31.14689
          Condensed to atoms (all electrons):
               1          2          3          4          5          6
     1  O    8.095393  -0.181584   0.672272  -0.787820  -0.047771  -0.006922
     2  C   -0.181584  25.148509  -0.761191 -18.340584   3.587408  -2.091896
     3  C    0.672272  -0.761191   5.169567   0.987910  -0.027176   0.041443
     4  C   -0.787820 -18.340584   0.987910  24.168114  -3.995360   2.622058
     5  C   -0.047771   3.587408  -0.027176  -3.995360   8.347585  -1.510087
     6  C   -0.006922  -2.091896   0.041443   2.622058  -1.510087   6.847944
     7  C   -0.000268   0.068492  -0.000608  -0.091661   0.009236  -0.132188
     8  C    0.000001   0.012706  -0.000060  -0.021932   0.123752  -0.007146
     9  C    0.000000  -0.000091  -0.000001   0.000116   0.001683   0.063078
    10  N    0.000000   0.000002  -0.000000  -0.000004   0.000092   0.003099
    11  C    0.000000   0.000000  -0.000000  -0.000000   0.000001   0.000147
    12  C    0.000000  -0.000000  -0.000000  -0.000000  -0.000000   0.000001
    13  O    0.000000  -0.000000  -0.000000   0.000000   0.000000  -0.000000
    14  C    0.000000   0.000000   0.000000  -0.000000   0.000000  -0.000031
    15  O    0.000000   0.000000   0.000000   0.000000  -0.000000  -0.000000
    16  C   -0.000000   0.000128   0.000001   0.000333  -0.000361  -0.028169
    17  C   -0.000522   0.045244   0.000247  -0.094428  -0.017665   0.336030
    18  H    0.042371   0.057902   0.200224  -0.140984  -0.013806  -0.005440
    19  H    0.000932  -0.500819  -0.006431   0.673694  -0.015107   0.009805
    20  H    0.004265   0.215202  -0.046458  -0.331709   0.423554  -0.130145
    21  H   -0.000127  -0.019706   0.000531   0.033113  -0.243668  -0.187434
    22  H    0.000002  -0.006323  -0.000002   0.007768  -0.054161  -0.049830
    23  H    0.000005   0.001024  -0.000003  -0.001754   0.000340   0.033776
    24  H    0.000000   0.000004  -0.000000  -0.000004   0.000119   0.004117
    25  H    0.000000   0.000000  -0.000000  -0.000000   0.000000   0.000009
    26  H   -0.000000   0.000000   0.000000   0.000000  -0.000000  -0.000000
    27  H   -0.000000   0.000000   0.000000   0.000000  -0.000002  -0.000548
    28  H    0.001276   0.310490   0.001061  -0.161153  -0.004660  -0.071305
               7          8          9         10         11         12
     1  O   -0.000268   0.000001   0.000000   0.000000   0.000000   0.000000
     2  C    0.068492   0.012706  -0.000091   0.000002   0.000000  -0.000000
     3  C   -0.000608  -0.000060  -0.000001  -0.000000  -0.000000  -0.000000
     4  C   -0.091661  -0.021932   0.000116  -0.000004  -0.000000  -0.000000
     5  C    0.009236   0.123752   0.001683   0.000092   0.000001  -0.000000
     6  C   -0.132188  -0.007146   0.063078   0.003099   0.000147   0.000001
     7  C    6.092966  -0.274153   0.001946  -0.013687  -0.001526   0.000020
     8  C   -0.274153   6.283456  -0.126132  -0.013322  -0.044055  -0.001981
     9  C    0.001946  -0.126132   5.614282   0.585397  -0.034005  -0.002238
    10  N   -0.013687  -0.013322   0.585397   7.063808  -0.422814   0.105675
    11  C   -0.001526  -0.044055  -0.034005  -0.422814   6.912989   0.128497
    12  C    0.000020  -0.001981  -0.002238   0.105675   0.128497   5.426552
    13  O    0.000000   0.000004  -0.000131   0.000538  -0.059765   0.307930
    14  C   -0.002036   0.031474  -0.134163  -0.442347  -0.055225  -0.163471
    15  O   -0.000000   0.000433  -0.001578   0.046175  -0.392312   0.350163
    16  C   -0.133786   0.423045   0.000893   0.181533   0.002071   0.009186
    17  C   -0.110809   0.013944   0.024037   0.007150   0.000198  -0.000009
    18  H   -0.000034   0.000002   0.000000   0.000000   0.000000   0.000000
    19  H   -0.000786   0.000013   0.000002   0.000000   0.000000   0.000000
    20  H    0.006528   0.003607  -0.000023   0.000001   0.000000  -0.000000
    21  H    0.451563  -0.163620  -0.150458  -0.006315  -0.000280  -0.000008
    22  H    0.251844  -0.009040  -0.020849  -0.000889  -0.000135  -0.000003
    23  H    0.045897  -0.133377   0.004716  -0.002595   0.000240   0.000207
    24  H   -0.049463  -0.156362   0.403514  -0.145288   0.047844   0.002156
    25  H   -0.000021  -0.009424  -0.008127  -0.088965   0.435979   0.028540
    26  H   -0.000002   0.000260  -0.000189  -0.013836  -0.008284  -0.185710
    27  H    0.000946   0.049965  -0.026979  -0.255226  -0.113489  -0.199425
    28  H    0.001683   0.001396  -0.000118  -0.000001   0.000000  -0.000000
              13         14         15         16         17         18
     1  O    0.000000   0.000000   0.000000  -0.000000  -0.000522   0.042371
     2  C   -0.000000   0.000000   0.000000   0.000128   0.045244   0.057902
     3  C   -0.000000   0.000000   0.000000   0.000001   0.000247   0.200224
     4  C    0.000000  -0.000000   0.000000   0.000333  -0.094428  -0.140984
     5  C    0.000000   0.000000  -0.000000  -0.000361  -0.017665  -0.013806
     6  C   -0.000000  -0.000031  -0.000000  -0.028169   0.336030  -0.005440
     7  C    0.000000  -0.002036  -0.000000  -0.133786  -0.110809  -0.000034
     8  C    0.000004   0.031474   0.000433   0.423045   0.013944   0.000002
     9  C   -0.000131  -0.134163  -0.001578   0.000893   0.024037   0.000000
    10  N    0.000538  -0.442347   0.046175   0.181533   0.007150   0.000000
    11  C   -0.059765  -0.055225  -0.392312   0.002071   0.000198   0.000000
    12  C    0.307930  -0.163471   0.350163   0.009186  -0.000009   0.000000
    13  O    7.803297  -0.043197   0.040761  -0.000169   0.000000   0.000000
    14  C   -0.043197   6.291148   0.040752  -0.108995   0.000686  -0.000000
    15  O    0.040761   0.040752   8.174693  -0.000963   0.000000  -0.000000
    16  C   -0.000169  -0.108995  -0.000963   6.144442  -0.035203  -0.000000
    17  C    0.000000   0.000686   0.000000  -0.035203   6.333075  -0.000021
    18  H    0.000000  -0.000000  -0.000000  -0.000000  -0.000021   0.670006
    19  H    0.000000   0.000000  -0.000000  -0.000009  -0.016371  -0.000438
    20  H   -0.000000   0.000000   0.000000   0.000022   0.002516   0.025167
    21  H   -0.000000  -0.000592  -0.000000  -0.015143  -0.172838  -0.000033
    22  H    0.000000   0.000066   0.000000   0.013202   0.033091  -0.000003
    23  H   -0.000005  -0.003434  -0.000005   0.100807   0.157670   0.000000
    24  H   -0.000010  -0.024612  -0.003337   0.028810   0.001019   0.000000
    25  H   -0.001668  -0.024295  -0.215418   0.001732   0.000004   0.000000
    26  H    0.323113   0.026176   0.003979  -0.003859   0.000007  -0.000000
    27  H    0.003643   0.510801   0.013517  -0.058114  -0.000422  -0.000000
    28  H    0.000000   0.000000   0.000000  -0.000721   0.179193   0.000056
              19         20         21         22         23         24
     1  O    0.000932   0.004265  -0.000127   0.000002   0.000005   0.000000
     2  C   -0.500819   0.215202  -0.019706  -0.006323   0.001024   0.000004
     3  C   -0.006431  -0.046458   0.000531  -0.000002  -0.000003  -0.000000
     4  C    0.673694  -0.331709   0.033113   0.007768  -0.001754  -0.000004
     5  C   -0.015107   0.423554  -0.243668  -0.054161   0.000340   0.000119
     6  C    0.009805  -0.130145  -0.187434  -0.049830   0.033776   0.004117
     7  C   -0.000786   0.006528   0.451563   0.251844   0.045897  -0.049463
     8  C    0.000013   0.003607  -0.163620  -0.009040  -0.133377  -0.156362
     9  C    0.000002  -0.000023  -0.150458  -0.020849   0.004716   0.403514
    10  N    0.000000   0.000001  -0.006315  -0.000889  -0.002595  -0.145288
    11  C    0.000000   0.000000  -0.000280  -0.000135   0.000240   0.047844
    12  C    0.000000  -0.000000  -0.000008  -0.000003   0.000207   0.002156
    13  O    0.000000  -0.000000  -0.000000   0.000000  -0.000005  -0.000010
    14  C    0.000000   0.000000  -0.000592   0.000066  -0.003434  -0.024612
    15  O   -0.000000   0.000000  -0.000000   0.000000  -0.000005  -0.003337
    16  C   -0.000009   0.000022  -0.015143   0.013202   0.100807   0.028810
    17  C   -0.016371   0.002516  -0.172838   0.033091   0.157670   0.001019
    18  H   -0.000438   0.025167  -0.000033  -0.000003   0.000000   0.000000
    19  H    0.753885  -0.001938  -0.001361   0.000022  -0.000007   0.000000
    20  H   -0.001938   0.702387   0.000371   0.005440  -0.000006   0.000005
    21  H   -0.001361   0.000371   0.988587  -0.040623  -0.008254  -0.004380
    22  H    0.000022   0.005440  -0.040623   0.780050  -0.008007   0.009143
    23  H   -0.000007  -0.000006  -0.008254  -0.008007   0.479653  -0.002831
    24  H    0.000000   0.000005  -0.004380   0.009143  -0.002831   0.818950
    25  H    0.000000  -0.000000  -0.000027  -0.000005  -0.000004   0.046458
    26  H   -0.000000   0.000000   0.000003   0.000000  -0.000185  -0.000047
    27  H   -0.000000   0.000000   0.001644   0.000084  -0.013997  -0.007558
    28  H   -0.056408  -0.000088   0.023945  -0.000927   0.001382   0.000000
              25         26         27         28
     1  O    0.000000  -0.000000  -0.000000   0.001276
     2  C    0.000000   0.000000   0.000000   0.310490
     3  C   -0.000000   0.000000   0.000000   0.001061
     4  C   -0.000000   0.000000   0.000000  -0.161153
     5  C    0.000000  -0.000000  -0.000002  -0.004660
     6  C    0.000009  -0.000000  -0.000548  -0.071305
     7  C   -0.000021  -0.000002   0.000946   0.001683
     8  C   -0.009424   0.000260   0.049965   0.001396
     9  C   -0.008127  -0.000189  -0.026979  -0.000118
    10  N   -0.088965  -0.013836  -0.255226  -0.000001
    11  C    0.435979  -0.008284  -0.113489   0.000000
    12  C    0.028540  -0.185710  -0.199425  -0.000000
    13  O   -0.001668   0.323113   0.003643   0.000000
    14  C   -0.024295   0.026176   0.510801   0.000000
    15  O   -0.215418   0.003979   0.013517   0.000000
    16  C    0.001732  -0.003859  -0.058114  -0.000721
    17  C    0.000004   0.000007  -0.000422   0.179193
    18  H    0.000000  -0.000000  -0.000000   0.000056
    19  H    0.000000  -0.000000  -0.000000  -0.056408
    20  H   -0.000000   0.000000   0.000000  -0.000088
    21  H   -0.000027   0.000003   0.001644   0.023945
    22  H   -0.000005   0.000000   0.000084  -0.000927
    23  H   -0.000004  -0.000185  -0.013997   0.001382
    24  H    0.046458  -0.000047  -0.007558   0.000000
    25  H    0.749226   0.000027  -0.003098  -0.000000
    26  H    0.000027   0.476098   0.086188   0.000000
    27  H   -0.003098   0.086188   1.001802  -0.000000
    28  H   -0.000000   0.000000  -0.000000   0.581172
 Mulliken charges:
               1
     1  O    0.208499
     2  C   -1.544918
     3  C   -0.231326
     4  C    1.474287
     5  C   -0.563944
     6  C    0.259633
     7  C   -0.120091
     8  C    0.016544
     9  C   -0.194583
    10  N    0.411819
    11  C   -0.396073
    12  C    0.193919
    13  O   -0.374341
    14  C    0.101293
    15  O   -0.056861
    16  C   -0.520714
    17  C   -0.685824
    18  H    0.165030
    19  H    0.161323
    20  H    0.121303
    21  H    0.515111
    22  H    0.090083
    23  H    0.348746
    24  H    0.031754
    25  H    0.089078
    26  H    0.296260
    27  H    0.010267
    28  H    0.193726
 Sum of Mulliken charges =  -0.00000
 Mulliken charges with hydrogens summed into heavy atoms:
               1
     1  O    0.208499
     2  C   -1.189869
     3  C   -0.066296
     4  C    1.474287
     5  C   -0.442641
     6  C    0.259633
     7  C    0.485103
     8  C    0.016544
     9  C   -0.162829
    10  N    0.411819
    11  C   -0.306995
    12  C    0.193919
    13  O   -0.078081
    14  C    0.111560
    15  O   -0.056861
    16  C   -0.171968
    17  C   -0.685824
 Electronic spatial extent (au):  <R**2>=           6350.8200
 Charge=             -0.0000 electrons
 Dipole moment (field-independent basis, Debye):
    X=              4.5306    Y=             -4.7732    Z=              0.0000  Tot=              6.5810
 Quadrupole moment (field-independent basis, Debye-Ang):
   XX=            -64.3065   YY=            -95.4151   ZZ=            -96.9738
   XY=             -3.3443   XZ=              0.0000   YZ=              0.0001
 Traceless Quadrupole moment (field-independent basis, Debye-Ang):
   XX=             21.2587   YY=             -9.8500   ZZ=            -11.4087
   XY=             -3.3443   XZ=              0.0000   YZ=              0.0001
 Octapole moment (field-independent basis, Debye-Ang**2):
  XXX=            204.8258  YYY=            -15.3693  ZZZ=             -0.0000  XYY=              7.3016
  XXY=            -41.2722  XXZ=             -0.0000  XZZ=            -13.2398  YZZ=             -3.9381
  YYZ=              0.0002  XYZ=              0.0001
 Hexadecapole moment (field-independent basis, Debye-Ang**3):
 XXXX=          -6591.5383 YYYY=           -573.2008 ZZZZ=            -90.0344 XXXY=           -129.0059
 XXXZ=              0.0006 YYYX=             -7.7487 YYYZ=              0.0003 ZZZX=             -0.0002
 ZZZY=              0.0001 XXYY=          -1285.5192 XXZZ=          -1202.8183 YYZZ=           -119.5668
 XXYZ=              0.0008 YYXZ=              0.0002 ZZXY=              5.2355
 N-N= 1.148825753001D+03 E-N=-4.125227629330D+03  KE= 7.918327186273D+02
 PrsmSu:  requested number of processors reduced to:  13 ShMem   1 Linda.
 Calling FoFJK, ICntrl=      2127 FMM=F ISym2X=0 I1Cent= 0 IOpClX= 0 NMat=1 NMatS=1 NMatT=0.
 ***** Axes restored to original set *****
 -------------------------------------------------------------------
 Center     Atomic                   Forces (Hartrees/Bohr)
 Number     Number              X              Y              Z
 -------------------------------------------------------------------
      1        8          -0.163939148   -0.526406615   -0.508107240
      2        6           3.434371936   -1.203038955   -1.161249039
      3        6          -0.129336886    0.356435570    0.344044318
      4        6          -3.221919379    1.219185995    1.176838630
      5        6           0.013990166   -0.069025645   -0.066622826
      6        6           0.196215355   -0.049226316   -0.047515770
      7        6          -0.165569030    0.194669719    0.187902257
      8        6           0.073456793   -0.153672340   -0.148329890
      9        6          -0.310589748    0.060862530    0.058744489
     10        7           0.267010732   -0.087198054   -0.084162729
     11        6          -1.156437728    1.408271314    1.359328579
     12        6           0.146434754   -0.184069563   -0.177672276
     13        8           0.060409245    0.062462875    0.060292255
     14        6           1.113369851   -1.421978171   -1.372560012
     15        8           0.210350577    0.205870434    0.198713993
     16        6          -0.036303325    0.060824709    0.058710297
     17        6          -0.108438094   -0.084327922   -0.081398756
     18        1          -0.010838977   -0.018341692   -0.017703850
     19        1           0.065314082    0.018883168    0.018224485
     20        1          -0.176595904    0.120474369    0.116284600
     21        1           0.139735847   -0.182619842   -0.176271484
     22        1          -0.106491521    0.131829216    0.127246179
     23        1          -0.023285196   -0.055185641   -0.053265419
     24        1          -0.102234418    0.208664451    0.201409650
     25        1          -0.075232911   -0.044308626   -0.042767737
     26        1          -0.019807605   -0.016018723   -0.015462244
     27        1           0.078908686    0.008630783    0.008330280
     28        1           0.007451847    0.038352971    0.037019259
 -------------------------------------------------------------------
 Cartesian Forces:  Max     3.434371936 RMS     0.689611544

 GradGradGradGradGradGradGradGradGradGradGradGradGradGradGradGradGradGrad
 Berny optimization.
 FormGI is forming the generalized inverse of G from B-inverse, IUseBI=4.
 Internal  Forces:  Max     2.335594733 RMS     0.303956041
 Search for a local minimum.
 Step number   1 out of a maximum of  158
 All quantities printed in internal units (Hartrees-Bohrs-Radians)
 Mixed Optimization -- RFO/linear search
 Second derivative matrix not updated -- first step.
 ITU=  0
     Eigenvalues ---    0.00230   0.00230   0.00230   0.00230   0.00295
     Eigenvalues ---    0.00432   0.00539   0.00605   0.00873   0.00910
     Eigenvalues ---    0.01300   0.01707   0.01929   0.02144   0.02399
     Eigenvalues ---    0.03033   0.03528   0.03649   0.03743   0.03943
     Eigenvalues ---    0.04092   0.04287   0.04352   0.04519   0.04694
     Eigenvalues ---    0.05676   0.09869   0.10588   0.11479   0.12236
     Eigenvalues ---    0.12702   0.12802   0.12954   0.16000   0.16000
     Eigenvalues ---    0.16000   0.16000   0.16000   0.16000   0.16023
     Eigenvalues ---    0.16037   0.18427   0.18469   0.18506   0.18996
     Eigenvalues ---    0.21079   0.21343   0.22000   0.22115   0.22750
     Eigenvalues ---    0.23122   0.23667   0.25000   0.25000   0.25180
     Eigenvalues ---    0.27373   0.28214   0.28848   0.30365   0.30691
     Eigenvalues ---    0.33867   0.34516   0.37528   0.51785   0.55518
     Eigenvalues ---    0.66206   0.67403   0.68402   0.74446   0.81721
     Eigenvalues ---    0.83778   0.91557   0.98334   1.10324   2.10468
     Eigenvalues ---    2.23226   6.01825  10.77241
 RFO step:  Lambda=-1.77381332D+00 EMin= 2.30000000D-03
 Linear search not attempted -- first point.
 Maximum step size (   0.300) exceeded in Quadratic search.
    -- Step size scaled by   0.482
 Iteration  1 RMS(Cart)=  0.09434059 RMS(Int)=  0.00185358
 Iteration  2 RMS(Cart)=  0.00498870 RMS(Int)=  0.00012820
 Iteration  3 RMS(Cart)=  0.00000751 RMS(Int)=  0.00012813
 Iteration  4 RMS(Cart)=  0.00000000 RMS(Int)=  0.00012813
 Variable       Old X    -DE/DX   Delta X   Delta X   Delta X     New X
                                 (Linear)    (Quad)   (Total)
    R1        1.95143   0.66345   0.00000   0.05509   0.05520   2.00663
    R2        2.85586   0.07416   0.00000   0.05230   0.05264   2.90850
    R3        2.89358   0.74073   0.00000   0.04487   0.04489   2.93848
    R4        1.44853   2.33559   0.00000   0.08924   0.08931   1.53784
    R5        3.25891   0.64402   0.00000   0.04029   0.04017   3.29907
    R6        2.59514  -0.09457   0.00000   0.00527   0.00513   2.60027
    R7        2.72637  -0.01139   0.00000  -0.00288  -0.00288   2.72348
    R8        2.76042  -0.13062   0.00000   0.00212   0.00182   2.76224
    R9        2.17021  -0.01035   0.00000  -0.00242  -0.00242   2.16779
   R10        2.67195  -0.20207   0.00000   0.00867   0.00877   2.68072
   R11        2.32224   0.18895   0.00000   0.03386   0.03386   2.35610
   R12        1.67757   0.24305   0.00000   0.04652   0.04652   1.72409
   R13        2.40790   0.18811   0.00000   0.03677   0.03698   2.44488
   R14        2.27034  -0.03477   0.00000  -0.01106  -0.01139   2.25895
   R15        2.35940   0.10411   0.00000   0.01921   0.01921   2.37862
   R16        1.68237   0.23511   0.00000   0.04694   0.04707   1.72944
   R17        1.71552   0.21179   0.00000   0.04153   0.04153   1.75705
   R18        2.29313   0.34758   0.00000   0.06076   0.06076   2.35389
   R19        3.19320  -0.08222   0.00000  -0.02023  -0.02023   3.17297
   R20        2.02246   0.63218   0.00000   0.07856   0.07856   2.10102
   R21        1.63701   0.30323   0.00000   0.05640   0.05640   1.69341
   R22        2.71491   0.18520   0.00000   0.02508   0.02456   2.73947
   R23        2.77554   0.40041   0.00000   0.06501   0.06542   2.84096
   R24        3.24773   0.36016   0.00000   0.04601   0.04607   3.29380
   R25        1.64438   1.34171   0.00000   0.08273   0.08305   1.72743
   R26        2.82054   0.09284   0.00000   0.04941   0.04950   2.87004
   R27        2.36230  -0.04283   0.00000  -0.01039  -0.01039   2.35191
   R28        2.58106  -0.02188   0.00000  -0.00460  -0.00460   2.57646
   R29        2.84475   0.07118   0.00000   0.00991   0.00977   2.85453
   R30        2.17812   0.31888   0.00000   0.02940   0.02924   2.20736
   R31        1.81375   0.02973   0.00000   0.00615   0.00615   1.81990
   R32        2.33865  -0.02480   0.00000  -0.00599  -0.00599   2.33266
   R33        2.13942   0.22633   0.00000   0.05251   0.05251   2.19192
   R34        2.20229   0.15615   0.00000   0.03675   0.03675   2.23905
    A1        2.37211   0.00446   0.00000  -0.03214  -0.03170   2.34041
    A2        1.20166   0.21337   0.00000  -0.00293  -0.00299   1.19867
    A3        1.80333  -0.36743   0.00000  -0.01156  -0.01160   1.79174
    A4        2.74188  -0.62281   0.00000  -0.01971  -0.01971   2.72218
    A5        2.13628   0.24493   0.00000  -0.00293  -0.00294   2.13334
    A6        1.40502   0.37789   0.00000   0.02264   0.02265   1.42767
    A7        2.80880  -0.00416   0.00000  -0.01508  -0.01496   2.79384
    A8        2.21218   0.05160   0.00000  -0.00118  -0.00106   2.21111
    A9        1.86927  -0.24760   0.00000  -0.01287  -0.01272   1.85655
   A10        2.66351   0.72213   0.00000   0.03019   0.02999   2.69349
   A11        2.57821   0.00875   0.00000   0.00008  -0.00004   2.57817
   A12        1.95457   0.46577   0.00000   0.01724   0.01731   1.97187
   A13        1.45095  -0.38705   0.00000  -0.01806  -0.01801   1.43294
   A14        2.59318   0.36549   0.00000   0.01281   0.01276   2.60594
   A15        1.90358   0.34285   0.00000   0.00742   0.00737   1.91095
   A16        2.14055  -0.36441   0.00000  -0.01267  -0.01262   2.12793
   A17        2.23906   0.02156   0.00000   0.00525   0.00525   2.24431
   A18        2.30143   0.07740   0.00000   0.02184   0.02195   2.32338
   A19        2.44552  -0.26179   0.00000  -0.06153  -0.06126   2.38425
   A20        2.01395   0.13292   0.00000   0.03009   0.02982   2.04378
   A21        1.31786  -0.11178   0.00000  -0.02939  -0.02966   1.28820
   A22        1.82372   0.12887   0.00000   0.03144   0.03144   1.85516
   A23        2.31767   0.09857   0.00000   0.02347   0.02347   2.34115
   A24        2.33269  -0.23920   0.00000  -0.05696  -0.05696   2.27573
   A25        1.63282   0.14063   0.00000   0.03349   0.03349   1.66631
   A26        1.92568   0.07498   0.00000   0.01812   0.01812   1.94381
   A27        2.46042  -0.07932   0.00000  -0.01949  -0.01949   2.44093
   A28        1.89709   0.00434   0.00000   0.00136   0.00136   1.89845
   A29        2.27566  -0.25452   0.00000  -0.01811  -0.01795   2.25771
   A30        2.36871  -0.29506   0.00000  -0.00855  -0.00852   2.36019
   A31        2.05263   0.11747   0.00000  -0.01102  -0.01091   2.04172
   A32        1.86184   0.17758   0.00000   0.01957   0.01943   1.88127
   A33        1.78790  -0.12565   0.00000  -0.02057  -0.02018   1.76773
   A34        1.14063   0.13586   0.00000   0.02069   0.02062   1.16125
   A35        2.35039   0.23459   0.00000   0.02107   0.02106   2.37145
   A36        1.81969  -0.17538   0.00000  -0.00011  -0.00005   1.81964
   A37        1.55633   0.30108   0.00000   0.02571   0.02562   1.58195
   A38        1.76373  -0.00365   0.00000  -0.00091  -0.00091   1.76282
   A39        2.77583  -0.55783   0.00000  -0.03343  -0.03307   2.74276
   A40        1.30204   0.35016   0.00000   0.03645   0.03608   1.33812
   A41        2.53367   0.03492   0.00000   0.00475   0.00513   2.53880
   A42        2.20532   0.20767   0.00000  -0.00302  -0.00301   2.20231
   A43        1.28193   0.20405   0.00000   0.05085   0.05085   1.33278
   A44        1.40892   0.40166   0.00000   0.02735   0.02731   1.43623
   A45        3.20835   0.01046   0.00000   0.01108   0.01105   3.21941
   A46        3.03489   0.15297   0.00000   0.03762   0.03752   3.07241
   A47        3.14157   0.01710   0.00000   0.00205   0.00178   3.14336
   A48        3.39958  -0.18840   0.00000  -0.00269  -0.00253   3.39705
   A49        3.19327   0.25334   0.00000   0.00967   0.00971   3.20297
   A50        2.92854   0.01021   0.00000   0.00012   0.00044   2.92897
   A51        3.37602   0.12570   0.00000   0.02560   0.02556   3.40158
   A52        3.04464   0.07348   0.00000   0.01994   0.01994   3.06458
   A53        3.14161  -0.00000   0.00000  -0.00000  -0.00000   3.14161
   A54        3.14159   0.00000   0.00000   0.00000   0.00000   3.14159
   A55        3.14159   0.00000   0.00000   0.00000   0.00000   3.14159
   A56        3.14159  -0.00000   0.00000  -0.00000  -0.00000   3.14158
   A57        3.14159   0.00000   0.00000  -0.00000  -0.00000   3.14159
   A58        3.14159  -0.00000   0.00000  -0.00000  -0.00000   3.14159
   A59        3.14159   0.00000   0.00000   0.00000   0.00000   3.14159
   A60        3.14159  -0.00000   0.00000  -0.00000  -0.00000   3.14159
    D1       -3.14159  -0.00000   0.00000   0.00000   0.00000  -3.14159
    D2        0.00001  -0.00001   0.00000  -0.00000  -0.00000   0.00001
    D3        3.14159  -0.00001   0.00000  -0.00000  -0.00000   3.14159
    D4       -0.00001   0.00000   0.00000   0.00000   0.00000  -0.00001
    D5       -0.00000  -0.00000   0.00000  -0.00000  -0.00000  -0.00000
    D6       -0.00001   0.00000   0.00000   0.00000   0.00000  -0.00001
    D7       -0.00002   0.00000   0.00000   0.00000   0.00000  -0.00002
    D8        3.14158  -0.00000   0.00000  -0.00000  -0.00000   3.14158
    D9       -0.00002  -0.00001   0.00000  -0.00000  -0.00000  -0.00002
   D10        0.00002   0.00000   0.00000   0.00000   0.00000   0.00002
   D11       -3.14159  -0.00000   0.00000  -0.00000  -0.00000  -3.14159
   D12        0.00001  -0.00001   0.00000  -0.00000  -0.00000   0.00001
   D13        0.00001  -0.00000   0.00000  -0.00000  -0.00000   0.00001
   D14        3.14159  -0.00000   0.00000  -0.00000  -0.00000   3.14159
   D15       -3.14158  -0.00000   0.00000  -0.00000  -0.00000  -3.14158
   D16       -0.00000   0.00000   0.00000   0.00000   0.00000  -0.00000
   D17       -3.14158   0.00000   0.00000   0.00000   0.00000  -3.14158
   D18        0.00000   0.00001   0.00000   0.00000   0.00000   0.00000
   D19       -3.14159  -0.00000   0.00000   0.00000   0.00000  -3.14159
   D20       -0.00000   0.00000   0.00000   0.00000   0.00000  -0.00000
   D21       -3.14159   0.00000   0.00000   0.00000   0.00000  -3.14159
   D22       -3.14159   0.00000   0.00000   0.00000   0.00000  -3.14159
   D23        0.00001  -0.00000   0.00000   0.00000   0.00000   0.00001
   D24       -3.14159  -0.00000   0.00000  -0.00000  -0.00000  -3.14159
   D25       -0.00001   0.00000   0.00000   0.00000   0.00000  -0.00001
   D26       -3.14159   0.00000   0.00000   0.00000   0.00000  -3.14159
   D27       -0.00001   0.00000   0.00000   0.00000   0.00000  -0.00001
   D28       -3.14159   0.00000   0.00000   0.00000   0.00000  -3.14159
   D29       -0.00001   0.00000   0.00000   0.00000   0.00000  -0.00001
   D30        0.00001   0.00000   0.00000   0.00000   0.00000   0.00001
   D31        3.14159   0.00000   0.00000   0.00000   0.00000   3.14159
   D32        3.14158  -0.00000   0.00000  -0.00000  -0.00000   3.14158
   D33       -0.00001   0.00000   0.00000  -0.00000  -0.00000  -0.00001
   D34        0.00000   0.00000   0.00000   0.00000   0.00000   0.00000
   D35        3.14159   0.00000   0.00000   0.00000   0.00000  -3.14159
   D36        0.00000   0.00000   0.00000   0.00000   0.00000   0.00000
   D37        3.14159   0.00000   0.00000   0.00000   0.00000   3.14159
   D38        3.14159  -0.00000   0.00000  -0.00000  -0.00000   3.14159
   D39       -0.00000  -0.00000   0.00000  -0.00000  -0.00000  -0.00000
   D40       -3.14159   0.00000   0.00000   0.00000   0.00000  -3.14159
   D41       -0.00000  -0.00000   0.00000  -0.00000  -0.00000  -0.00001
   D42        0.00001   0.00000   0.00000   0.00000   0.00000   0.00001
   D43        3.14159   0.00000   0.00000   0.00000   0.00000   3.14159
   D44       -3.14159  -0.00000   0.00000  -0.00000  -0.00000  -3.14159
   D45        0.00000  -0.00000   0.00000   0.00000   0.00000   0.00000
   D46       -0.00001  -0.00000   0.00000  -0.00000  -0.00000  -0.00001
   D47        3.14159  -0.00000   0.00000  -0.00000  -0.00000   3.14159
   D48        3.14158   0.00000   0.00000  -0.00000  -0.00000   3.14158
   D49        0.00000   0.00000   0.00000   0.00000   0.00000   0.00000
   D50       -0.00001  -0.00000   0.00000  -0.00000  -0.00000  -0.00001
   D51        3.14157   0.00000   0.00000   0.00000   0.00000   3.14157
   D52        0.00000   0.00000   0.00000  -0.00000  -0.00000   0.00000
   D53       -0.00002   0.00000   0.00000   0.00000   0.00000  -0.00002
   D54       -3.14159  -0.00000   0.00000  -0.00000  -0.00000  -3.14159
         Item               Value     Threshold  Converged?
 Maximum Force            2.335595     0.000450     NO 
 RMS     Force            0.303956     0.000300     NO 
 Maximum Displacement     0.427148     0.001800     NO 
 RMS     Displacement     0.097559     0.001200     NO 
 Predicted change in Energy=-7.282843D-01
 GradGradGradGradGradGradGradGradGradGradGradGradGradGradGradGradGradGrad

                          Input orientation:                          
 ---------------------------------------------------------------------
 Center     Atomic      Atomic             Coordinates (Angstroms)
 Number     Number       Type             X           Y           Z
 ---------------------------------------------------------------------
      1          8           0        3.778883    0.375469    0.284567
      2          6           0        5.461737    1.060029    0.945327
      3          6           0        3.268616    1.045486    0.931294
      4          6           0        4.698611    1.263392    1.141628
      5          6           0        4.969824    2.265234    2.108641
      6          6           0        6.203027    2.397329    2.236136
      7          6           0        6.938662    3.163083    2.975270
      8          6           0        8.170069    3.350691    3.156347
      9          6           0        8.833512    4.109220    3.888508
     10          7           0        9.925592    3.959175    3.743684
     11          6           0       11.038822    4.627288    4.388567
     12          6           0       12.775357    4.519320    4.284349
     13          8           0       13.668666    3.778239    3.569039
     14          6           0       11.425611    4.031359    3.813349
     15          8           0       12.262592    5.274451    5.013229
     16          6           0        9.499391    2.612658    2.443980
     17          6           0        7.615403    1.610407    1.476575
     18          1           0        2.407526    1.590825    1.457675
     19          1           0        5.278208    0.078834   -0.001752
     20          1           0        4.301960    2.712450    2.540307
     21          1           0        7.370384    2.582481    2.414850
     22          1           0        6.498604    3.752398    3.544096
     23          1           0        8.594259    2.090761    1.940231
     24          1           0        8.709379    4.747761    4.504848
     25          1           0       10.762026    5.500341    5.231265
     26          1           0       13.074925    3.232674    3.042448
     27          1           0       11.221763    3.155405    2.967852
     28          1           0        6.848041    0.776540    0.671709
 ---------------------------------------------------------------------
                    Distance matrix (angstroms):
                    1          2          3          4          5
     1  O    0.000000
     2  C    1.933190   0.000000
     3  C    1.061862   2.193214   0.000000
     4  C    1.539110   0.813788   1.461715   0.000000
     5  C    2.883886   1.745795   2.401675   1.418576   0.000000
     6  C    3.711201   2.001017   3.484374   2.178767   1.246794
     7  C    4.999488   3.274876   4.704391   3.462499   2.330987
     8  C    6.031714   4.179809   5.855687   4.524039   3.538004
     9  C    7.244209   5.415602   7.007114   5.722018   4.636409
    10  N    7.911414   6.013473   7.791948   6.431117   5.486569
    11  C    9.360956   7.462246   9.228117   7.877606   6.900007
    12  C   10.682055   8.752417  10.662487   9.258055   8.410764
    13  O   10.962408   9.034723  11.071886   9.626975   8.949402
    14  C    9.180974   7.254113   9.151953   7.749340   6.906693
    15  O   10.878124   8.975567  10.744205   9.396366   8.406930
    16  C    6.510937   4.578130   6.600516   5.154040   4.555232
    17  C    4.202956   2.285480   4.417128   2.956397   2.797748
    18  H    2.175751   3.142045   1.147147   2.335844   2.728361
    19  H    1.554975   1.376003   2.417323   1.745402   3.054375
    20  H    3.289901   2.572846   2.536827   2.052657   0.912348
    21  H    4.723123   2.849613   4.624694   3.240287   2.440717
    22  H    5.424487   3.882982   4.958521   3.899612   2.570866
    23  H    5.373202   3.444552   5.520238   4.061820   3.632538
    24  H    7.825439   6.067680   7.488594   6.287952   5.088125
    25  H    9.974889   8.135030   9.720426   8.452329   7.332551
    26  H   10.108706   8.190174  10.266668   8.812141   8.215875
    27  H    8.385972   6.454388   8.476549   7.033230   6.373178
    28  H    3.119370   1.441205   3.598889   2.253419   2.794402
                    6          7          8          9         10
     6  C    0.000000
     7  C    1.293776   0.000000
     8  C    2.371696   1.258709   0.000000
     9  C    3.546879   2.306433   1.245625   0.000000
    10  N    4.309241   3.185275   1.948610   1.111812   0.000000
    11  C    5.743744   4.577403   3.373101   2.319881   1.449665
    12  C    7.203717   6.133521   4.883315   3.982840   2.954190
    13  O    7.708392   6.784094   5.530613   4.856987   3.751511
    14  C    5.695001   4.646396   3.390209   2.594357   1.503370
    15  O    7.260055   6.079093   4.888518   3.792275   2.967029
    16  C    3.309922   2.672559   1.679064   2.183976   1.919371
    17  C    1.786332   2.261607   2.481507   3.680391   3.999184
    18  H    3.957560   5.030535   6.260153   7.317415   8.207085
    19  H    3.352439   4.596995   5.389016   6.634630   7.119236
    20  H    1.950865   2.710066   3.968516   4.929865   5.884528
    21  H    1.195384   0.915180   1.333964   2.577468   3.192205
    22  H    1.906394   0.929788   1.762247   2.386993   3.439018
    23  H    2.428895   2.227595   1.801748   2.815528   2.918195
    24  H    4.117449   2.825996   2.015221   0.896113   1.637196
    25  H    6.275664   5.017011   3.955316   2.730821   2.299502
    26  H    6.969285   6.137026   4.907598   4.412906   3.307240
    27  H    5.128138   4.283115   3.063741   2.731504   1.711146
    28  H    2.343166   3.318161   3.814110   5.039508   5.388647
                   11         12         13         14         15
    11  C    0.000000
    12  C    1.743006   0.000000
    13  O    2.882462   1.363404   0.000000
    14  C    0.914118   1.510550   2.270474   0.000000
    15  O    1.518761   1.168082   2.510255   1.919772   0.000000
    16  C    3.195309   4.213581   4.472939   2.756484   4.617516
    17  C    5.413046   6.555189   6.761649   5.083228   6.894164
    18  H    9.607784  11.138137  11.664301   9.634899  11.105557
    19  H    8.552661   9.710603   9.840524   8.244272  10.046197
    20  H    7.243478   8.837698   9.483109   7.355716   8.720713
    21  H    4.640499   6.038220   6.513858   4.527683   6.158894
    22  H    4.700229   6.366614   7.170152   4.942238   6.139915
    23  H    4.290012   5.373487   5.590188   3.910377   5.747683
    24  H    2.335453   4.078355   5.139089   2.892977   3.627833
    25  H    1.244579   2.431574   3.765260   2.146797   1.533057
    26  H    2.811174   1.813151   0.963050   1.988070   2.951730
    27  H    2.053859   2.450935   2.595511   1.234388   3.123659
    28  H    6.797494   7.886231   7.995351   6.435673   8.270269
[...]
 00001062,0.00152956,-0.00720431,-0.00198605,-0.01918116,-0.14528915,-0
 .12299169,0.00002088,0.00000263,-0.00000825,-0.00007653,0.00007796,-0.
 00006011,0.00010601,0.00012934,-0.00014241,0.02385421,0.15786163,0.126
 25431,0.00002413,0.00003742,0.00003331,0.00006990,0.00003256,-0.000008
 92,-0.00003764,-0.00006607,-0.00005542,-0.00015055,0.00021257,0.000157
 24,0.00185028,-0.00022296,0.00014327,0.00934261,-0.01057893,-0.0063671
 2,-0.13092690,0.10778345,0.06371157,-0.00427264,0.02215024,0.01432527,
 0.00169910,0.00115547,0.00155578,0.00005355,-0.00054327,-0.00042987,-0
 .00006798,0.00001532,-0.00003321,-0.00008252,-0.00000773,-0.00000439,0
 .00005608,-0.00000271,0.00000174,0.00000852,0.00000562,0.00000964,0.00
 003193,-0.00000128,0.00000249,-0.00555119,0.00030580,-0.00090597,-0.00
 173282,-0.00250745,-0.00194853,-0.00001252,0.00000667,0.00001468,-0.00
 000413,-0.00000679,0.00002909,-0.00025632,0.00043716,0.00031917,0.0008
 4033,-0.00029550,-0.00035927,0.12913896,-0.00010641,-0.00001429,0.0000
 4715,0.00001794,0.00006474,-0.00002251,0.00018749,-0.00006174,-0.00018
 300,-0.00039480,0.00027651,0.00009931,0.00093155,-0.00008905,0.0012354
 3,0.01257363,-0.00765481,-0.00364243,0.10871419,-0.20426274,-0.1118059
 6,-0.00257098,0.00191321,-0.00131788,-0.00058276,-0.00114593,0.0025670
 9,0.00029911,0.00017639,-0.00014073,-0.00004165,0.00007514,-0.00012195
 ,0.00005414,0.00000898,0.00005736,-0.00003000,0.00000278,-0.00001008,0
 .00000573,-0.00004240,-0.00000247,-0.00001262,-0.00001789,-0.00001312,
 -0.00002783,0.00118187,-0.00268097,-0.00105253,-0.00204018,-0.00164601
 ,-0.00003634,0.00001646,0.00005005,0.00002858,-0.00004808,0.00006251,-
 0.00087187,0.00030334,-0.00007497,0.00091888,0.00037367,-0.00109412,-0
 .11836515,0.21025107,-0.00006337,-0.00000942,0.00000160,0.00002818,0.0
 0000043,0.00000777,0.00007236,-0.00005210,-0.00006593,-0.00027228,0.00
 007782,0.00007171,0.00101357,0.00104174,-0.00094179,0.00967037,-0.0066
 1320,-0.00361387,0.06365620,-0.11072241,-0.09753648,-0.00200725,0.0000
 1639,0.00370089,0.00037793,0.00286243,-0.00293067,0.00008926,-0.000273
 96,0.00026780,-0.00002313,-0.00006373,0.00018459,0.00008408,0.00009867
 ,0.00001033,-0.00004481,-0.00001115,0.00000128,-0.00004276,-0.00002874
 ,-0.00006413,-0.00001123,-0.00003963,-0.00002899,-0.00042847,-0.001993
 50,0.00371378,-0.00171623,-0.00158469,-0.00107907,-0.00000885,0.000002
 90,0.00001835,-0.00000960,-0.00000585,0.00001962,-0.00056894,-0.000115
 07,0.00031494,0.00053630,-0.00115935,0.00117822,-0.07039898,0.11922570
 ,0.09568617,-0.00004199,-0.00004635,-0.00001959,-0.00003402,-0.0000265
 1,-0.00001722,0.00001774,0.00001316,-0.00000366,0.00008458,0.00010455,
 0.00002739,-0.00038491,0.00072816,0.00049551,-0.00286445,-0.00076196,-
 0.00223591,-0.00028108,-0.00041275,-0.00045566,0.00117114,-0.00171816,
 -0.00120773,-0.00073351,0.00027381,0.00021330,-0.00007895,-0.00070143,
 -0.00048541,-0.00000628,-0.00002823,-0.00000554,-0.00009051,-0.0000727
 9,-0.00006253,0.00004924,0.00000997,0.00001357,0.00008389,-0.00000474,
 0.00000950,0.00001607,0.00005650,0.00004281,-0.30810412,0.10062020,0.0
 3436803,-0.01150040,0.01208295,0.00620921,0.00001340,-0.00000261,-0.00
 001109,0.00001550,-0.00002514,-0.00000335,-0.00034907,-0.00017318,0.00
 005306,0.00067460,-0.00052057,0.00035088,0.00019131,-0.00002715,-0.000
 15189,0.32221019,-0.00003569,-0.00002934,-0.00001835,0.00004623,-0.000
 03669,0.00001842,0.00002092,-0.00002994,-0.00000893,0.00002715,0.00020
 038,-0.00016705,-0.00000107,0.00097368,0.00045254,-0.00180195,0.001807
 17,-0.00619204,0.00062055,-0.00378599,-0.00300524,0.02023100,-0.002314
 81,0.00011212,0.00152383,0.00068304,0.00101648,-0.00040476,0.00011053,
 0.00023275,-0.00063622,0.00028778,0.00015481,-0.00005615,0.00000794,-0
 .00001757,0.00004220,-0.00000087,0.00001688,-0.00000752,-0.00007998,-0
 .00002583,0.00004006,0.00002000,0.00002868,0.10066671,-0.08976716,-0.0
 2406097,-0.01200415,0.00958253,0.00186703,0.00001882,0.00001017,-0.000
 00264,0.00002176,-0.00003837,0.00000348,-0.00034899,-0.00059424,0.0007
 1831,0.00037493,-0.00124488,0.00237536,0.00126567,0.00048020,-0.000427
 66,-0.10947104,0.08356429,-0.00002029,-0.00001096,-0.00000935,-0.00006
 587,0.00002067,0.00002351,0.00004725,0.00005034,0.00002698,0.00009008,
 -0.00021607,0.00029494,-0.00033677,0.00034520,0.00059715,-0.00245604,-
 0.00628276,0.00596215,0.00036613,-0.00293600,-0.00136901,0.01374367,-0
 .00295298,0.00135282,0.00103256,0.00087086,0.00012644,-0.00025580,0.00
 022411,-0.00021992,-0.00041686,0.00019709,0.00007602,-0.00004927,-0.00
 002136,0.00000934,0.00003583,0.00001372,-0.00000673,0.00000940,-0.0000
 1817,-0.00006045,0.00002985,0.00002906,0.00000636,0.03470741,-0.023355
 13,-0.04778636,-0.01086826,0.00436705,0.00614615,-0.00001342,-0.000018
 03,0.00000065,-0.00003111,0.00006100,-0.00001871,-0.00017345,0.0009441
 9,-0.00106926,0.00102993,0.00233374,-0.00297115,0.00083990,-0.00053168
 ,0.00077802,-0.03715507,0.02686663,0.03803360,-0.00000737,-0.00000120,
 0.00000156,0.00002002,-0.00000239,-0.00001120,0.00002299,0.00000067,-0
 .00000662,-0.00000539,0.00001409,0.00002169,-0.00012235,0.00013017,0.0
 0007514,0.00025915,-0.00003849,-0.00003707,0.00110491,-0.00028994,0.00
 009799,0.00885591,-0.01605390,-0.01118357,-0.08270194,0.05603463,0.036
 58408,-0.02369906,0.03044092,0.01677715,0.00352093,0.00544533,0.004927
 21,-0.00009298,0.00028906,0.00022100,0.00000742,-0.00006056,-0.0000435
 9,-0.00029098,-0.00071265,-0.00050690,0.00011090,-0.00022689,-0.000159
 53,-0.00310105,-0.00067554,-0.00123524,0.00043122,-0.00096683,-0.00056
 107,-0.00000338,0.00000202,0.00000410,-0.00001004,0.00000775,-0.000002
 06,-0.00003231,-0.00000517,-0.00000595,-0.00034223,-0.00015636,-0.0001
 0200,-0.00017592,0.00039348,0.00021874,0.00000806,-0.00017876,-0.00011
 118,0.09541488,-0.00014865,-0.00006740,-0.00000479,-0.00008188,-0.0000
 2471,-0.00002612,0.00024233,0.00001794,-0.00009769,-0.00004209,0.00003
 016,-0.00002128,0.00002066,0.00001730,0.00009244,-0.00057233,0.0000597
 0,-0.00024543,0.00060531,-0.00003217,0.00143975,0.00851653,-0.01067736
 ,-0.01188921,0.05613171,-0.20117147,-0.09987700,0.01307894,0.00078260,
 -0.01574488,-0.00519492,0.00033659,0.00527115,0.00010811,-0.00018647,0
 .00005706,0.00001025,0.00003820,0.00002033,-0.00009473,0.00026679,0.00
 034586,0.00003922,0.00015278,0.00003515,-0.00214122,0.00157215,-0.0019
 1455,0.00044103,-0.00059650,-0.00033323,-0.00001065,0.00001438,0.00003
 098,0.00001573,-0.00001070,0.00000531,-0.00003454,0.00000656,-0.000031
 75,-0.00033956,-0.00023333,0.00027960,-0.00080019,0.00022386,-0.000182
 61,0.00006299,-0.00003604,0.00002887,-0.07127174,0.20882991,-0.0000930
 5,-0.00003955,-0.00000708,-0.00004332,-0.00002899,-0.00004689,0.000140
 70,0.00000810,-0.00005431,-0.00000622,0.00004137,0.00000338,0.00000854
 ,0.00002072,0.00004306,-0.00042031,-0.00004874,0.00015642,0.00071664,0
 .00126819,-0.00092000,0.00602230,-0.01420855,-0.00202765,0.03674013,-0
 .09989445,-0.11884723,0.00451286,-0.01408710,0.01545765,-0.00255903,0.
 00629366,-0.00367893,0.00006986,0.00005624,-0.00020153,0.00001962,0.00
 001449,0.00002331,-0.00006535,0.00029810,-0.00003323,0.00003202,0.0000
 2001,0.00012456,-0.00224436,-0.00179756,0.00239866,0.00044131,-0.00050
 653,-0.00025278,-0.00000352,0.00000712,0.00001911,0.00000886,-0.000014
 74,0.00000872,-0.00002651,-0.00002649,0.00001278,-0.00019088,0.0002708
 2,-0.00055115,-0.00062613,-0.00005357,0.00023330,0.00005397,0.00000403
 ,-0.00007126,-0.04352124,0.12253858,0.10757349,0.00001861,0.00000981,0
 .00000270,0.00000988,0.00000144,0.00000292,-0.00002686,-0.00000404,0.0
 0000764,0.00000551,-0.00000086,0.00000594,-0.00002543,0.00000923,-0.00
 000585,0.00001865,-0.00000013,0.00000141,-0.00013660,-0.00000610,-0.00
 001142,-0.00017633,0.00037760,0.00030796,0.00550479,-0.00607462,-0.003
 61219,0.00362793,-0.01547508,-0.01164867,-0.10266055,0.07914402,0.0505
 4686,-0.00196088,0.00432959,0.00337464,0.00133198,-0.00119404,-0.00072
 659,-0.00881586,0.02510714,0.01590366,0.00206584,-0.00240937,-0.001477
 70,-0.00011191,-0.00000056,-0.00001749,0.00000180,0.00003970,0.0000338
 7,0.00000019,-0.00000128,-0.00000251,-0.00000270,0.00000273,-0.0000013
 3,-0.00000118,-0.00000146,-0.00000038,0.00000271,0.00000734,0.00000159
 ,-0.00002978,-0.00000153,-0.00000609,-0.00000404,0.00010872,0.00006400
 ,0.00043185,0.00169978,0.00122582,0.10573770,-0.00006912,-0.00003545,-
 0.00000573,-0.00003416,-0.00001192,-0.00001339,0.00010595,0.00001303,-
 0.00003823,-0.00001250,0.00000984,-0.00000443,0.00005144,0.00000130,0.
 00002541,-0.00017669,0.00002087,-0.00003252,0.00005199,-0.00010432,-0.
 00001012,-0.00082638,0.00026356,0.00052338,0.00440092,0.00074862,0.001
 91338,0.00160454,-0.01516687,-0.01855855,0.08258639,-0.20075219,-0.097
 97103,-0.00051173,-0.00222707,0.00217939,0.00052359,-0.00025504,-0.000
 25601,0.00189136,0.00093509,-0.00561823,-0.00157044,-0.00024818,-0.000
 21430,0.00025629,-0.00001336,-0.00004321,-0.00000716,0.00006245,0.0000
 6694,-0.00000273,0.00000533,0.00001137,0.00000792,-0.00000774,0.000003
 10,-0.00000562,0.00000196,-0.00000321,0.00000986,-0.00000463,-0.000000
 79,-0.00002165,0.00000859,-0.00002043,-0.00000344,0.00016899,0.0000655
 5,-0.00196940,0.00070029,0.00021464,-0.08663335,0.21258763,-0.00004288
 ,-0.00002125,-0.00000715,-0.00002870,-0.00000689,-0.00000891,0.0000629
 0,0.00000827,-0.00001789,0.00000085,0.00000808,-0.00001240,0.00003224,
 -0.00000183,0.00002981,-0.00012259,-0.00001253,0.00000351,0.00003153,-
 0.00002613,-0.00006943,-0.00054516,0.00064235,-0.00020217,0.00377197,0
 .00090965,-0.00037548,0.00035268,-0.02024698,-0.00279104,0.05298407,-0
 .09829829,-0.11402606,-0.00002100,0.00264965,-0.00353084,0.00047974,-0
 .00042457,-0.00006777,-0.00043258,-0.00334797,0.00677939,-0.00090055,-
 0.00029034,-0.00045569,0.00016193,-0.00008715,0.00007214,-0.00000289,0
 .00007811,0.00000266,-0.00000069,0.00000202,0.00000606,0.00000609,-0.0
 0000645,0.00000289,-0.00000410,0.00000157,-0.00000139,0.00000912,-0.00
 000192,0.00000058,-0.00002121,-0.00001316,0.00001351,-0.00001011,0.000
 09009,0.00011804,-0.00135901,0.00055634,0.00040542,-0.05329411,0.12178
 849,0.10796818,0.00017453,0.00010245,0.00003036,0.00009026,0.00003359,
 0.00003606,-0.00025392,-0.00005396,0.00006425,0.00001631,-0.00003105,0
 .00002923,-0.00011639,0.00004447,-0.00005602,0.00027433,-0.00009973,-0
 .00002874,-0.00033655,0.00010934,0.00002685,0.00056489,-0.00013308,-0.
 00003467,-0.00076875,0.00012089,0.00000785,0.00125524,0.00002113,0.000
 12998,-0.00071138,-0.00082933,-0.00060200,-0.00567246,0.04054834,0.028
 54127,-0.05324739,0.03217258,0.01813040,0.00029041,0.00076387,0.000744
 49,-0.01062442,0.00256064,0.00008229,0.00008711,0.00004589,0.00004131,
 -0.00006355,0.00011466,0.00007656,0.00000136,-0.00000826,-0.00002047,-
 0.00002089,0.00002140,-0.00001016,-0.00000665,-0.00000563,0.00000415,0
 .00001412,0.00001835,0.00000732,-0.00001240,0.00000870,0.00001198,-0.0
 0002076,-0.00001897,-0.00001660,0.00002617,-0.00000501,-0.00000989,0.0
 0066459,0.00015224,0.00015481,0.06951580,-0.00003415,-0.00002245,-0.00
 000467,-0.00001905,-0.00000852,-0.00000611,0.00004964,0.00001224,-0.00
 001408,-0.00000271,0.00000398,-0.00000795,0.00003188,-0.00001882,0.000
 00784,-0.00006651,0.00003494,0.00000620,0.00010481,-0.00003860,-0.0000
 0538,-0.00018438,0.00000600,0.00003464,0.00021772,-0.00004446,-0.00005
 909,-0.00065948,0.00004411,-0.00010422,0.00071823,-0.00106312,-0.00031
 706,0.00090157,-0.01313888,-0.00480194,0.07581808,-0.34008849,-0.22590
 967,-0.00488757,0.00093915,0.00144552,0.00261521,0.00518007,-0.0009182
 6,-0.00003545,0.00000917,0.00000991,0.00001067,-0.00004437,-0.00002170
 ,-0.00000031,0.00000205,0.00000390,0.00000418,-0.00000408,0.00000129,0
 .00000333,0.00000224,-0.00000261,-0.00000557,-0.00000340,-0.00000549,0
 .00000425,-0.00000177,-0.00000661,-0.00000188,0.00000515,-0.00001027,0
 .00000160,0.00000451,-0.00003304,0.00016295,0.00024876,0.00007218,-0.0
 7361958,0.34772821,-0.00000214,-0.00000080,-0.00000436,-0.00001047,-0.
 00000010,0.00000020,-0.00000054,-0.00000049,0.00000488,0.00000738,-0.0
 0000008,-0.00000993,0.00001166,-0.00000578,-0.00000082,-0.00002208,0.0
 0000513,0.00001259,0.00004268,-0.00000786,-0.00001096,-0.00006889,0.00
 004051,-0.00004593,0.00006987,-0.00006702,0.00002809,-0.00034965,-0.00
 003842,0.00003967,0.00048685,-0.00046806,-0.00079504,0.00069007,-0.000
 90293,-0.00674990,0.04878958,-0.23019799,-0.16484468,-0.00322930,0.002
 00308,-0.00071041,0.00012139,-0.00092739,0.00621567,-0.00001407,0.0000
 1778,-0.00000225,0.00000301,-0.00001367,-0.00001982,0.00000145,-0.0000
 0112,-0.00000105,0.00000150,-0.00000247,0.00000128,0.00000174,-0.00000
 144,0.00000131,-0.00000302,-0.00000481,0.00000412,0.00000140,-0.000004
 21,0.00000209,-0.00000545,-0.00001222,0.00001160,-0.00000129,-0.000034
 89,0.00002867,0.00016410,0.00007104,0.00023459,-0.04566860,0.23138925,
 0.16614280,-0.00000188,-0.00000378,-0.00000174,-0.00000508,-0.00000330
 ,-0.00000207,0.00000122,0.00000427,0.00000197,0.00000518,0.00000388,-0
 .00000362,-0.00000190,-0.00002127,-0.00000987,0.00000342,0.00003285,0.
 00003388,0.00003187,-0.00002016,-0.00001788,0.00006268,-0.00005871,-0.
 00006104,-0.00014915,-0.00023290,-0.00014599,0.00322140,-0.00034407,0.
 00077400,-0.00985628,0.02814404,0.01819520,0.00889159,-0.01153834,-0.0
 0713175,0.00038481,0.00048263,0.00048753,-0.10048265,0.08494265,0.0531
 2461,-0.00112005,-0.00496525,-0.00388994,-0.00010233,0.00004056,0.0000
 1445,0.00001670,-0.00005986,-0.00003525,0.00000061,-0.00000048,-0.0000
 0075,0.00000173,-0.00000166,0.00000036,0.00000476,-0.00000081,0.000000
 91,-0.00000712,-0.00000401,-0.00000376,0.00000969,-0.00000037,-0.00000
 098,-0.00002076,-0.00003090,-0.00002343,0.00036619,-0.00023842,-0.0001
 7415,-0.00547036,0.00020246,-0.00126172,-0.00112497,-0.00112516,-0.001
 01672,0.10534257,-0.00000434,-0.00000203,0.00000197,0.00000008,-0.0000
 0359,-0.00000210,0.00001002,0.00000146,-0.00000467,0.00000024,0.000011
 85,-0.00001247,0.00001057,-0.00000931,0.00000465,-0.00001404,-0.000034
 32,0.00005479,0.00005608,0.00002421,-0.00001901,-0.00000586,0.00006138
 ,-0.00016192,-0.00016188,0.00017598,0.00034072,-0.00116838,-0.00181845
 ,0.00361963,0.00017584,-0.00014887,-0.00468069,0.01539113,-0.00942694,
 -0.00428598,-0.00159068,0.00132623,0.00156690,0.08719559,-0.21130909,-
 0.11707749,-0.00332982,-0.00158155,-0.00352145,0.00000133,-0.00000653,
 0.00001028,-0.00000189,-0.00001134,0.00000647,-0.00000112,0.00000134,0
 .00000154,0.00000204,-0.00000261,0.00000121,-0.00000012,-0.00000396,0.
 00000516,0.00000136,0.00000489,-0.00000990,0.00000087,0.00000422,-0.00
 000852,-0.00000327,0.00000147,-0.00001064,-0.00013411,-0.00000716,-0.0
 0031105,0.00080332,0.00304887,-0.00402110,-0.00202456,0.00025154,-0.00
 083560,-0.09520648,0.21944919,-0.00000276,0.00000104,-0.00000196,-0.00
 000815,0.00000588,0.00000273,0.00000100,-0.00000443,-0.00000125,-0.000
 00331,-0.00001984,0.00001030,0.00001835,0.00000086,-0.00000578,-0.0000
 0470,0.00005372,-0.00007920,0.00005220,-0.00002615,0.00004900,-0.00004
 154,-0.00017693,0.00016284,-0.00007248,0.00034304,-0.00009664,0.000178
 34,0.00370277,-0.00450422,-0.00146994,-0.00193922,0.00502035,0.0118177
 9,-0.00692514,-0.00489889,-0.00097266,0.00176955,0.00002903,0.05469894
 ,-0.11729465,-0.10992955,-0.00274108,-0.00368179,0.00010131,-0.0000080
 4,0.00002211,-0.00000815,-0.00000180,-0.00000489,-0.00002267,0.0000005
 9,-0.00000055,0.00000051,-0.00000018,0.00000109,-0.00000053,0.00000078
 ,0.00000695,-0.00000769,0.00000006,-0.00000754,0.00001609,-0.00000104,
 -0.00000707,0.00000906,-0.00000430,-0.00001426,0.00000644,-0.00009973,
 -0.00032562,0.00017859,-0.00083699,-0.00408226,0.00592184,-0.00164983,
 -0.00074522,0.00046510,-0.05885101,0.12935143,0.10758105,0.00014671,0.
 00082474,0.00007082,-0.28791190,-0.06574486,0.10340760,0.00155568,-0.0
 0301348,0.00342637,-0.00350552,-0.00454020,0.00257410,-0.00176923,0.00
 145161,-0.00254262,0.00071656,0.00006246,-0.00016762,-0.00004111,-0.00
 004996,0.00040100,-0.00015598,0.00003556,-0.00006160,-0.00003288,0.000
 04940,0.00001222,0.00001908,-0.00001105,-0.00001100,-0.00002119,0.0000
 0613,0.00002223,0.00003529,0.00002587,0.00001755,-0.00002107,-0.000001
 41,-0.00000309,-0.00001136,-0.00002003,-0.00001649,-0.00000648,-0.0000
 1270,-0.00001014,-0.00017951,-0.00035153,-0.00036342,-0.00085426,0.000
 30590,-0.00045029,-0.00051195,0.00039018,-0.00046128,-0.00836023,-0.00
 150283,0.00776268,0.00015668,0.00008840,0.00018750,-0.00086971,-0.0002
 2915,-0.00161136,-0.00000307,-0.00001141,-0.00000410,-0.00002088,-0.00
 001239,-0.00000258,0.00000438,0.00000339,-0.00000863,0.00000046,-0.000
 00057,-0.00000064,0.00000537,-0.00000233,-0.00000044,-0.00000188,-0.00
 000191,0.00000150,0.30163800,0.00051588,0.00016250,0.00158520,-0.06889
 321,-0.06191442,0.02132645,-0.00326063,0.00532127,-0.00705628,0.009630
 97,0.00704204,-0.01105343,0.00419409,-0.00266456,0.00414103,-0.0004825
 9,0.00031576,0.00019581,0.00041599,0.00021153,-0.00040962,-0.00012044,
 0.00033673,0.00052351,-0.00013478,-0.00011317,-0.00009583,0.00011011,0
 .00000696,0.00003451,-0.00003550,-0.00003808,-0.00005224,-0.00006306,-
 0.00004484,-0.00003384,0.00003936,0.00000043,0.00000526,0.00005524,0.0
 0003036,0.00003000,0.00001098,0.00002147,0.00001771,-0.00022214,-0.000
 53851,-0.00003129,-0.00036167,0.00072391,-0.00002678,0.00106866,-0.001
 04038,0.00087721,-0.01489291,0.00157561,0.00641117,-0.00023316,0.00007
 278,-0.00028788,0.00036460,0.00010181,0.00024870,0.00000664,0.00001784
 ,-0.00000747,0.00004892,0.00005497,-0.00005403,-0.00001577,-0.00001043
 ,-0.00000574,-0.00000094,0.00000158,-0.00000024,-0.00000938,0.00000485
 ,0.00000056,0.00000260,0.00000312,-0.00000289,0.07226217,0.05035890,-0
 .00085145,0.00152878,0.00144641,0.09893061,0.01703154,-0.09236081,0.00
 034972,-0.00857251,-0.00163978,0.02787096,0.00657923,-0.00306302,-0.00
 211844,0.00304791,-0.00073814,0.00013833,-0.00058008,-0.00100889,-0.00
 020137,0.00012406,0.00054641,0.00002171,0.00026438,-0.00001714,-0.0003
 4782,0.00001867,-0.00008131,0.00021849,0.00004596,0.00003213,-0.000126
 88,-0.00008323,-0.00004694,-0.00012200,-0.00009126,-0.00007802,0.00007
 820,0.00000743,0.00001066,0.00011390,0.00004624,0.00004015,0.00002645,
 0.00005620,0.00004026,-0.00037970,-0.00030744,-0.00011610,0.00035786,-
 0.00054206,-0.00012731,0.00137874,0.00086656,-0.00111744,-0.01231772,-
 0.00388666,0.00841801,0.00016766,0.00005323,0.00040160,-0.00102519,0.0
 0061834,-0.00065066,0.00001553,0.00002125,0.00004788,-0.00000271,-0.00
 000487,0.00001200,0.00001858,0.00002763,0.00002492,-0.00000175,0.00000
 975,0.00000759,-0.00002218,0.00000265,0.00000247,-0.00000126,-0.000002
 14,0.00000231,-0.11216828,-0.01627956,0.09001275\\-0.00006595,-0.00004
 018,-0.00001143,0.00005747,-0.00003160,-0.00005972,0.00001359,0.000045
 04,0.00000736,-0.00000736,-0.00001443,0.00003589,0.00000354,0.00003308
 ,0.00002825,-0.00002492,0.00002783,-0.00006531,-0.00002378,-0.00008035
 ,0.00001686,-0.00002941,-0.00004092,-0.00018500,0.00008921,0.00002996,
 0.00006417,0.,0.00000589,-0.00000466,-0.00011164,0.00002585,0.00002411
 ,0.00000241,-0.00000987,-0.00000448,0.00000832,0.00000420,0.00000273,0
 .00009585,-0.00003434,-0.00002373,0.00000897,0.00001222,0.00001104,-0.
 00008391,0.00001538,0.00012630,-0.00003687,0.00001185,-0.00004088,0.00
 000459,-0.00000635,0.00000963,-0.00000033,0.00000897,0.00003149,-0.000
 00406,-0.00000433,0.00001262,-0.00001269,-0.00000729,0.00001546,-0.000
 00325,0.00001055,0.00001271,0.00009982,-0.00001114,-0.00002244,-0.0000
 0716,0.00001488,0.00001555,0.00000556,-0.00001049,-0.00001388,-0.00000
 528,0.00000312,0.00000171,-0.00000688,0.00001340,0.00000904,0.00003418
 ,0.00002907,0.00000661\\\@


 Sacred cows make the best hamburger.
                               -- Mark Twain
 Job cpu time:       0 days  7 hours 40 minutes 52.0 seconds.
 Elapsed time:       0 days  1 hours 55 minutes 14.5 seconds.
 File lengths (MBytes):  RWF=    580 Int=      0 D2E=      0 Chk=     25 Scr=      1
 Normal termination of Gaussian 16 at Fri May 19 22:34:23 2023.
### All Done ###
