### Starting Gaussian ###
 Entering Gaussian System, Link 0=g16
 Initial command:
 /cluster/software/gaussian/gaussian-16-A.03/avx2/g16/l1.exe "/local/scratch/linjian/Gau-18432.inp" -scrdir="/local/scratch/linjian/"
 Entering Link 1 = /cluster/software/gaussian/gaussian-16-A.03/avx2/g16/l1.exe PID=     18433.
  
 Copyright (c) 1988,1990,1992,1993,1995,1998,2003,2009,2016,
            Gaussian, Inc.  All Rights Reserved.
  
 This is part of the Gaussian(R) 16 program.  It is based on
 the Gaussian(R) 09 system (copyright 2009, Gaussian, Inc.),
 the Gaussian(R) 03 system (copyright 2003, Gaussian, Inc.),
 the Gaussian(R) 98 system (copyright 1998, Gaussian, Inc.),
 the Gaussian(R) 94 system (copyright 1995, Gaussian, Inc.),
 the Gaussian 92(TM) system (copyright 1992, Gaussian, Inc.),
 the Gaussian 90(TM) system (copyright 1990, Gaussian, Inc.),
 the Gaussian 88(TM) system (copyright 1988, Gaussian, Inc.),
 the Gaussian 86(TM) system (copyright 1986, Carnegie Mellon
 University), and the Gaussian 82(TM) system (copyright 1983,
 Carnegie Mellon University). Gaussian is a federally registered
 trademark of Gaussian, Inc.
  
 This software contains proprietary and confidential information,
 including trade secrets, belonging to Gaussian, Inc.
  
 This software is provided under written license and may be
 used, copied, transmitted, or stored only in accord with that
 written license.
  
 The following legend is applicable only to US Government
 contracts under FAR:
  
                    RESTRICTED RIGHTS LEGEND
  
 Use, reproduction and disclosure by the US Government is
 subject to restrictions as set forth in subparagraphs (a)
 and (c) of the Commercial Computer Software - Restricted
 Rights clause in FAR 52.227-19.
  
 Gaussian, Inc.
 340 Quinnipiac St., Bldg. 40, Wallingford CT 06492
  
  
 ---------------------------------------------------------------
 Warning -- This program may not be used in any manner that
 competes with the business of Gaussian, Inc. or will provide
 assistance to any competitor of Gaussian, Inc.  The licensee
 of this program is prohibited from giving any competitor of
 Gaussian, Inc. access to this program.  By using this program,
 the user acknowledges that Gaussian, Inc. is engaged in the
 business of creating and licensing software in the field of
 computational chemistry and represents and warrants to the
 licensee that it is not a competitor of Gaussian, Inc. and that
 it will not use this program in any manner prohibited above.
 ---------------------------------------------------------------
  

 Cite this work as:
 Gaussian 16, Revision A.03,
 M. J. Frisch, G. W. Trucks, H. B. Schlegel, G. E. Scuseria, 
 M. A. Robb, J. R. Cheeseman, G. Scalmani, V. Barone, 
 G. A. Petersson, H. Nakatsuji, X. Li, M. Caricato, A. V. Marenich, 
 J. Bloino, B. G. Janesko, R. Gomperts, B. Mennucci, H. P. Hratchian, 
 J. V. Ortiz, A. F. Izmaylov, J. L. Sonnenberg, D. Williams-Young, 
 F. Ding, F. Lipparini, F. Egidi, J. Goings, B. Peng, A. Petrone, 
 T. Henderson, D. Ranasinghe, V. G. Zakrzewski, J. Gao, N. Rega, 
 G. Zheng, W. Liang, M. Hada, M. Ehara, K. Toyota, R. Fukuda, 
 J. Hasegawa, M. Ishida, T. Nakajima, Y. Honda, O. Kitao, H. Nakai, 
 T. Vreven, K. Throssell, J. A. Montgomery, Jr., J. E. Peralta, 
 F. Ogliaro, M. J. Bearpark, J. J. Heyd, E. N. Brothers, K. N. Kudin, 
 V. N. Staroverov, T. A. Keith, R. Kobayashi, J. Normand, 
 K. Raghavachari, A. P. Rendell, J. C. Burant, S. S. Iyengar, 
 J. Tomasi, M. Cossi, J. M. Millam, M. Klene, C. Adamo, R. Cammi, 
 J. W. Ochterski, R. L. Martin, K. Morokuma, O. Farkas, 
 J. B. Foresman, and D. J. Fox, Gaussian, Inc., Wallingford CT, 2016.
 
 ******************************************
 Gaussian 16:  ES64L-G16RevA.03 25-Dec-2016
                20-May-2023 
 ******************************************
 %chk=Odc1cncccccc2cqdOrsnc-2s1.chk
 %NProcShared=20
 Will use up to   20 processors via shared memory.
 -----------------------------
 # opt freq b3lyp/6-31g(2df,p)
 -----------------------------
 1/18=20,19=15,26=3,38=1/1,3;
 2/9=110,12=2,17=6,18=5,40=1/2;
 3/5=1,6=6,7=104,11=2,25=1,30=1,71=1,74=-5/1,2,3;
 4//1;
 5/5=2,38=5/2;
 6/7=2,8=2,9=2,10=2,28=1/1;
 7//1,2,3,16;
 1/18=20,19=15,26=3/3(2);
 2/9=110/2;
 99//99;
 2/9=110/2;
 3/5=1,6=6,7=104,11=2,25=1,30=1,71=1,74=-5/1,2,3;
 4/5=5,16=3,69=1/1;
 5/5=2,38=5/2;
 7//1,2,3,16;
 1/18=20,19=15,26=3/3(-5);
 2/9=110/2;
 6/7=2,8=2,9=2,10=2,19=2,28=1/1;
 99/9=1/99;
 -------------------
 Title Card Required
 -------------------
 Symbolic Z-matrix:
 Charge =  0 Multiplicity = 1
 O                     3.69933   0.19858  -0.00901 
 C                     5.01547  -0.32497   0.04784 
 C                     3.74998  -1.35006  -0.52758 
 N                     4.83334  -1.78696  -0.70396 
 C                     4.9059   -2.89862  -1.17816 
 C                     6.13031  -3.06023  -1.25631 
 C                     6.85319  -4.05696  -1.60037 
 C                     7.9912   -3.69095  -1.05938 
 C                     8.97059  -4.50977  -1.61106 
 C                     9.89631  -3.52343  -1.84019 
 C                     11.52652  -2.8279   -0.8602 
 O                     11.8615  -1.66074  -0.60827 
 S                     12.33801  -3.89456  -1.76887 
 N                     10.48979  -3.14178  -1.51362 
 C                     9.33326  -1.73471  -1.26617 
 S                     7.41095  -0.68848  -0.60576 
 H                     2.53135  -1.76011  -0.67773 
 H                     4.16555  -3.5121   -1.43603 
 H                     6.78718  -2.31593  -1.11789 
 H                     6.47373  -4.85911  -2.09778 
 H                     8.18329  -2.8134   -0.29526 
 H                     8.78564  -5.38551  -2.24083 
 
 Add virtual bond connecting atoms H19        and S16        Dist= 3.43D+00.
 Add virtual bond connecting atoms C15        and C10        Dist= 3.71D+00.
 Add virtual bond connecting atoms C15        and N14        Dist= 3.47D+00.
 Add virtual bond connecting atoms C15        and H21        Dist= 3.50D+00.

 GradGradGradGradGradGradGradGradGradGradGradGradGradGradGradGradGradGrad
 Berny optimization.
 Initialization pass.
                           ----------------------------
                           !    Initial Parameters    !
                           ! (Angstroms and Degrees)  !
 --------------------------                            --------------------------
 ! Name  Definition              Value          Derivative Info.                !
 --------------------------------------------------------------------------------
 ! R1    R(1,2)                  1.4176         estimate D2E/DX2                !
 ! R2    R(1,3)                  1.6339         estimate D2E/DX2                !
 ! R3    R(2,3)                  1.7272         estimate D2E/DX2                !
 ! R4    R(2,4)                  1.654          estimate D2E/DX2                !
 ! R5    R(3,4)                  1.1814         estimate D2E/DX2                !
 ! R6    R(3,17)                 1.2945         estimate D2E/DX2                !
 ! R7    R(4,5)                  1.2108         estimate D2E/DX2                !
 ! R8    R(5,6)                  1.2375         estimate D2E/DX2                !
 ! R9    R(5,18)                 0.9955         estimate D2E/DX2                !
 ! R10   R(6,7)                  1.2784         estimate D2E/DX2                !
 ! R11   R(6,19)                 1.0023         estimate D2E/DX2                !
 ! R12   R(7,8)                  1.3121         estimate D2E/DX2                !
 ! R13   R(7,20)                 1.0173         estimate D2E/DX2                !
 ! R14   R(8,9)                  1.3907         estimate D2E/DX2                !
 ! R15   R(8,21)                 1.1794         estimate D2E/DX2                !
 ! R16   R(9,10)                 1.372          estimate D2E/DX2                !
 ! R17   R(9,22)                 1.0944         estimate D2E/DX2                !
 ! R18   R(10,14)                0.7775         estimate D2E/DX2                !
 ! R19   R(10,15)                1.9611         estimate D2E/DX2                !
 ! R20   R(11,12)                1.2401         estimate D2E/DX2                !
 ! R21   R(11,13)                1.6192         estimate D2E/DX2                !
 ! R22   R(11,14)                1.265          estimate D2E/DX2                !
 ! R23   R(13,14)                2.0119         estimate D2E/DX2                !
 ! R24   R(14,15)                1.8381         estimate D2E/DX2                !
 ! R25   R(15,21)                1.8517         estimate D2E/DX2                !
 ! R26   R(16,19)                1.8166         estimate D2E/DX2                !
 ! A1    A(1,2,4)              101.8871         estimate D2E/DX2                !
 ! A2    A(1,3,4)              115.2346         estimate D2E/DX2                !
 ! A3    A(1,3,17)             107.93           estimate D2E/DX2                !
 ! A4    A(2,3,17)             156.3986         estimate D2E/DX2                !
 ! A5    A(4,3,17)             136.7872         estimate D2E/DX2                !
 ! A6    A(3,4,5)              116.9354         estimate D2E/DX2                !
 ! A7    A(4,5,6)              101.7672         estimate D2E/DX2                !
 ! A8    A(4,5,18)             128.5147         estimate D2E/DX2                !
 ! A9    A(6,5,18)             129.7179         estimate D2E/DX2                !
 ! A10   A(5,6,7)              132.7088         estimate D2E/DX2                !
 ! A11   A(5,6,19)             122.8695         estimate D2E/DX2                !
 ! A12   A(7,6,19)             104.2147         estimate D2E/DX2                !
 ! A13   A(6,7,8)               99.3211         estimate D2E/DX2                !
 ! A14   A(6,7,20)             122.3742         estimate D2E/DX2                !
 ! A15   A(8,7,20)             138.1648         estimate D2E/DX2                !
 ! A16   A(7,8,9)              106.4392         estimate D2E/DX2                !
 ! A17   A(7,8,21)             128.0214         estimate D2E/DX2                !
 ! A18   A(9,8,21)             125.4809         estimate D2E/DX2                !
 ! A19   A(8,9,10)              96.7848         estimate D2E/DX2                !
 ! A20   A(8,9,22)             125.4789         estimate D2E/DX2                !
 ! A21   A(10,9,22)            126.3842         estimate D2E/DX2                !
 ! A22   A(9,10,14)            142.9179         estimate D2E/DX2                !
 ! A23   A(9,10,15)            114.4005         estimate D2E/DX2                !
 ! A24   A(12,11,13)           126.77           estimate D2E/DX2                !
 ! A25   A(12,11,14)           124.0433         estimate D2E/DX2                !
 ! A26   A(10,14,11)           164.6445         estimate D2E/DX2                !
 ! A27   A(10,14,13)           117.6622         estimate D2E/DX2                !
 ! A28   A(11,14,15)           104.8432         estimate D2E/DX2                !
 ! A29   A(13,14,15)           151.8248         estimate D2E/DX2                !
 ! A30   A(10,15,21)            78.489          estimate D2E/DX2                !
 ! A31   A(14,15,21)            90.8827         estimate D2E/DX2                !
 ! A32   A(6,19,16)            158.3169         estimate D2E/DX2                !
 ! A33   A(8,21,15)            101.2387         estimate D2E/DX2                !
 ! A34   L(2,4,5,11,-1)        170.0682         estimate D2E/DX2                !
 ! A35   L(2,4,5,11,-2)        176.3022         estimate D2E/DX2                !
 ! D1    D(1,2,3,4)            168.9966         estimate D2E/DX2                !
 ! D2    D(1,2,5,6)            168.2279         estimate D2E/DX2                !
 ! D3    D(1,2,5,18)           -14.2106         estimate D2E/DX2                !
 ! D4    D(1,3,4,5)           -174.9132         estimate D2E/DX2                !
 ! D5    D(17,3,4,5)             2.1736         estimate D2E/DX2                !
 ! D6    D(3,4,5,6)            179.0995         estimate D2E/DX2                !
 ! D7    D(3,4,5,18)            -0.7584         estimate D2E/DX2                !
 ! D8    D(4,5,6,7)            175.1629         estimate D2E/DX2                !
 ! D9    D(4,5,6,19)           -10.9434         estimate D2E/DX2                !
 ! D10   D(18,5,6,7)            -4.9817         estimate D2E/DX2                !
 ! D11   D(18,5,6,19)          168.912          estimate D2E/DX2                !
 ! D12   D(5,6,7,8)           -161.0474         estimate D2E/DX2                !
 ! D13   D(5,6,7,20)            15.3732         estimate D2E/DX2                !
 ! D14   D(19,6,7,8)            24.2408         estimate D2E/DX2                !
 ! D15   D(19,6,7,20)         -159.3386         estimate D2E/DX2                !
 ! D16   D(5,6,19,16)           15.2608         estimate D2E/DX2                !
 ! D17   D(7,6,19,16)         -169.3642         estimate D2E/DX2                !
 ! D18   D(6,7,8,9)           -165.9591         estimate D2E/DX2                !
 ! D19   D(6,7,8,21)            11.3525         estimate D2E/DX2                !
 ! D20   D(20,7,8,9)            18.5751         estimate D2E/DX2                !
 ! D21   D(20,7,8,21)         -164.1133         estimate D2E/DX2                !
 ! D22   D(7,8,9,10)           135.8563         estimate D2E/DX2                !
 ! D23   D(7,8,9,22)            -9.0669         estimate D2E/DX2                !
 ! D24   D(21,8,9,10)          -41.543          estimate D2E/DX2                !
 ! D25   D(21,8,9,22)          173.5338         estimate D2E/DX2                !
 ! D26   D(7,8,21,15)         -118.1804         estimate D2E/DX2                !
 ! D27   D(9,8,21,15)           58.6526         estimate D2E/DX2                !
 ! D28   D(8,9,10,14)           88.8205         estimate D2E/DX2                !
 ! D29   D(8,9,10,15)            1.1091         estimate D2E/DX2                !
 ! D30   D(22,9,10,14)        -126.721          estimate D2E/DX2                !
 ! D31   D(22,9,10,15)         145.5676         estimate D2E/DX2                !
 ! D32   D(9,10,14,11)          38.9288         estimate D2E/DX2                !
 ! D33   D(9,10,14,13)          90.1785         estimate D2E/DX2                !
 ! D34   D(9,10,15,21)          19.1511         estimate D2E/DX2                !
 ! D35   D(12,11,13,14)       -131.885          estimate D2E/DX2                !
 ! D36   D(12,11,14,10)       -166.8243         estimate D2E/DX2                !
 ! D37   D(12,11,14,15)        -25.7781         estimate D2E/DX2                !
 ! D38   D(11,14,15,21)       -113.0695         estimate D2E/DX2                !
 ! D39   D(13,14,15,21)       -149.1924         estimate D2E/DX2                !
 ! D40   D(10,15,21,8)         -35.4772         estimate D2E/DX2                !
 ! D41   D(14,15,21,8)         -55.3673         estimate D2E/DX2                !
 --------------------------------------------------------------------------------
 Trust Radius=3.00D-01 FncErr=1.00D-07 GrdErr=1.00D-06 EigMax=2.50D+02 EigMin=1.00D-04
 Number of steps in this run=    112 maximum allowed number of steps=    132.
 GradGradGradGradGradGradGradGradGradGradGradGradGradGradGradGradGradGrad

                          Input orientation:                          
 ---------------------------------------------------------------------
 Center     Atomic      Atomic             Coordinates (Angstroms)
 Number     Number       Type             X           Y           Z
 ---------------------------------------------------------------------
      1          8           0        3.699330    0.198580   -0.009010
      2          6           0        5.015470   -0.324970    0.047840
      3          6           0        3.749980   -1.350060   -0.527580
      4          7           0        4.833340   -1.786960   -0.703960
      5          6           0        4.905900   -2.898620   -1.178160
      6          6           0        6.130310   -3.060230   -1.256310
      7          6           0        6.853190   -4.056960   -1.600370
      8          6           0        7.991200   -3.690950   -1.059380
      9          6           0        8.970590   -4.509770   -1.611060
     10          6           0        9.896310   -3.523430   -1.840190
     11          6           0       11.526520   -2.827900   -0.860200
     12          8           0       11.861500   -1.660740   -0.608270
     13         16           0       12.338010   -3.894560   -1.768870
     14          7           0       10.489790   -3.141780   -1.513620
     15          6           0        9.333260   -1.734710   -1.266170
     16         16           0        7.410950   -0.688480   -0.605760
     17          1           0        2.531350   -1.760110   -0.677730
     18          1           0        4.165550   -3.512100   -1.436030
     19          1           0        6.787180   -2.315930   -1.117890
     20          1           0        6.473730   -4.859110   -2.097780
     21          1           0        8.183290   -2.813400   -0.295260
     22          1           0        8.785640   -5.385510   -2.240830
 ---------------------------------------------------------------------
                    Distance matrix (angstroms):
                    1          2          3          4          5
     1  O    0.000000
     2  C    1.417590   0.000000
     3  C    1.633942   1.727247   0.000000
     4  N    2.389833   1.654022   1.181381   0.000000
     5  C    3.523545   2.852850   2.038981   1.210751   0.000000
     6  C    4.252677   3.228827   3.020215   1.899589   1.237500
     7  C    5.530721   4.474546   4.255361   3.168003   2.304767
     8  C    5.886584   4.627173   4.873451   3.704535   3.187628
     9  C    7.247158   5.992285   6.197779   5.035212   4.393735
    10  C    7.457154   6.133303   6.650102   5.471747   5.072757
    11  C    8.434987   7.034413   7.922703   6.775443   6.628628
    12  O    8.392687   7.005918   8.117869   7.029945   7.087841
    13  S    9.719964   8.346376   9.042651   7.867406   7.521775
    14  N    7.715711   6.351437   7.043264   5.872522   5.599240
    15  C    6.087629   4.728351   5.645041   4.535206   4.578640
    16  S    3.862526   2.509513   3.721089   2.803636   3.389342
    17  H    2.376516   2.959211   1.294506   2.302296   2.680508
    18  H    4.002861   3.616909   2.381679   1.989467   0.995476
    19  H    4.133666   2.908918   3.241289   2.066068   1.970374
    20  H    6.135184   5.223852   4.711451   3.751229   2.673446
    21  H    5.409238   4.042906   4.674353   3.527432   3.395300
    22  H    7.876143   6.712768   6.676672   5.561673   4.729299
                    6          7          8          9         10
     6  C    0.000000
     7  C    1.278438   0.000000
     8  C    1.974715   1.312136   0.000000
     9  C    3.208458   2.165302   1.390691   0.000000
    10  C    3.839040   3.098830   2.065713   1.371978   0.000000
    11  C    5.415714   4.888604   3.644587   3.150437   2.025272
    12  O    5.935071   5.639974   4.393686   4.180899   2.974763
    13  S    6.284454   5.489810   4.409035   3.426792   2.470774
    14  N    4.367828   3.750992   2.598244   2.046670   0.777511
    15  C    3.466409   3.413983   2.381336   2.819829   1.961133
    16  S    2.772806   3.556262   3.091486   4.247983   3.967086
    17  H    3.870088   4.980470   5.803771   7.063678   7.661804
    18  H    2.024047   2.747233   3.848305   4.910641   5.745005
    19  H    1.002308   1.807852   1.828597   3.134235   3.412691
    20  H    2.015435   1.017276   2.178437   2.567731   3.682994
    21  H    2.280191   2.240295   1.179352   2.286666   2.413584
    22  H    3.664285   2.430966   2.213254   1.094412   2.204868
                   11         12         13         14         15
    11  C    0.000000
    12  O    1.240138   0.000000
    13  S    1.619247   2.562032   0.000000
    14  N    1.265025   2.212403   2.011901   0.000000
    15  C    2.484002   2.613485   3.734459   1.838107   0.000000
    16  S    4.645404   4.555512   5.992303   4.040068   2.286048
    17  H    9.060163   9.330938  10.095397   8.120621   6.827363
    18  H    7.415092   7.958666   8.188172   6.335548   5.467467
    19  H    4.773873   5.141761   5.807543   3.814178   2.615784
    20  H    5.584631   6.440208   5.952169   4.406722   4.316290
    21  H    3.390657   3.867277   4.538957   2.629102   1.851667
    22  H    3.994988   5.099027   3.881367   2.909860   3.818140
                   16         17         18         19         20
    16  S    0.000000
    17  H    4.996405   0.000000
    18  H    4.381187   2.512986   0.000000
    19  H    1.816579   4.314483   2.899134   0.000000
    20  H    4.527545   5.211785   2.753188   2.743392   0.000000
    21  H    2.282149   5.761955   4.234592   1.695087   3.218168
    22  H    5.159973   7.396144   5.050010   3.831078   2.375392
                   21         22
    21  H    0.000000
    22  H    3.280826   0.000000
 Stoichiometry    C10H6N2O2S2
 Framework group  C1[X(C10H6N2O2S2)]
 Deg. of freedom    60
 Full point group                 C1      NOp   1
 Largest Abelian subgroup         C1      NOp   1
 Largest concise Abelian subgroup C1      NOp   1
                         Standard orientation:                         
 ---------------------------------------------------------------------
 Center     Atomic      Atomic             Coordinates (Angstroms)
 Number     Number       Type             X           Y           Z
 ---------------------------------------------------------------------
      1          8           0        5.021738   -1.263158   -0.003380
      2          6           0        3.628700   -1.231426    0.257385
      3          6           0        4.453138    0.268403    0.024579
      4          7           0        3.276031    0.368601    0.030831
      5          6           0        2.820461    1.487855   -0.044301
      6          6           0        1.603049    1.266054   -0.033568
      7          6           0        0.581799    2.034690   -0.008030
      8          6           0       -0.319473    1.176853    0.408532
      9          6           0       -1.558297    1.768137    0.185548
     10          6           0       -2.175685    0.659298   -0.335637
     11          6           0       -3.390212   -0.786170    0.397353
     12          8           0       -3.333063   -2.016747    0.254677
     13         16           0       -4.588530    0.190790   -0.083837
     14          7           0       -2.584072    0.027259   -0.140011
     15          6           0       -1.044142   -0.941006   -0.404052
     16         16           0        1.168633   -1.468708   -0.177843
     17          1           0        5.468154    1.071041   -0.010918
     18          1           0        3.308878    2.353379   -0.101666
     19          1           0        1.216699    0.346717   -0.134436
     20          1           0        0.642201    3.027936   -0.219369
     21          1           0       -0.145957    0.093661    0.841499
     22          1           0       -1.720766    2.806042   -0.121200
 ---------------------------------------------------------------------
 Rotational constants (GHZ):           1.2958598           0.2137952           0.1851074
 Standard basis: 6-31G(2df,p) (6D, 7F)
 There are   534 symmetry adapted cartesian basis functions of A   symmetry.
 There are   486 symmetry adapted basis functions of A   symmetry.
   486 basis functions,   794 primitive gaussians,   534 cartesian basis functions
    64 alpha electrons       64 beta electrons
       nuclear repulsion energy      1236.9014573481 Hartrees.
 NAtoms=   22 NActive=   22 NUniq=   22 SFac= 1.00D+00 NAtFMM=   60 NAOKFM=F Big=F
 Integral buffers will be    131072 words long.
 Raffenetti 2 integral format.
 Two-electron integral symmetry is turned on.
 One-electron integrals computed using PRISM.
 PrsmSu:  requested number of processors reduced to:  12 ShMem   1 Linda.
 NBasis=   486 RedAO= T EigKep=  5.52D-05  NBF=   486
 NBsUse=   486 1.00D-06 EigRej= -1.00D+00 NBFU=   486
 ExpMin= 1.17D-01 ExpMax= 2.19D+04 ExpMxC= 3.30D+03 IAcc=3 IRadAn=         5 AccDes= 0.00D+00
 Harris functional with IExCor=  402 and IRadAn=       5 diagonalized for initial guess.
 HarFok:  IExCor=  402 AccDes= 0.00D+00 IRadAn=         5 IDoV= 1 UseB2=F ITyADJ=14
 ICtDFT=  3500011 ScaDFX=  1.000000  1.000000  1.000000  1.000000
 FoFCou: FMM=F IPFlag=           0 FMFlag=      100000 FMFlg1=           0
         NFxFlg=           0 DoJE=T BraDBF=F KetDBF=T FulRan=T
         wScrn=  0.000000 ICntrl=       500 IOpCl=  0 I1Cent=   200000004 NGrid=           0
         NMat0=    1 NMatS0=      1 NMatT0=    0 NMatD0=    1 NMtDS0=    0 NMtDT0=    0
 Petite list used in FoFCou.
 Requested convergence on RMS density matrix=1.00D-08 within 128 cycles.
 Requested convergence on MAX density matrix=1.00D-06.
 Requested convergence on             energy=1.00D-06.
 No special actions if energy rises.
 Integral accuracy reduced to 1.0D-05 until final iterations.
 EnCoef did     3 forward-backward iterations
 EnCoef did     3 forward-backward iterations
 EnCoef did     7 forward-backward iterations
 EnCoef did   100 forward-backward iterations
 EnCoef did     1 forward-backward iterations
 Initial convergence to 1.0D-05 achieved.  Increase integral accuracy.
 SCF Done:  E(RB3LYP) =  -1438.99245374     A.U. after   32 cycles
            NFock= 32  Conv=0.69D-08     -V/T= 1.9983

 **********************************************************************

            Population analysis using the SCF density.

 **********************************************************************

 Orbital symmetries:
       Occupied  (A) (A) (A) (A) (A) (A) (A) (A) (A) (A) (A) (A)
                 (A) (A) (A) (A) (A) (A) (A) (A) (A) (A) (A) (A)
                 (A) (A) (A) (A) (A) (A) (A) (A) (A) (A) (A) (A)
                 (A) (A) (A) (A) (A) (A) (A) (A) (A) (A) (A) (A)
                 (A) (A) (A) (A) (A) (A) (A) (A) (A) (A) (A) (A)
                 (A) (A) (A) (A)
       Virtual   (A) (A) (A) (A) (A) (A) (A) (A) (A) (A) (A) (A)
                 (A) (A) (A) (A) (A) (A) (A) (A) (A) (A) (A) (A)
                 (A) (A) (A) (A) (A) (A) (A) (A) (A) (A) (A) (A)
                 (A) (A) (A) (A) (A) (A) (A) (A) (A) (A) (A) (A)
                 (A) (A) (A) (A) (A) (A) (A) (A) (A) (A) (A) (A)
                 (A) (A) (A) (A) (A) (A) (A) (A) (A) (A) (A) (A)
                 (A) (A) (A) (A) (A) (A) (A) (A) (A) (A) (A) (A)
                 (A) (A) (A) (A) (A) (A) (A) (A) (A) (A) (A) (A)
                 (A) (A) (A) (A) (A) (A) (A) (A) (A) (A) (A) (A)
                 (A) (A) (A) (A) (A) (A) (A) (A) (A) (A) (A) (A)
                 (A) (A) (A) (A) (A) (A) (A) (A) (A) (A) (A) (A)
                 (A) (A) (A) (A) (A) (A) (A) (A) (A) (A) (A) (A)
                 (A) (A) (A) (A) (A) (A) (A) (A) (A) (A) (A) (A)
                 (A) (A) (A) (A) (A) (A) (A) (A) (A) (A) (A) (A)
                 (A) (A) (A) (A) (A) (A) (A) (A) (A) (A) (A) (A)
                 (A) (A) (A) (A) (A) (A) (A) (A) (A) (A) (A) (A)
                 (A) (A) (A) (A) (A) (A) (A) (A) (A) (A) (A) (A)
                 (A) (A) (A) (A) (A) (A) (A) (A) (A) (A) (A) (A)
                 (A) (A) (A) (A) (A) (A) (A) (A) (A) (A) (A) (A)
                 (A) (A) (A) (A) (A) (A) (A) (A) (A) (A) (A) (A)
                 (A) (A) (A) (A) (A) (A) (A) (A) (A) (A) (A) (A)
                 (A) (A) (A) (A) (A) (A) (A) (A) (A) (A) (A) (A)
                 (A) (A) (A) (A) (A) (A) (A) (A) (A) (A) (A) (A)
                 (A) (A) (A) (A) (A) (A) (A) (A) (A) (A) (A) (A)
                 (A) (A) (A) (A) (A) (A) (A) (A) (A) (A) (A) (A)
                 (A) (A) (A) (A) (A) (A) (A) (A) (A) (A) (A) (A)
                 (A) (A) (A) (A) (A) (A) (A) (A) (A) (A) (A) (A)
                 (A) (A) (A) (A) (A) (A) (A) (A) (A) (A) (A) (A)
                 (A) (A) (A) (A) (A) (A) (A) (A) (A) (A) (A) (A)
                 (A) (A) (A) (A) (A) (A) (A) (A) (A) (A) (A) (A)
                 (A) (A) (A) (A) (A) (A) (A) (A) (A) (A) (A) (A)
                 (A) (A) (A) (A) (A) (A) (A) (A) (A) (A) (A) (A)
                 (A) (A) (A) (A) (A) (A) (A) (A) (A) (A) (A) (A)
                 (A) (A) (A) (A) (A) (A) (A) (A) (A) (A) (A) (A)
                 (A) (A) (A) (A) (A) (A) (A) (A) (A) (A) (A) (A)
                 (A) (A)
 The electronic state is 1-A.
 Alpha  occ. eigenvalues --  -88.85457 -88.83333 -19.26478 -19.12684 -14.45310
 Alpha  occ. eigenvalues --  -14.43695 -10.37995 -10.34924 -10.32273 -10.30260
 Alpha  occ. eigenvalues --  -10.26309 -10.23304 -10.22053 -10.20445 -10.17225
 Alpha  occ. eigenvalues --  -10.16534  -7.91950  -7.90571  -5.88340  -5.87995
 Alpha  occ. eigenvalues --   -5.87564  -5.86891  -5.86466  -5.86277  -1.17605
 Alpha  occ. eigenvalues --   -1.17353  -1.08314  -1.03305  -0.92656  -0.88738
 Alpha  occ. eigenvalues --   -0.86824  -0.79984  -0.74498  -0.71845  -0.68896
 Alpha  occ. eigenvalues --   -0.66185  -0.65315  -0.62806  -0.61287  -0.58824
 Alpha  occ. eigenvalues --   -0.57312  -0.55325  -0.53343  -0.52149  -0.49835
 Alpha  occ. eigenvalues --   -0.48276  -0.46203  -0.46059  -0.44768  -0.44304
 Alpha  occ. eigenvalues --   -0.42088  -0.40841  -0.39366  -0.37533  -0.35713
 Alpha  occ. eigenvalues --   -0.31071  -0.28968  -0.27164  -0.25544  -0.23557
 Alpha  occ. eigenvalues --   -0.23010  -0.22195  -0.20583  -0.18613
 Alpha virt. eigenvalues --   -0.15444  -0.12643  -0.11446  -0.08976  -0.06090
 Alpha virt. eigenvalues --   -0.03006  -0.02152  -0.00791  -0.00188   0.03321
 Alpha virt. eigenvalues --    0.05269   0.08129   0.09813   0.10452   0.11724
 Alpha virt. eigenvalues --    0.13004   0.14463   0.15704   0.17669   0.20802
 Alpha virt. eigenvalues --    0.22666   0.23001   0.23798   0.25990   0.27111
 Alpha virt. eigenvalues --    0.28667   0.29235   0.30031   0.30433   0.32141
 Alpha virt. eigenvalues --    0.33232   0.33898   0.35343   0.36283   0.37330
 Alpha virt. eigenvalues --    0.38041   0.38563   0.38899   0.39619   0.40260
 Alpha virt. eigenvalues --    0.40813   0.42243   0.42514   0.42721   0.44432
 Alpha virt. eigenvalues --    0.45756   0.46232   0.46835   0.48049   0.49505
 Alpha virt. eigenvalues --    0.50584   0.50901   0.52967   0.53657   0.53874
 Alpha virt. eigenvalues --    0.54673   0.56390   0.56913   0.57462   0.58639
 Alpha virt. eigenvalues --    0.59318   0.60219   0.60891   0.61134   0.61901
 Alpha virt. eigenvalues --    0.64485   0.64673   0.65771   0.67232   0.68069
 Alpha virt. eigenvalues --    0.68681   0.68888   0.69924   0.71686   0.72096
 Alpha virt. eigenvalues --    0.72236   0.74148   0.75850   0.76004   0.77700
 Alpha virt. eigenvalues --    0.78026   0.78565   0.79814   0.80795   0.82086
 Alpha virt. eigenvalues --    0.82582   0.84548   0.85485   0.85682   0.86965
 Alpha virt. eigenvalues --    0.87675   0.88648   0.90170   0.90581   0.92138
 Alpha virt. eigenvalues --    0.92597   0.94443   0.94657   0.95019   0.96335
 Alpha virt. eigenvalues --    0.97161   0.99561   1.00448   1.01459   1.02516
 Alpha virt. eigenvalues --    1.04335   1.05431   1.05978   1.06195   1.07888
 Alpha virt. eigenvalues --    1.08846   1.11005   1.12035   1.12659   1.13828
 Alpha virt. eigenvalues --    1.15929   1.17057   1.17451   1.19096   1.20561
 Alpha virt. eigenvalues --    1.21387   1.21886   1.23364   1.23975   1.25315
 Alpha virt. eigenvalues --    1.25906   1.27956   1.28707   1.29912   1.30758
 Alpha virt. eigenvalues --    1.31530   1.32317   1.33854   1.34608   1.35524
 Alpha virt. eigenvalues --    1.37389   1.38947   1.41548   1.42771   1.45496
 Alpha virt. eigenvalues --    1.45871   1.47300   1.49473   1.51288   1.52082
 Alpha virt. eigenvalues --    1.53000   1.53871   1.55018   1.56887   1.58733
 Alpha virt. eigenvalues --    1.59071   1.59722   1.61685   1.62414   1.62861
 Alpha virt. eigenvalues --    1.64007   1.66206   1.66684   1.67766   1.68170
 Alpha virt. eigenvalues --    1.69962   1.70608   1.71253   1.72443   1.74475
 Alpha virt. eigenvalues --    1.75700   1.75871   1.76718   1.78687   1.81486
 Alpha virt. eigenvalues --    1.82198   1.84458   1.85848   1.89229   1.89344
 Alpha virt. eigenvalues --    1.90170   1.92320   1.92799   1.94916   1.95772
 Alpha virt. eigenvalues --    1.96968   1.98507   2.01553   2.03336   2.08112
 Alpha virt. eigenvalues --    2.11210   2.12183   2.14068   2.15147   2.18144
 Alpha virt. eigenvalues --    2.18740   2.20636   2.21452   2.25018   2.25957
 Alpha virt. eigenvalues --    2.27322   2.29290   2.30447   2.31154   2.34487
 Alpha virt. eigenvalues --    2.36532   2.37459   2.39908   2.40895   2.42103
 Alpha virt. eigenvalues --    2.43265   2.45801   2.48700   2.49111   2.50045
 Alpha virt. eigenvalues --    2.53593   2.56939   2.58768   2.60191   2.61524
 Alpha virt. eigenvalues --    2.62995   2.65284   2.67720   2.69579   2.71331
 Alpha virt. eigenvalues --    2.72206   2.73590   2.76227   2.77602   2.80690
 Alpha virt. eigenvalues --    2.82699   2.83063   2.85133   2.87436   2.89992
 Alpha virt. eigenvalues --    2.91265   2.93584   2.95047   2.95710   2.98193
 Alpha virt. eigenvalues --    2.98247   2.99831   3.01871   3.03806   3.04331
 Alpha virt. eigenvalues --    3.05648   3.06075   3.06787   3.08081   3.08449
 Alpha virt. eigenvalues --    3.08833   3.11130   3.12277   3.14225   3.16049
 Alpha virt. eigenvalues --    3.17345   3.18858   3.19771   3.24405   3.25491
 Alpha virt. eigenvalues --    3.27188   3.27705   3.30927   3.31099   3.32255
 Alpha virt. eigenvalues --    3.34908   3.35809   3.36077   3.37227   3.39883
 Alpha virt. eigenvalues --    3.41387   3.41663   3.45981   3.47833   3.48693
 Alpha virt. eigenvalues --    3.50382   3.52222   3.54397   3.55343   3.57672
 Alpha virt. eigenvalues --    3.59575   3.62037   3.66955   3.67149   3.68636
 Alpha virt. eigenvalues --    3.70943   3.73480   3.74483   3.76840   3.77902
 Alpha virt. eigenvalues --    3.79976   3.82023   3.82958   3.87063   3.87808
 Alpha virt. eigenvalues --    3.90475   3.93589   3.96380   3.98761   4.01128
 Alpha virt. eigenvalues --    4.03098   4.03540   4.04396   4.06200   4.08450
 Alpha virt. eigenvalues --    4.08867   4.10749   4.12459   4.13872   4.15763
 Alpha virt. eigenvalues --    4.17422   4.19041   4.20314   4.21714   4.22673
 Alpha virt. eigenvalues --    4.23632   4.23891   4.26006   4.27091   4.28647
 Alpha virt. eigenvalues --    4.30837   4.31376   4.33510   4.33856   4.36308
 Alpha virt. eigenvalues --    4.38543   4.39645   4.40893   4.41197   4.42952
 Alpha virt. eigenvalues --    4.44387   4.45292   4.47351   4.49871   4.50629
 Alpha virt. eigenvalues --    4.53352   4.55489   4.58438   4.58700   4.61246
 Alpha virt. eigenvalues --    4.61767   4.62690   4.63889   4.64772   4.66921
 Alpha virt. eigenvalues --    4.69207   4.70783   4.72134   4.72766   4.77412
 Alpha virt. eigenvalues --    4.80069   4.80540   4.81625   4.84883   4.85779
 Alpha virt. eigenvalues --    4.86682   4.91439   4.92657   4.93453   4.97448
 Alpha virt. eigenvalues --    4.98822   5.00603   5.04197   5.05398   5.08687
 Alpha virt. eigenvalues --    5.09590   5.10125   5.13123   5.15897   5.16658
 Alpha virt. eigenvalues --    5.19686   5.22257   5.23350   5.27109   5.28670
 Alpha virt. eigenvalues --    5.35371   5.37090   5.40235   5.41689   5.46816
 Alpha virt. eigenvalues --    5.48217   5.50247   5.54051   5.57341   5.61499
 Alpha virt. eigenvalues --    5.64683   5.66670   5.70167   5.72253   5.75299
 Alpha virt. eigenvalues --    5.83661   5.85126   5.94328   5.96345   5.97562
 Alpha virt. eigenvalues --    6.03476   6.05964   6.09647   6.12038   6.26246
 Alpha virt. eigenvalues --    6.30953   6.34891   6.43550   6.62162   6.72814
 Alpha virt. eigenvalues --    6.77164   6.95150   7.05764   7.80568   7.91470
 Alpha virt. eigenvalues --    9.68115  10.39478  10.47232  10.52260  10.80949
 Alpha virt. eigenvalues --   11.02658  11.21168  11.26904  11.29536  11.45934
 Alpha virt. eigenvalues --   11.96338  12.25014  13.00793  13.02676  15.27785
 Alpha virt. eigenvalues --   19.94163  42.25087
          Condensed to atoms (all electrons):
               1          2          3          4          5          6
     1  O    7.779188   0.314281   0.174623  -0.013817   0.002883  -0.000012
     2  C    0.314281   5.417474  -0.044432   0.144416   0.004887  -0.002106
     3  C    0.174623  -0.044432   5.327358   0.491589  -0.197735  -0.004878
     4  N   -0.013817   0.144416   0.491589   5.773660   0.438791   0.007991
     5  C    0.002883   0.004887  -0.197735   0.438791   5.239594   0.506318
     6  C   -0.000012  -0.002106  -0.004878   0.007991   0.506318   4.669024
     7  C    0.000006   0.000317  -0.001296   0.012253  -0.110652   0.445500
     8  C   -0.000001   0.000069  -0.000072  -0.000524   0.023306   0.072171
     9  C   -0.000000   0.000004  -0.000001   0.000022  -0.002514  -0.026264
    10  C   -0.000000   0.000001  -0.000000  -0.000006   0.000071  -0.000555
    11  C   -0.000000   0.000000  -0.000000  -0.000000   0.000000  -0.000015
    12  O   -0.000000   0.000000  -0.000000  -0.000000   0.000000  -0.000001
    13  S    0.000000  -0.000000   0.000000   0.000000   0.000000   0.000043
    14  N   -0.000000  -0.000000   0.000000  -0.000000   0.000010   0.001507
    15  C   -0.000001   0.000488  -0.000011  -0.000229   0.000398  -0.007628
    16  S    0.000759   0.000626  -0.004439   0.004275  -0.005445  -0.116504
    17  H   -0.029511   0.004300   0.332618  -0.027988  -0.006832  -0.000722
    18  H   -0.000222   0.001649  -0.006370  -0.034192   0.350038  -0.010845
    19  H   -0.000112   0.003993   0.001166  -0.035565  -0.043164   0.370378
    20  H   -0.000000  -0.000008  -0.000008  -0.000443  -0.016391  -0.034909
    21  H    0.000001  -0.000160   0.000041   0.000740  -0.001829  -0.008295
    22  H   -0.000000   0.000000  -0.000000   0.000000  -0.000044   0.000266
               7          8          9         10         11         12
     1  O    0.000006  -0.000001  -0.000000  -0.000000  -0.000000  -0.000000
     2  C    0.000317   0.000069   0.000004   0.000001   0.000000   0.000000
     3  C   -0.001296  -0.000072  -0.000001  -0.000000  -0.000000  -0.000000
     4  N    0.012253  -0.000524   0.000022  -0.000006  -0.000000  -0.000000
     5  C   -0.110652   0.023306  -0.002514   0.000071   0.000000   0.000000
     6  C    0.445500   0.072171  -0.026264  -0.000555  -0.000015  -0.000001
     7  C    5.190506   0.417608  -0.016642  -0.004865  -0.000146  -0.000001
     8  C    0.417608   5.153449   0.293749   0.020504   0.000161   0.000107
     9  C   -0.016642   0.293749   5.463085   0.291411  -0.001445   0.000272
    10  C   -0.004865   0.020504   0.291411   8.750243  -0.447294  -0.006903
    11  C   -0.000146   0.000161  -0.001445  -0.447294   4.650205   0.637887
    12  O   -0.000001   0.000107   0.000272  -0.006903   0.637887   7.803063
    13  S   -0.000097   0.002348  -0.006123  -0.118374   0.385468  -0.055560
    14  N   -0.005160  -0.035512   0.078117  -1.969274   0.576935  -0.054733
    15  C   -0.003182   0.000406  -0.026288  -0.053142  -0.035451   0.003248
    16  S   -0.022179  -0.031472   0.001417   0.002375   0.001233   0.000323
    17  H    0.000046  -0.000000  -0.000000   0.000000  -0.000000  -0.000000
    18  H   -0.010034  -0.000103  -0.000010   0.000001  -0.000000  -0.000000
    19  H   -0.057788  -0.047098   0.001879   0.003106   0.000018   0.000006
    20  H    0.381291  -0.058306   0.000465   0.000991  -0.000003  -0.000000
    21  H   -0.019122   0.330402  -0.028355  -0.014758   0.001655  -0.000238
    22  H   -0.005255  -0.043050   0.381282  -0.022869   0.000144   0.000002
              13         14         15         16         17         18
     1  O    0.000000  -0.000000  -0.000001   0.000759  -0.029511  -0.000222
     2  C   -0.000000  -0.000000   0.000488   0.000626   0.004300   0.001649
     3  C    0.000000   0.000000  -0.000011  -0.004439   0.332618  -0.006370
     4  N    0.000000  -0.000000  -0.000229   0.004275  -0.027988  -0.034192
     5  C    0.000000   0.000010   0.000398  -0.005445  -0.006832   0.350038
     6  C    0.000043   0.001507  -0.007628  -0.116504  -0.000722  -0.010845
     7  C   -0.000097  -0.005160  -0.003182  -0.022179   0.000046  -0.010034
     8  C    0.002348  -0.035512   0.000406  -0.031472  -0.000000  -0.000103
     9  C   -0.006123   0.078117  -0.026288   0.001417  -0.000000  -0.000010
    10  C   -0.118374  -1.969274  -0.053142   0.002375   0.000000   0.000001
    11  C    0.385468   0.576935  -0.035451   0.001233  -0.000000  -0.000000
    12  O   -0.055560  -0.054733   0.003248   0.000323  -0.000000  -0.000000
    13  S   16.217773  -0.046739   0.014219  -0.000129   0.000000   0.000000
    14  N   -0.046739   7.310268   0.008106   0.002853   0.000000   0.000000
    15  C    0.014219   0.008106   6.053485   0.169027  -0.000000  -0.000014
    16  S   -0.000129   0.002853   0.169027  16.345690  -0.000232  -0.002070
    17  H    0.000000   0.000000  -0.000000  -0.000232   0.544980   0.008463
    18  H    0.000000   0.000000  -0.000014  -0.002070   0.008463   0.562770
    19  H   -0.000001  -0.000946   0.001285  -0.011803  -0.000084   0.007073
    20  H    0.000002  -0.000155  -0.000398  -0.002150  -0.000001   0.003394
    21  H   -0.000519   0.001127   0.016710   0.007891   0.000000  -0.000070
    22  H    0.002030  -0.003870   0.000869  -0.000159   0.000000   0.000001
              19         20         21         22
     1  O   -0.000112  -0.000000   0.000001  -0.000000
     2  C    0.003993  -0.000008  -0.000160   0.000000
     3  C    0.001166  -0.000008   0.000041  -0.000000
     4  N   -0.035565  -0.000443   0.000740   0.000000
     5  C   -0.043164  -0.016391  -0.001829  -0.000044
     6  C    0.370378  -0.034909  -0.008295   0.000266
     7  C   -0.057788   0.381291  -0.019122  -0.005255
     8  C   -0.047098  -0.058306   0.330402  -0.043050
     9  C    0.001879   0.000465  -0.028355   0.381282
    10  C    0.003106   0.000991  -0.014758  -0.022869
    11  C    0.000018  -0.000003   0.001655   0.000144
    12  O    0.000006  -0.000000  -0.000238   0.000002
    13  S   -0.000001   0.000002  -0.000519   0.002030
    14  N   -0.000946  -0.000155   0.001127  -0.003870
    15  C    0.001285  -0.000398   0.016710   0.000869
    16  S   -0.011803  -0.002150   0.007891  -0.000159
    17  H   -0.000084  -0.000001   0.000000   0.000000
    18  H    0.007073   0.003394  -0.000070   0.000001
    19  H    0.694795   0.011660  -0.023410   0.000146
    20  H    0.011660   0.610327   0.001690   0.001875
    21  H   -0.023410   0.001690   0.497045   0.001614
    22  H    0.000146   0.001875   0.001614   0.551302
 Mulliken charges:
               1
     1  O   -0.228064
     2  C    0.154202
     3  C   -0.068155
     4  N    0.239027
     5  C   -0.181691
     6  C    0.139534
     7  C   -0.191106
     8  C   -0.098142
     9  C   -0.404059
    10  C   -0.430664
    11  C    0.230649
    12  O   -0.327471
    13  S   -0.394340
    14  N    1.137465
    15  C   -0.141897
    16  S   -0.339887
    17  H    0.174961
    18  H    0.130541
    19  H    0.124464
    20  H    0.101077
    21  H    0.237841
    22  H    0.135716
 Sum of Mulliken charges =  -0.00000
 Mulliken charges with hydrogens summed into heavy atoms:
               1
     1  O   -0.228064
     2  C    0.154202
     3  C    0.106806
     4  N    0.239027
     5  C   -0.051150
     6  C    0.263998
     7  C   -0.090029
     8  C    0.139698
     9  C   -0.268343
    10  C   -0.430664
    11  C    0.230649
    12  O   -0.327471
    13  S   -0.394340
    14  N    1.137465
    15  C   -0.141897
    16  S   -0.339887
 Electronic spatial extent (au):  <R**2>=           5259.8988
 Charge=             -0.0000 electrons
 Dipole moment (field-independent basis, Debye):
    X=              8.8578    Y=              7.6712    Z=             -0.6997  Tot=             11.7388
 Quadrupole moment (field-independent basis, Debye-Ang):
   XX=           -107.1344   YY=           -108.0185   ZZ=           -103.0223
   XY=              5.0329   XZ=              3.0525   YZ=             -1.5960
 Traceless Quadrupole moment (field-independent basis, Debye-Ang):
   XX=             -1.0760   YY=             -1.9601   ZZ=              3.0361
   XY=              5.0329   XZ=              3.0525   YZ=             -1.5960
 Octapole moment (field-independent basis, Debye-Ang**2):
  XXX=            249.2482  YYY=             42.9178  ZZZ=             -0.4255  XYY=             27.7417
  XXY=             73.4583  XXZ=            -12.7912  XZZ=             -4.3231  YZZ=             -2.7397
  YYZ=             -5.9551  XYZ=              0.8954
 Hexadecapole moment (field-independent basis, Debye-Ang**3):
 XXXX=          -5908.4591 YYYY=          -1040.4798 ZZZZ=           -138.9468 XXXY=            164.8116
 XXXZ=             42.9617 YYYX=             -1.9886 YYYZ=            -12.8516 ZZZX=              1.9516
 ZZZY=             -6.3705 XXYY=          -1163.4082 XXZZ=           -976.0913 YYZZ=           -209.4020
 XXYZ=             -6.2861 YYXZ=             10.3906 ZZXY=              8.4714
 N-N= 1.236901457348D+03 E-N=-5.870464093267D+03  KE= 1.441463559724D+03
 PrsmSu:  requested number of processors reduced to:  13 ShMem   1 Linda.
 Calling FoFJK, ICntrl=      2127 FMM=F ISym2X=0 I1Cent= 0 IOpClX= 0 NMat=1 NMatS=1 NMatT=0.
 ***** Axes restored to original set *****
 -------------------------------------------------------------------
 Center     Atomic                   Forces (Hartrees/Bohr)
 Number     Number              X              Y              Z
 -------------------------------------------------------------------
      1        8           0.085159984   -0.088817406   -0.039470496
      2        6           0.005474199    0.077600550    0.067305941
      3        6          -0.302281419    0.083663670    0.028934306
      4        7          -0.035355202    0.157583063    0.039241421
      5        6          -0.004975167   -0.093711305   -0.043287873
      6        6           0.036052759   -0.067772035   -0.033699016
      7        6          -0.018719585   -0.028237649    0.006760235
      8        6           0.086343288   -0.070335220    0.005234189
      9        6           0.014108501   -0.015755686   -0.019161822
     10        6          -2.507620420   -1.712583858   -1.356900344
     11        6           0.143679268    0.112710555   -0.003473715
     12        8          -0.015757650   -0.008917038    0.043826444
     13       16           0.141954786   -0.091677440   -0.007746715
     14        7           2.391280268    1.618391514    1.314092977
     15        6          -0.110796325    0.141054437    0.058208288
     16       16           0.080452598    0.025773551   -0.025896640
     17        1           0.075680888    0.021053516    0.009645750
     18        1          -0.065462687   -0.042430245   -0.013453928
     19        1           0.002119813    0.059133131    0.024240144
     20        1           0.000962975   -0.050452564   -0.030134770
     21        1          -0.002047060   -0.036987956   -0.029304972
     22        1          -0.000253811    0.010714417    0.005040595
 -------------------------------------------------------------------
 Cartesian Forces:  Max     2.507620420 RMS     0.569992454

 GradGradGradGradGradGradGradGradGradGradGradGradGradGradGradGradGradGrad
 Berny optimization.
 FormGI is forming the generalized inverse of G from B-inverse, IUseBI=4.
 Internal  Forces:  Max     3.023201225 RMS     0.326561806
 Search for a local minimum.
 Step number   1 out of a maximum of  112
 All quantities printed in internal units (Hartrees-Bohrs-Radians)
 Mixed Optimization -- RFO/linear search
 Second derivative matrix not updated -- first step.
 ITU=  0
     Eigenvalues ---    0.00725   0.01395   0.01482   0.01772   0.02681
     Eigenvalues ---    0.02930   0.03059   0.03251   0.03351   0.03364
     Eigenvalues ---    0.03435   0.03650   0.03699   0.04238   0.04395
     Eigenvalues ---    0.04920   0.05099   0.06540   0.07621   0.08133
     Eigenvalues ---    0.08228   0.11291   0.11771   0.12922   0.14289
     Eigenvalues ---    0.15892   0.15954   0.15976   0.15983   0.16000
     Eigenvalues ---    0.16231   0.18027   0.18878   0.19048   0.19877
     Eigenvalues ---    0.21148   0.21323   0.21957   0.21985   0.22000
     Eigenvalues ---    0.22066   0.23539   0.25000   0.25140   0.34308
     Eigenvalues ---    0.39791   0.41260   0.44121   0.44775   0.47285
     Eigenvalues ---    0.47785   0.48493   0.63932   0.73556   0.76266
     Eigenvalues ---    0.86990   0.88032   0.99598   1.04787  15.44319
 RFO step:  Lambda=-1.04004946D+00 EMin= 7.24568697D-03
 Linear search not attempted -- first point.
 Maximum step size (   0.300) exceeded in Quadratic search.
    -- Step size scaled by   0.541
 Iteration  1 RMS(Cart)=  0.14816734 RMS(Int)=  0.00804763
 Iteration  2 RMS(Cart)=  0.02928753 RMS(Int)=  0.00029455
 Iteration  3 RMS(Cart)=  0.00038111 RMS(Int)=  0.00013843
 Iteration  4 RMS(Cart)=  0.00000016 RMS(Int)=  0.00013843
 Variable       Old X    -DE/DX   Delta X   Delta X   Delta X     New X
                                 (Linear)    (Quad)   (Total)
    R1        2.67886  -0.05799   0.00000  -0.02359  -0.02356   2.65530
    R2        3.08770  -0.08102   0.00000  -0.03103  -0.03098   3.05673
    R3        3.26402   0.05923   0.00000   0.02526   0.02518   3.28921
    R4        3.12565   0.04349   0.00000   0.01608   0.01606   3.14171
    R5        2.23249   0.17167   0.00000   0.04444   0.04447   2.27696
    R6        2.44626  -0.07903   0.00000  -0.03478  -0.03478   2.41148
    R7        2.28799   0.28242   0.00000   0.07501   0.07501   2.36300
    R8        2.33854   0.25730   0.00000   0.07246   0.07246   2.41099
    R9        1.88118   0.07832   0.00000   0.02777   0.02777   1.90895
   R10        2.41590   0.17624   0.00000   0.05368   0.05368   2.46957
   R11        1.89409   0.11694   0.00000   0.04180   0.04180   1.93589
   R12        2.47958   0.11134   0.00000   0.03586   0.03586   2.51544
   R13        1.92237   0.05416   0.00000   0.01969   0.01969   1.94206
   R14        2.62803  -0.00011   0.00000   0.01128   0.01125   2.63927
   R15        2.22865   0.07758   0.00000  -0.00791  -0.00791   2.22075
   R16        2.59266  -0.01989   0.00000   0.02655   0.02649   2.61915
   R17        2.06814  -0.01143   0.00000  -0.00447  -0.00447   2.06367
   R18        1.46928   3.02320   0.00000   0.09923   0.09936   1.56864
   R19        3.70600   0.30920   0.00000   0.04424   0.04389   3.74989
   R20        2.34352  -0.00375   0.00000  -0.00106  -0.00106   2.34246
   R21        3.05993  -0.04781   0.00000   0.01324   0.01341   3.07335
   R22        2.39055   0.15226   0.00000   0.04420   0.04425   2.43480
   R23        3.80194   0.20364   0.00000   0.06269   0.06252   3.86447
   R24        3.47352  -0.03610   0.00000   0.03301   0.03333   3.50685
   R25        3.49914   0.03185   0.00000  -0.01263  -0.01255   3.48659
   R26        3.43284   0.04341   0.00000   0.02094   0.02094   3.45377
    A1        1.77827   0.00351   0.00000  -0.00661  -0.00676   1.77150
    A2        2.01122  -0.04586   0.00000  -0.01696  -0.01704   1.99418
    A3        1.88373   0.02737   0.00000   0.01092   0.01102   1.89475
    A4        2.72967   0.00094   0.00000  -0.00054  -0.00066   2.72900
    A5        2.38739   0.01905   0.00000   0.00624   0.00621   2.39360
    A6        2.04091   0.07391   0.00000   0.03061   0.03069   2.07159
    A7        1.77617   0.14353   0.00000   0.06157   0.06156   1.83773
    A8        2.24301  -0.08295   0.00000  -0.03580  -0.03579   2.20721
    A9        2.26400  -0.06058   0.00000  -0.02577  -0.02577   2.23823
   A10        2.31620   0.09277   0.00000   0.03977   0.03975   2.35595
   A11        2.14448   0.08297   0.00000   0.03836   0.03835   2.18282
   A12        1.81889  -0.17765   0.00000  -0.07911  -0.07911   1.73978
   A13        1.73348  -0.07906   0.00000  -0.03389  -0.03396   1.69952
   A14        2.13583   0.06614   0.00000   0.02902   0.02895   2.16479
   A15        2.41143   0.01582   0.00000   0.00633   0.00625   2.41768
   A16        1.85771   0.14500   0.00000   0.08012   0.08016   1.93787
   A17        2.23440  -0.20338   0.00000  -0.07131  -0.07126   2.16313
   A18        2.19005   0.05696   0.00000  -0.00921  -0.00933   2.18073
   A19        1.68921  -0.15174   0.00000  -0.00560  -0.00574   1.68347
   A20        2.19002   0.09051   0.00000   0.00255   0.00262   2.19264
   A21        2.20582   0.06157   0.00000   0.00196   0.00203   2.20785
   A22        2.49439   0.00039   0.00000   0.03578   0.03573   2.53011
   A23        1.99667   0.19529   0.00000  -0.00330  -0.00311   1.99355
   A24        2.21255   0.07052   0.00000   0.01734   0.01732   2.22987
   A25        2.16496  -0.02923   0.00000  -0.00130  -0.00160   2.16336
   A26        2.87359   0.25602   0.00000   0.00765   0.00763   2.88122
   A27        2.05359   0.23330   0.00000   0.01574   0.01551   2.06910
   A28        1.82986   0.29753   0.00000   0.00773   0.00793   1.83779
   A29        2.64984   0.30929   0.00000   0.01220   0.01182   2.66166
   A30        1.36989  -0.16387   0.00000  -0.01312  -0.01332   1.35657
   A31        1.58620   0.31073   0.00000   0.01278   0.01310   1.59930
   A32        2.76315   0.25964   0.00000   0.10884   0.10884   2.87199
   A33        1.76695   0.16486   0.00000   0.02461   0.02474   1.79169
   A34        2.96825  -0.05382   0.00000  -0.02754  -0.02748   2.94077
   A35        3.07705  -0.01519   0.00000  -0.01015  -0.01026   3.06680
    D1        2.94955  -0.01800   0.00000  -0.00845  -0.00852   2.94102
    D2        2.93613  -0.01581   0.00000  -0.00763  -0.00754   2.92859
    D3       -0.24802  -0.02590   0.00000  -0.01265  -0.01256  -0.26059
    D4       -3.05281  -0.01435   0.00000  -0.00527  -0.00523  -3.05804
    D5        0.03794   0.00243   0.00000   0.00107   0.00105   0.03898
    D6        3.12588   0.00023   0.00000  -0.00027  -0.00034   3.12553
    D7       -0.01324   0.00231   0.00000   0.00058   0.00049  -0.01274
    D8        3.05717   0.01139   0.00000   0.00549   0.00562   3.06279
    D9       -0.19100  -0.02660   0.00000  -0.01325  -0.01338  -0.20438
   D10       -0.08695   0.00923   0.00000   0.00461   0.00475  -0.08220
   D11        2.94807  -0.02876   0.00000  -0.01413  -0.01426   2.93381
   D12       -2.81081  -0.01342   0.00000  -0.00676  -0.00673  -2.81753
   D13        0.26831   0.02334   0.00000   0.01174   0.01189   0.28021
   D14        0.42308   0.01032   0.00000   0.00530   0.00516   0.42824
   D15       -2.78098   0.04708   0.00000   0.02381   0.02378  -2.75720
   D16        0.26635   0.00006   0.00000   0.00017   0.00001   0.26636
   D17       -2.95596  -0.01809   0.00000  -0.00942  -0.00926  -2.96522
   D18       -2.89653   0.08889   0.00000   0.04170   0.04165  -2.85488
   D19        0.19814   0.05989   0.00000   0.03319   0.03314   0.23128
   D20        0.32420   0.04036   0.00000   0.01734   0.01739   0.34159
   D21       -2.86432   0.01136   0.00000   0.00883   0.00888  -2.85544
   D22        2.37114  -0.01665   0.00000  -0.00658  -0.00669   2.36445
   D23       -0.15825  -0.02000   0.00000  -0.00520  -0.00531  -0.16356
   D24       -0.72506   0.02047   0.00000   0.00389   0.00402  -0.72104
   D25        3.02874   0.01712   0.00000   0.00527   0.00540   3.03414
   D26       -2.06264   0.01828   0.00000   0.02128   0.02107  -2.04157
   D27        1.02368  -0.01577   0.00000   0.01292   0.01322   1.03690
   D28        1.55021  -0.18924   0.00000  -0.00313  -0.00312   1.54709
   D29        0.01936   0.09624   0.00000   0.00121   0.00116   0.02052
   D30       -2.21170  -0.17215   0.00000  -0.00427  -0.00426  -2.21595
   D31        2.54063   0.11333   0.00000   0.00007   0.00002   2.54066
   D32        0.67943  -0.03986   0.00000   0.01048   0.01046   0.68990
   D33        1.57391  -0.01641   0.00000  -0.00872  -0.00849   1.56542
   D34        0.33425  -0.12354   0.00000   0.00023   0.00029   0.33453
   D35       -2.30183  -0.07807   0.00000  -0.02193  -0.02219  -2.32402
   D36       -2.91163   0.08457   0.00000   0.01447   0.01443  -2.89721
   D37       -0.44991  -0.08362   0.00000   0.00489   0.00482  -0.44509
   D38       -1.97344  -0.19394   0.00000  -0.04089  -0.04085  -2.01428
   D39       -2.60390  -0.10981   0.00000   0.00998   0.01017  -2.59373
   D40       -0.61919   0.13480   0.00000  -0.01077  -0.01112  -0.63031
   D41       -0.96634  -0.56486   0.00000  -0.02270  -0.02218  -0.98852
         Item               Value     Threshold  Converged?
 Maximum Force            3.023201     0.000450     NO 
 RMS     Force            0.326562     0.000300     NO 
 Maximum Displacement     0.853174     0.001800     NO 
 RMS     Displacement     0.174742     0.001200     NO 
 Predicted change in Energy=-4.614894D-01
 GradGradGradGradGradGradGradGradGradGradGradGradGradGradGradGradGradGrad

                          Input orientation:                          
 ---------------------------------------------------------------------
 Center     Atomic      Atomic             Coordinates (Angstroms)
 Number     Number       Type             X           Y           Z
 ---------------------------------------------------------------------
      1          8           0        3.803716    0.299248    0.038269
      2          6           0        5.082136   -0.281868    0.086434
      3          6           0        3.738007   -1.231589   -0.480083
      4          7           0        4.815198   -1.733896   -0.677988
      5          6           0        4.860664   -2.884049   -1.166547
      6          6           0        6.102739   -3.151164   -1.283480
      7          6           0        6.791754   -4.198922   -1.651311
      8          6           0        7.953509   -3.837667   -1.111240
      9          6           0        9.006993   -4.585582   -1.641720
     10          6           0        9.876009   -3.521727   -1.826133
     11          6           0       11.484749   -2.636454   -0.804216
     12          8           0       11.696601   -1.442465   -0.547196
     13         16           0       12.416362   -3.649106   -1.671182
     14          7           0       10.468330   -3.059017   -1.473853
     15          6           0        9.154943   -1.769756   -1.235928
     16         16           0        7.862430   -0.991053   -0.797128
     17          1           0        2.512820   -1.566376   -0.603640
     18          1           0        4.070618   -3.463220   -1.413203
     19          1           0        6.862913   -2.471969   -1.182080
     20          1           0        6.394914   -4.998505   -2.160564
     21          1           0        8.072727   -2.962620   -0.335932
     22          1           0        8.904257   -5.459941   -2.287868
 ---------------------------------------------------------------------
                    Distance matrix (angstroms):
                    1          2          3          4          5
     1  O    0.000000
     2  C    1.405124   0.000000
     3  C    1.617550   1.740573   0.000000
     4  N    2.381132   1.662523   1.204914   0.000000
     5  C    3.564000   2.896611   2.112395   1.250443   0.000000
     6  C    4.351766   3.339334   3.149948   2.008241   1.275843
     7  C    5.658319   4.613660   4.416130   3.306128   2.386000
     8  C    5.971282   4.724713   4.996044   3.802967   3.236996
     9  C    7.331985   6.075604   6.353021   5.160624   4.507000
    10  C    7.412730   6.093916   6.688172   5.488751   5.098566
    11  C    8.265978   6.879737   7.879767   6.731528   6.638607
    12  O    8.103947   6.745341   7.961670   6.888814   7.013687
    13  S    9.627532   8.259441   9.087186   7.901402   7.611080
    14  N    7.614560   6.257646   7.044453   5.860653   5.618805
    15  C    5.877073   4.533234   5.495828   4.375611   4.437037
    16  S    4.340037   3.002276   4.143578   3.138731   3.567983
    17  H    2.357756   2.954242   1.276100   2.309661   2.750544
    18  H    4.041556   3.659656   2.441623   2.021263   1.010173
    19  H    4.304367   3.094646   3.434585   2.234278   2.044273
    20  H    6.294073   5.386933   4.906407   3.918062   2.795160
    21  H    5.385560   4.038373   4.669801   3.498323   3.318651
    22  H    8.037081   6.859909   6.916443   5.761556   4.923741
                    6          7          8          9         10
     6  C    0.000000
     7  C    1.306843   0.000000
     8  C    1.981490   1.331112   0.000000
     9  C    3.258923   2.248752   1.396644   0.000000
    10  C    3.830059   3.162560   2.075306   1.385995   0.000000
    11  C    5.427767   5.018275   3.742570   3.261868   2.101444
    12  O    5.895173   5.733642   4.479495   4.279154   3.045253
    13  S    6.345084   5.651452   4.501793   3.535767   2.548260
    14  N    4.370711   3.853321   2.657462   2.119925   0.830087
    15  C    3.350596   3.414389   2.394837   2.848759   1.984358
    16  S    2.828273   3.488037   2.865340   3.865747   3.393768
    17  H    3.982619   5.131977   5.917560   7.236539   7.715856
    18  H    2.060030   2.828875   3.912574   5.067515   5.820351
    19  H    1.024427   1.790980   1.749157   3.045605   3.255080
    20  H    2.065748   1.027694   2.208585   2.694933   3.796148
    21  H    2.194139   2.213494   1.175169   2.282967   2.405229
    22  H    3.766662   2.541268   2.218140   1.092047   2.216793
                   11         12         13         14         15
    11  C    0.000000
    12  O    1.239577   0.000000
    13  S    1.626344   2.578889   0.000000
    14  N    1.288442   2.231723   2.044987   0.000000
    15  C    2.523001   2.653582   3.789229   1.855744   0.000000
    16  S    3.978516   3.868735   5.344858   3.394871   1.571469
    17  H    9.037744   9.184790  10.176323   8.140969   6.675249
    18  H    7.484901   7.936563   8.351798   6.410754   5.361866
    19  H    4.640174   4.982721   5.697865   3.664531   2.397792
    20  H    5.772815   6.584548   6.190170   4.563541   4.347129
    21  H    3.459418   3.935476   4.595794   2.653879   1.845023
    22  H    4.102711   5.192999   3.999287   2.978821   3.845371
                   16         17         18         19         20
    16  S    0.000000
    17  H    5.383935   0.000000
    18  H    4.568260   2.584598   0.000000
    19  H    1.827659   4.480847   2.972020   0.000000
    20  H    4.480205   5.410561   2.884094   2.749516   0.000000
    21  H    2.035683   5.738791   4.174684   1.555749   3.207673
    22  H    4.824797   7.671175   5.302452   3.783891   2.554590
                   21         22
    21  H    0.000000
    22  H    3.276905   0.000000
 Stoichiometry    C10H6N2O2S2
 Framework group  C1[X(C10H6N2O2S2)]
 Deg. of freedom    60
 Full point group                 C1      NOp   1
 Largest Abelian subgroup         C1      NOp   1
 Largest concise Abelian subgroup C1      NOp   1
                         Standard orientation:                         
 ---------------------------------------------------------------------
 Center     Atomic      Atomic             Coordinates (Angstroms)
 Number     Number       Type             X           Y           Z
 ---------------------------------------------------------------------
      1          8           0        4.955467   -1.518663    0.010339
      2          6           0        3.583965   -1.380528    0.282871
      3          6           0        4.547030    0.046394    0.025975
      4          7           0        3.359124    0.247939    0.034829
      5          6           0        2.949572    1.426756   -0.044327
      6          6           0        1.676585    1.342276   -0.032394
      7          6           0        0.693689    2.203330   -0.013987
      8          6           0       -0.255220    1.370471    0.407650
      9          6           0       -1.526299    1.904022    0.183382
     10          6           0       -2.095673    0.744447   -0.318793
     11          6           0       -3.273730   -0.842060    0.396220
     12          8           0       -3.126567   -2.064092    0.249482
     13         16           0       -4.539705    0.070664   -0.061207
     14          7           0       -2.495839    0.043925   -0.123393
     15          6           0       -0.867293   -0.813422   -0.361258
     16         16           0        0.629424   -1.276772   -0.240178
     17          1           0        5.614131    0.745099   -0.013246
     18          1           0        3.520511    2.257753   -0.106960
     19          1           0        1.143287    0.474337   -0.140685
     20          1           0        0.798050    3.200259   -0.240695
     21          1           0       -0.041765    0.304027    0.852794
     22          1           0       -1.739673    2.925127   -0.139702
 ---------------------------------------------------------------------
 Rotational constants (GHZ):           1.2291133           0.2204712           0.1886282
 Standard basis: 6-31G(2df,p) (6D, 7F)
 There are   534 symmetry adapted cartesian basis functions of A   symmetry.
 There are   486 symmetry adapted basis functions of A   symmetry.
   486 basis functions,   794 primitive gaussians,   534 cartesian basis functions
    64 alpha electrons       64 beta electrons
       nuclear repulsion energy      1239.2456515940 Hartrees.
 NAtoms=   22 NActive=   22 NUniq=   22 SFac= 1.00D+00 NAtFMM=   60 NAOKFM=F Big=F
 Integral buffers will be    131072 words long.
 Raffenetti 2 integral format.
 Two-electron integral symmetry is turned on.
 One-electron integrals computed using PRISM.
 PrsmSu:  requested number of processors reduced to:  12 ShMem   1 Linda.
 NBasis=   486 RedAO= T EigKep=  6.53D-05  NBF=   486
 NBsUse=   486 1.00D-06 EigRej= -1.00D+00 NBFU=   486
 Initial guess from the checkpoint file:  "Odc1cncccccc2cqdOrsnc-2s1.chk"
 B after Tr=     0.000000    0.000000    0.000000
         Rot=    0.999942   -0.003717   -0.001631    0.009970 Ang=  -1.23 deg.
 ExpMin= 1.17D-01 ExpMax= 2.19D+04 ExpMxC= 3.30D+03 IAcc=2 IRadAn=         4 AccDes= 0.00D+00
 Harris functional with IExCor=  402 and IRadAn=       4 diagonalized for initial guess.
 HarFok:  IExCor=  402 AccDes= 0.00D+00 IRadAn=         4 IDoV= 1 UseB2=F ITyADJ=14
 ICtDFT=  3500011 ScaDFX=  1.000000  1.000000  1.000000  1.000000
 FoFCou: FMM=F IPFlag=           0 FMFlag=      100000 FMFlg1=           0
         NFxFlg=           0 DoJE=T BraDBF=F KetDBF=T FulRan=T
         wScrn=  0.000000 ICntrl=       500 IOpCl=  0 I1Cent=   200000004 NGrid=           0
         NMat0=    1 NMatS0=      1 NMatT0=    0 NMatD0=    1 NMtDS0=    0 NMtDT0=    0
 Petite list used in FoFCou.
 Requested convergence on RMS density matrix=1.00D-08 within 128 cycles.
 Requested convergence on MAX density matrix=1.00D-06.
 Requested convergence on             energy=1.00D-06.
 No special actions if energy rises.
 Integral accuracy reduced to 1.0D-05 until final iterations.
 Initial convergence to 1.0D-05 achieved.  Increase integral accuracy.
 SCF Done:  E(RB3LYP) =  -1439.49482851     A.U. after   27 cycles
            NFock= 27  Conv=0.37D-08     -V/T= 1.9994
 PrsmSu:  requested number of processors reduced to:  13 ShMem   1 Linda.
 Calling FoFJK, ICntrl=      2127 FMM=F ISym2X=0 I1Cent= 0 IOpClX= 0 NMat=1 NMatS=1 NMatT=0.
 ***** Axes restored to original set *****
 -------------------------------------------------------------------
 Center     Atomic                   Forces (Hartrees/Bohr)
 Number     Number              X              Y              Z
 -------------------------------------------------------------------
      1        8           0.080881266   -0.081662331   -0.032095490
      2        6          -0.012151126    0.070571841    0.050432456
      3        6          -0.248938600    0.076429674    0.033305358
      4        7          -0.017559808    0.080430690   -0.001113678
      5        6           0.012611826   -0.032755726   -0.021356159
      6        6           0.015652491   -0.060671315   -0.026206127
      7        6          -0.040278529   -0.009657161    0.020175676
      8        6           0.078824235   -0.089696297   -0.003156615
      9        6           0.000375334    0.011647776   -0.014403017
     10        6          -1.581284262   -1.393665040   -0.938091982
     11        6           0.101679997    0.106715149   -0.021816427
     12        8          -0.017348588   -0.011056738    0.043119318
     13       16           0.137530861   -0.069831792   -0.002238541
     14        7           1.560729215    1.221844803    0.912273022
     15        6          -0.082315393    0.173643995    0.030717937
     16       16           0.015134209    0.067788176    0.000608892
     17        1           0.074285886    0.014739928    0.009383872
     18        1          -0.054735758   -0.029448521   -0.009464803
     19        1          -0.022190564    0.049962045    0.023288976
     20        1           0.000010905   -0.042109831   -0.021611681
     21        1           0.003742019   -0.064327381   -0.032246153
     22        1          -0.004655618    0.011108056    0.000495165
 -------------------------------------------------------------------
 Cartesian Forces:  Max     1.581284262 RMS     0.395357749

 GradGradGradGradGradGradGradGradGradGradGradGradGradGradGradGradGradGrad
 Berny optimization.
 Using GEDIIS/GDIIS optimizer.
 FormGI is forming the generalized inverse of G from B-inverse, IUseBI=4.
 Internal  Forces:  Max     2.098601746 RMS     0.230119881
 Search for a local minimum.
 Step number   2 out of a maximum of  112
 All quantities printed in internal units (Hartrees-Bohrs-Radians)
 Mixed Optimization -- RFO/linear search
 Update second derivatives using D2CorX and points    1    2
 DE= -5.02D-01 DEPred=-4.61D-01 R= 1.09D+00
 TightC=F SS=  1.41D+00  RLast= 3.14D-01 DXNew= 5.0454D-01 9.4299D-01
 Trust test= 1.09D+00 RLast= 3.14D-01 DXMaxT set to 5.05D-01
 ITU=  1  0
 Use linear search instead of GDIIS.
     Eigenvalues ---    0.00739   0.01395   0.01494   0.01789   0.02633
     Eigenvalues ---    0.02911   0.03064   0.03301   0.03328   0.03367
     Eigenvalues ---    0.03470   0.03694   0.03713   0.04241   0.04401
     Eigenvalues ---    0.04969   0.05006   0.06492   0.07309   0.08076
     Eigenvalues ---    0.08151   0.10817   0.11730   0.12740   0.13727
     Eigenvalues ---    0.15041   0.15968   0.15979   0.16000   0.16072
     Eigenvalues ---    0.17040   0.17781   0.18622   0.19035   0.19542
     Eigenvalues ---    0.19795   0.21296   0.21548   0.21954   0.22064
     Eigenvalues ---    0.23436   0.23807   0.25105   0.34268   0.36074
     Eigenvalues ---    0.40751   0.42125   0.44303   0.45115   0.47561
     Eigenvalues ---    0.48255   0.53780   0.64953   0.73893   0.78856
     Eigenvalues ---    0.86989   0.92811   1.03626   1.57857   7.54862
 RFO step:  Lambda=-1.37365733D+00 EMin= 7.39440028D-03
 Quartic linear search produced a step of  0.27703.
 Maximum step size (   0.505) exceeded in Quadratic search.
    -- Step size scaled by   0.668
 Iteration  1 RMS(Cart)=  0.29903058 RMS(Int)=  0.02363053
 Iteration  2 RMS(Cart)=  0.11699522 RMS(Int)=  0.00347047
 Iteration  3 RMS(Cart)=  0.00344259 RMS(Int)=  0.00047606
 Iteration  4 RMS(Cart)=  0.00002177 RMS(Int)=  0.00047563
 Iteration  5 RMS(Cart)=  0.00000003 RMS(Int)=  0.00047563
 Variable       Old X    -DE/DX   Delta X   Delta X   Delta X     New X
                                 (Linear)    (Quad)   (Total)
    R1        2.65530  -0.06326  -0.00653  -0.01539  -0.02196   2.63334
    R2        3.05673  -0.06542  -0.00858  -0.00923  -0.01774   3.03899
    R3        3.28921   0.04268   0.00698  -0.00177   0.00514   3.29435
    R4        3.14171   0.03859   0.00445   0.00819   0.01268   3.15439
    R5        2.27696   0.13726   0.01232   0.05373   0.06603   2.34299
    R6        2.41148  -0.07610  -0.00964  -0.00745  -0.01709   2.39439
    R7        2.36300   0.17570   0.02078   0.06774   0.08851   2.45151
    R8        2.41099   0.18447   0.02007   0.06705   0.08712   2.49812
    R9        1.90895   0.06200   0.00769   0.01474   0.02243   1.93138
   R10        2.46957   0.21489   0.01487   0.07907   0.09394   2.56352
   R11        1.93589   0.07520   0.01158   0.01287   0.02445   1.96034
   R12        2.51544   0.13375   0.00993   0.04740   0.05734   2.57277
   R13        1.94206   0.04347   0.00545   0.00959   0.01504   1.95710
   R14        2.63927   0.01908   0.00312   0.01175   0.01473   2.65400
   R15        2.22075   0.03283  -0.00219   0.00073  -0.00147   2.21928
   R16        2.61915  -0.03649   0.00734  -0.00900  -0.00182   2.61733
   R17        2.06367  -0.00875  -0.00124  -0.00116  -0.00240   2.06127
   R18        1.56864   2.09860   0.02752   0.28904   0.31694   1.88558
   R19        3.74989   0.23060   0.01216   0.02317   0.03312   3.78301
   R20        2.34246  -0.00468  -0.00029  -0.00177  -0.00207   2.34039
   R21        3.07335  -0.02272   0.00372  -0.00098   0.00297   3.07632
   R22        2.43480   0.10915   0.01226   0.03606   0.04833   2.48313
   R23        3.86447   0.16932   0.01732   0.01317   0.03030   3.89477
   R24        3.50685   0.04060   0.00923   0.01264   0.02409   3.53093
   R25        3.48659   0.09691  -0.00348   0.05971   0.05640   3.54299
   R26        3.45377   0.06333   0.00580   0.01254   0.01834   3.47211
    A1        1.77150   0.00484  -0.00187   0.01586   0.01390   1.78540
    A2        1.99418  -0.03942  -0.00472  -0.00689  -0.01177   1.98241
    A3        1.89475   0.02632   0.00305   0.00418   0.00723   1.90198
    A4        2.72900  -0.00242  -0.00018   0.00012   0.00006   2.72906
    A5        2.39360   0.01354   0.00172   0.00275   0.00459   2.39819
    A6        2.07159   0.05589   0.00850   0.00066   0.00938   2.08097
    A7        1.83773   0.11401   0.01705   0.00367   0.02069   1.85843
    A8        2.20721  -0.06732  -0.00992  -0.00234  -0.01222   2.19499
    A9        2.23823  -0.04669  -0.00714  -0.00132  -0.00847   2.22976
   A10        2.35595  -0.09151   0.01101  -0.09138  -0.08036   2.27559
   A11        2.18282  -0.08410   0.01062  -0.09561  -0.08496   2.09786
   A12        1.73978   0.17368  -0.02191   0.18730   0.16539   1.90517
   A13        1.69952   0.27980  -0.00941   0.19269   0.18309   1.88261
   A14        2.16479  -0.12197   0.00802  -0.09913  -0.09131   2.07348
   A15        2.41768  -0.15854   0.00173  -0.09546  -0.09387   2.32382
   A16        1.93787   0.01593   0.02221  -0.06075  -0.03829   1.89958
   A17        2.16313  -0.02263  -0.01974   0.07123   0.05172   2.21485
   A18        2.18073   0.00698  -0.00258  -0.00941  -0.01263   2.16810
   A19        1.68347  -0.05091  -0.00159   0.01919   0.01687   1.70034
   A20        2.19264   0.03134   0.00073  -0.00993  -0.00890   2.18374
   A21        2.20785   0.03408   0.00056   0.00194   0.00269   2.21054
   A22        2.53011   0.00700   0.00990  -0.01371  -0.00313   2.52698
   A23        1.99355   0.11133  -0.00086   0.00619   0.00648   2.00003
   A24        2.22987   0.05765   0.00480   0.00874   0.01352   2.24339
   A25        2.16336  -0.02557  -0.00044  -0.00253  -0.00301   2.16035
   A26        2.88122   0.18639   0.00211   0.02886   0.03034   2.91156
   A27        2.06910   0.17192   0.00430   0.02400   0.02752   2.09662
   A28        1.83779   0.21870   0.00220   0.03689   0.03839   1.87618
   A29        2.66166   0.22737   0.00327   0.03796   0.04023   2.70189
   A30        1.35657  -0.11273  -0.00369  -0.00823  -0.01237   1.34421
   A31        1.59930   0.23679   0.00363   0.03681   0.04091   1.64021
   A32        2.87199  -0.06238   0.03015  -0.13671  -0.10656   2.76543
   A33        1.79169   0.11929   0.00685   0.01228   0.01950   1.81119
   A34        2.94077  -0.03970  -0.00761   0.01037   0.00282   2.94359
   A35        3.06680  -0.00684  -0.00284   0.00924   0.00503   3.07183
    D1        2.94102  -0.01945  -0.00236  -0.00076  -0.00299   2.93803
    D2        2.92859  -0.00910  -0.00209   0.00492   0.00302   2.93161
    D3       -0.26059  -0.01761  -0.00348   0.00721   0.00422  -0.25636
    D4       -3.05804  -0.01027  -0.00145   0.00078   0.00021  -3.05782
    D5        0.03898   0.00495   0.00029   0.00187   0.00218   0.04117
    D6        3.12553   0.00831  -0.00009   0.00580   0.00558   3.13111
    D7       -0.01274   0.00968   0.00014   0.00538   0.00519  -0.00755
    D8        3.06279   0.00640   0.00156  -0.00350  -0.00217   3.06061
    D9       -0.20438  -0.00847  -0.00371   0.01269   0.00902  -0.19536
   D10       -0.08220   0.00495   0.00131  -0.00307  -0.00179  -0.08399
   D11        2.93381  -0.00992  -0.00395   0.01311   0.00941   2.94322
   D12       -2.81753   0.00859  -0.00186   0.01520   0.01362  -2.80392
   D13        0.28021  -0.00742   0.00329  -0.02127  -0.01834   0.26186
   D14        0.42824   0.03018   0.00143   0.01216   0.01405   0.44229
   D15       -2.75720   0.01417   0.00659  -0.02431  -0.01791  -2.77511
   D16        0.26636   0.00062   0.00000  -0.00016  -0.00013   0.26623
   D17       -2.96522  -0.02093  -0.00256   0.00028  -0.00231  -2.96753
   D18       -2.85488  -0.01827   0.01154  -0.07211  -0.06048  -2.91536
   D19        0.23128  -0.01262   0.00918  -0.05247  -0.04292   0.18835
   D20        0.34159  -0.00356   0.00482  -0.02871  -0.02427   0.31732
   D21       -2.85544   0.00209   0.00246  -0.00907  -0.00671  -2.86215
   D22        2.36445   0.03509  -0.00185   0.03574   0.03343   2.39788
   D23       -0.16356   0.00968  -0.00147   0.01747   0.01574  -0.14782
   D24       -0.72104   0.03050   0.00111   0.01280   0.01396  -0.70709
   D25        3.03414   0.00509   0.00150  -0.00546  -0.00374   3.03040
   D26       -2.04157  -0.04392   0.00584  -0.04997  -0.04461  -2.08617
   D27        1.03690  -0.03741   0.00366  -0.02867  -0.02483   1.01206
   D28        1.54709  -0.12691  -0.00086  -0.02102  -0.02252   1.52457
   D29        0.02052   0.05776   0.00032   0.00604   0.00663   0.02714
   D30       -2.21595  -0.10304  -0.00118  -0.00857  -0.01030  -2.22626
   D31        2.54066   0.08163   0.00001   0.01849   0.01885   2.55950
   D32        0.68990  -0.01809   0.00290  -0.00603  -0.00322   0.68667
   D33        1.56542  -0.00349  -0.00235   0.00738   0.00522   1.57064
   D34        0.33453  -0.08340   0.00008  -0.01592  -0.01584   0.31869
   D35       -2.32402  -0.06729  -0.00615   0.00189  -0.00427  -2.32829
   D36       -2.89721   0.06958   0.00400   0.00965   0.01328  -2.88393
   D37       -0.44509  -0.05467   0.00134  -0.01406  -0.01235  -0.45745
   D38       -2.01428  -0.14975  -0.01132  -0.01039  -0.02128  -2.03556
   D39       -2.59373  -0.06083   0.00282  -0.01551  -0.01229  -2.60602
   D40       -0.63031   0.07777  -0.00308   0.01242   0.00927  -0.62105
   D41       -0.98852  -0.38385  -0.00614  -0.05399  -0.05936  -1.04789
         Item               Value     Threshold  Converged?
 Maximum Force            2.098602     0.000450     NO 
 RMS     Force            0.230120     0.000300     NO 
 Maximum Displacement     1.401449     0.001800     NO 
 RMS     Displacement     0.411601     0.001200     NO 
 Predicted change in Energy=-8.513777D-01
 GradGradGradGradGradGradGradGradGradGradGradGradGradGradGradGradGradGrad

                          Input orientation:                          
 ---------------------------------------------------------------------
 Center     Atomic      Atomic             Coordinates (Angstroms)
 Number     Number       Type             X           Y           Z
 ---------------------------------------------------------------------
      1          8           0        3.153831    0.201219   -0.006041
      2          6           0        4.494103   -0.165929    0.097528
      3          6           0        3.330834   -1.319351   -0.498712
      4          7           0        4.513907   -1.655363   -0.655817
      5          6           0        4.780149   -2.828692   -1.140955
      6          6           0        6.097349   -2.914942   -1.212286
      7          6           0        6.892031   -3.955379   -1.567550
      8          6           0        8.140507   -3.712137   -1.082064
      9          6           0        9.041769   -4.608866   -1.678763
     10          6           0       10.063775   -3.704512   -1.915322
     11          6           0       11.992654   -2.975074   -0.903993
     12          8           0       12.373163   -1.817038   -0.684891
     13         16           0       12.728614   -4.136743   -1.775198
     14          7           0       10.874660   -3.271028   -1.527806
     15          6           0        9.695151   -1.844261   -1.274138
     16         16           0        7.120815   -0.356414   -0.576684
     17          1           0        2.185319   -1.838027   -0.654284
     18          1           0        4.091285   -3.533501   -1.411667
     19          1           0        6.683864   -2.070772   -1.072619
     20          1           0        6.466938   -4.764071   -2.055294
     21          1           0        8.450134   -2.872603   -0.321468
     22          1           0        8.761537   -5.454217   -2.308565
 ---------------------------------------------------------------------
                    Distance matrix (angstroms):
                    1          2          3          4          5
     1  O    0.000000
     2  C    1.393504   0.000000
     3  C    1.608163   1.743295   0.000000
     4  N    2.391425   1.669232   1.239858   0.000000
     5  C    3.621229   2.950588   2.188858   1.297283   0.000000
     6  C    4.453064   3.441378   3.272415   2.098448   1.321947
     7  C    5.804287   4.783562   4.557760   3.431734   2.431348
     8  C    6.429550   5.221426   5.403580   4.190970   3.475047
     9  C    7.784775   6.601224   6.695386   5.501920   4.649695
    10  C    8.163786   6.898867   7.282051   6.048668   5.411414
    11  C    9.435038   8.069857   8.827955   7.598346   7.217881
    12  O    9.462044   8.088135   9.057929   7.860972   7.673677
    13  S   10.659470   9.331754   9.893704   8.653997   8.080307
    14  N    8.601364   7.279757   7.859859   6.620416   6.122776
    15  C    6.970002   5.634639   6.432833   5.221426   5.014388
    16  S    4.046425   2.718541   3.911174   2.913675   3.450983
    17  H    2.348778   2.948155   1.267057   2.335742   2.819824
    18  H    4.099114   3.712206   2.512814   2.068168   1.022043
    19  H    4.331358   3.129333   3.483793   2.248333   2.050182
    20  H    6.311118   5.446983   4.911638   3.928985   2.725245
    21  H    6.131778   4.811634   5.352685   4.133684   3.760622
    22  H    8.290473   7.208763   7.061531   5.933399   4.910005
                    6          7          8          9         10
     6  C    0.000000
     7  C    1.356555   0.000000
     8  C    2.197038   1.361453   0.000000
     9  C    3.428788   2.249619   1.404437   0.000000
    10  C    4.104901   3.200600   2.096028   1.385032   0.000000
    11  C    5.903667   5.236187   3.926067   3.460819   2.296833
    12  O    6.392917   5.949319   4.654517   4.458730   3.226422
    13  S    6.766339   5.843091   4.659554   3.718202   2.703299
    14  N    4.800943   4.041194   2.805148   2.274223   0.997804
    15  C    3.754246   3.521419   2.437780   2.869437   2.001882
    16  S    2.827992   3.739880   3.543453   4.794579   4.654322
    17  H    4.095740   5.241218   6.257759   7.465789   8.194147
    18  H    2.108710   2.836627   4.066540   5.072971   5.996127
    19  H    1.037367   1.959600   2.194534   3.516965   3.847473
    20  H    2.065559   1.035655   2.203310   2.606841   3.752265
    21  H    2.516138   2.269980   1.174391   2.281861   2.415839
    22  H    3.840266   2.508121   2.219195   1.090779   2.216288
                   11         12         13         14         15
    11  C    0.000000
    12  O    1.238483   0.000000
    13  S    1.627916   2.587691   0.000000
    14  N    1.314017   2.251689   2.061021   0.000000
    15  C    2.587327   2.742208   3.835157   1.868490   0.000000
    16  S    5.540696   5.452732   6.868386   4.846747   3.054068
    17  H    9.876185  10.187912  10.849037   8.849926   7.535372
    18  H    7.937329   8.489049   8.665997   6.789444   5.854550
    19  H    5.387897   5.708138   6.426574   4.382988   3.026510
    20  H    5.921109   6.741402   6.299252   4.683528   4.422313
    21  H    3.591557   4.078781   4.692203   2.737210   1.874869
    22  H    4.308026   5.376731   4.214015   3.137067   3.869555
                   16         17         18         19         20
    16  S    0.000000
    17  H    5.153671   0.000000
    18  H    4.468683   2.661009   0.000000
    19  H    1.837362   4.523946   2.995997   0.000000
    20  H    4.694814   5.371854   2.751778   2.875164   0.000000
    21  H    2.857171   6.358382   4.541463   2.080113   3.242973
    22  H    5.628408   7.685058   5.128823   4.158364   2.409488
                   21         22
    21  H    0.000000
    22  H    3.272653   0.000000
 Stoichiometry    C10H6N2O2S2
 Framework group  C1[X(C10H6N2O2S2)]
 Deg. of freedom    60
 Full point group                 C1      NOp   1
 Largest Abelian subgroup         C1      NOp   1
 Largest concise Abelian subgroup C1      NOp   1
                         Standard orientation:                         
 ---------------------------------------------------------------------
 Center     Atomic      Atomic             Coordinates (Angstroms)
 Number     Number       Type             X           Y           Z
 ---------------------------------------------------------------------
      1          8           0        5.568205   -1.030818    0.042035
      2          6           0        4.203601   -1.171547    0.286786
      3          6           0        4.876737    0.420942    0.063311
      4          7           0        3.637638    0.380492    0.047630
      5          6           0        2.968574    1.489034   -0.032563
      6          6           0        1.689537    1.155136   -0.043528
      7          6           0        0.578061    1.932768   -0.031263
      8          6           0       -0.466477    1.161938    0.379001
      9          6           0       -1.664874    1.846568    0.119058
     10          6           0       -2.384049    0.768869   -0.370499
     11          6           0       -3.857662   -0.816317    0.398324
     12          8           0       -3.837108   -2.045175    0.245593
     13         16           0       -5.014781    0.241104   -0.041049
     14          7           0       -2.969604   -0.000323   -0.123354
     15          6           0       -1.389713   -0.968594   -0.363452
     16         16           0        1.581188   -1.664399   -0.233322
     17          1           0        5.781212    1.308242    0.055694
     18          1           0        3.370806    2.427405   -0.079907
     19          1           0        1.410092    0.163778   -0.167021
     20          1           0        0.672570    2.941635   -0.245359
     21          1           0       -0.408613    0.083061    0.839293
     22          1           0       -1.736000    2.882567   -0.214781
 ---------------------------------------------------------------------
 Rotational constants (GHZ):           1.2564926           0.1722495           0.1525802
 Standard basis: 6-31G(2df,p) (6D, 7F)
 There are   534 symmetry adapted cartesian basis functions of A   symmetry.
 There are   486 symmetry adapted basis functions of A   symmetry.
   486 basis functions,   794 primitive gaussians,   534 cartesian basis functions
    64 alpha electrons       64 beta electrons
       nuclear repulsion energy      1154.7005147224 Hartrees.
 NAtoms=   22 NActive=   22 NUniq=   22 SFac= 1.00D+00 NAtFMM=   60 NAOKFM=F Big=F
 Integral buffers will be    131072 words long.
 Raffenetti 2 integral format.
 Two-electron integral symmetry is turned on.
 One-electron integrals computed using PRISM.
 PrsmSu:  requested number of processors reduced to:  12 ShMem   1 Linda.
 NBasis=   486 RedAO= T EigKep=  1.08D-04  NBF=   486
 NBsUse=   486 1.00D-06 EigRej= -1.00D+00 NBFU=   486
 Initial guess from the checkpoint file:  "Odc1cncccccc2cqdOrsnc-2s1.chk"
 B after Tr=    -0.000000   -0.000000   -0.000000
         Rot=    0.999851    0.008482    0.002623   -0.014775 Ang=   1.98 deg.
 ExpMin= 1.17D-01 ExpMax= 2.19D+04 ExpMxC= 3.30D+03 IAcc=2 IRadAn=         4 AccDes= 0.00D+00
 Harris functional with IExCor=  402 and IRadAn=       4 diagonalized for initial guess.
 HarFok:  IExCor=  402 AccDes= 0.00D+00 IRadAn=         4 IDoV= 1 UseB2=F ITyADJ=14
 ICtDFT=  3500011 ScaDFX=  1.000000  1.000000  1.000000  1.000000
 FoFCou: FMM=F IPFlag=           0 FMFlag=      100000 FMFlg1=           0
         NFxFlg=           0 DoJE=T BraDBF=F KetDBF=T FulRan=T
         wScrn=  0.000000 ICntrl=       500 IOpCl=  0 I1Cent=   200000004 NGrid=           0
         NMat0=    1 NMatS0=      1 NMatT0=    0 NMatD0=    1 NMtDS0=    0 NMtDT0=    0
 Petite list used in FoFCou.
 Requested convergence on RMS density matrix=1.00D-08 within 128 cycles.
 Requested convergence on MAX density matrix=1.00D-06.
 Requested convergence on             energy=1.00D-06.
 No special actions if energy rises.
 Integral accuracy reduced to 1.0D-05 until final iterations.
slurmstepd: error: *** JOB 27449321 ON lewis4-r630-hpc4-node303 CANCELLED AT 2023-05-20T20:26:31 ***
