### Starting Gaussian ###
 Entering Gaussian System, Link 0=g16
 Initial command:
 /cluster/software/gaussian/gaussian-16-A.03/avx2/g16/l1.exe "/local/scratch/linjian/Gau-16887.inp" -scrdir="/local/scratch/linjian/"
 Entering Link 1 = /cluster/software/gaussian/gaussian-16-A.03/avx2/g16/l1.exe PID=     16888.
  
 Copyright (c) 1988,1990,1992,1993,1995,1998,2003,2009,2016,
            Gaussian, Inc.  All Rights Reserved.
  
 This is part of the Gaussian(R) 16 program.  It is based on
 the Gaussian(R) 09 system (copyright 2009, Gaussian, Inc.),
 the Gaussian(R) 03 system (copyright 2003, Gaussian, Inc.),
 the Gaussian(R) 98 system (copyright 1998, Gaussian, Inc.),
 the Gaussian(R) 94 system (copyright 1995, Gaussian, Inc.),
 the Gaussian 92(TM) system (copyright 1992, Gaussian, Inc.),
 the Gaussian 90(TM) system (copyright 1990, Gaussian, Inc.),
 the Gaussian 88(TM) system (copyright 1988, Gaussian, Inc.),
 the Gaussian 86(TM) system (copyright 1986, Carnegie Mellon
 University), and the Gaussian 82(TM) system (copyright 1983,
 Carnegie Mellon University). Gaussian is a federally registered
 trademark of Gaussian, Inc.
  
 This software contains proprietary and confidential information,
 including trade secrets, belonging to Gaussian, Inc.
  
 This software is provided under written license and may be
 used, copied, transmitted, or stored only in accord with that
 written license.
  
 The following legend is applicable only to US Government
 contracts under FAR:
  
                    RESTRICTED RIGHTS LEGEND
  
 Use, reproduction and disclosure by the US Government is
 subject to restrictions as set forth in subparagraphs (a)
 and (c) of the Commercial Computer Software - Restricted
 Rights clause in FAR 52.227-19.
  
 Gaussian, Inc.
 340 Quinnipiac St., Bldg. 40, Wallingford CT 06492
  
  
 ---------------------------------------------------------------
 Warning -- This program may not be used in any manner that
 competes with the business of Gaussian, Inc. or will provide
 assistance to any competitor of Gaussian, Inc.  The licensee
 of this program is prohibited from giving any competitor of
 Gaussian, Inc. access to this program.  By using this program,
 the user acknowledges that Gaussian, Inc. is engaged in the
 business of creating and licensing software in the field of
 computational chemistry and represents and warrants to the
 licensee that it is not a competitor of Gaussian, Inc. and that
 it will not use this program in any manner prohibited above.
 ---------------------------------------------------------------
  

 Cite this work as:
 Gaussian 16, Revision A.03,
 M. J. Frisch, G. W. Trucks, H. B. Schlegel, G. E. Scuseria, 
 M. A. Robb, J. R. Cheeseman, G. Scalmani, V. Barone, 
 G. A. Petersson, H. Nakatsuji, X. Li, M. Caricato, A. V. Marenich, 
 J. Bloino, B. G. Janesko, R. Gomperts, B. Mennucci, H. P. Hratchian, 
 J. V. Ortiz, A. F. Izmaylov, J. L. Sonnenberg, D. Williams-Young, 
 F. Ding, F. Lipparini, F. Egidi, J. Goings, B. Peng, A. Petrone, 
 T. Henderson, D. Ranasinghe, V. G. Zakrzewski, J. Gao, N. Rega, 
 G. Zheng, W. Liang, M. Hada, M. Ehara, K. Toyota, R. Fukuda, 
 J. Hasegawa, M. Ishida, T. Nakajima, Y. Honda, O. Kitao, H. Nakai, 
 T. Vreven, K. Throssell, J. A. Montgomery, Jr., J. E. Peralta, 
 F. Ogliaro, M. J. Bearpark, J. J. Heyd, E. N. Brothers, K. N. Kudin, 
 V. N. Staroverov, T. A. Keith, R. Kobayashi, J. Normand, 
 K. Raghavachari, A. P. Rendell, J. C. Burant, S. S. Iyengar, 
 J. Tomasi, M. Cossi, J. M. Millam, M. Klene, C. Adamo, R. Cammi, 
 J. W. Ochterski, R. L. Martin, K. Morokuma, O. Farkas, 
 J. B. Foresman, and D. J. Fox, Gaussian, Inc., Wallingford CT, 2016.
 
 ******************************************
 Gaussian 16:  ES64L-G16RevA.03 25-Dec-2016
                16-May-2023 
 ******************************************
 %chk=OdC1CdCNdc2ccccc2dCCdCCdNC1.chk
 %NProcShared=20
 Will use up to   20 processors via shared memory.
 -----------------------------
 # opt freq b3lyp/6-31g(2df,p)
 -----------------------------
 1/18=20,19=15,26=3,38=1/1,3;
 2/9=110,12=2,17=6,18=5,40=1/2;
 3/5=1,6=6,7=104,11=2,25=1,30=1,71=1,74=-5/1,2,3;
 4//1;
 5/5=2,38=5/2;
 6/7=2,8=2,9=2,10=2,28=1/1;
 7//1,2,3,16;
 1/18=20,19=15,26=3/3(2);
 2/9=110/2;
 99//99;
 2/9=110/2;
 3/5=1,6=6,7=104,11=2,25=1,30=1,71=1,74=-5/1,2,3;
 4/5=5,16=3,69=1/1;
 5/5=2,38=5/2;
 7//1,2,3,16;
 1/18=20,19=15,26=3/3(-5);
 2/9=110/2;
 6/7=2,8=2,9=2,10=2,19=2,28=1/1;
 99/9=1/99;
 -------------------
 Title Card Required
 -------------------
 Symbolic Z-matrix:
 Charge =  0 Multiplicity = 1
 O                     0.89543  -0.67382   0.38458 
 C                     2.11818  -0.51985   0.46482 
 C                     2.89577  -1.89741   0.36628 
 C                     4.19746  -2.20085   0.435 
 N                     5.04177  -3.2442    0.29269 
 C                     6.31346  -2.87402   0.25619 
 C                     7.21165  -4.03209   0.47978 
 C                     8.50165  -3.89362   0.78748 
 C                     9.18864  -2.6384    0.65813 
 C                     8.55143  -1.52716   0.25963 
 C                     7.07247  -1.43252   0.14391 
 C                     6.5879   -0.14613  -0.02146 
 C                     5.22406   0.43145  -0.23337 
 C                     4.60957   1.67266  -0.35007 
 C                     2.60179   2.06423  -0.63243 
 N                     1.92244   2.46524   0.38516 
 C                     2.77032   0.96287   0.31845 
 H                     2.19484  -2.71516   0.25695 
 H                     4.81635  -1.44201   0.79664 
 H                     6.69596  -4.98438   0.47376 
 H                     9.07551  -4.77558   1.04971 
 H                     10.26746  -2.6509    0.80554 
 H                     9.14269  -0.64394   0.01602 
 H                     7.30918   0.66937  -0.02334 
 H                     4.47616  -0.30876  -0.35326 
 H                     5.06351   2.56274  -0.16968 
 H                     1.72817   0.98369  -1.11547 
 H                     3.34986   1.40442   1.2628 
 H                     3.3603    0.71927  -1.17801 
 
 Add virtual bond connecting atoms H27        and C15        Dist= 2.78D+00.
 Add virtual bond connecting atoms H29        and C14        Dist= 3.36D+00.
 Add virtual bond connecting atoms H29        and C15        Dist= 3.09D+00.
 Add virtual bond connecting atoms H29        and C17        Dist= 3.07D+00.
 Add virtual bond connecting atoms H29        and H25        Dist= 3.26D+00.
 Add virtual bond connecting atoms H29        and H27        Dist= 3.13D+00.

 GradGradGradGradGradGradGradGradGradGradGradGradGradGradGradGradGradGrad
 Berny optimization.
 Initialization pass.
                           ----------------------------
                           !    Initial Parameters    !
                           ! (Angstroms and Degrees)  !
 --------------------------                            --------------------------
 ! Name  Definition              Value          Derivative Info.                !
 --------------------------------------------------------------------------------
 ! R1    R(1,2)                  1.235          estimate D2E/DX2                !
 ! R2    R(2,3)                  1.5849         estimate D2E/DX2                !
 ! R3    R(2,17)                 1.6264         estimate D2E/DX2                !
 ! R4    R(3,4)                  1.3384         estimate D2E/DX2                !
 ! R5    R(3,18)                 1.0826         estimate D2E/DX2                !
 ! R6    R(4,5)                  1.3497         estimate D2E/DX2                !
 ! R7    R(4,19)                 1.0439         estimate D2E/DX2                !
 ! R8    R(5,6)                  1.325          estimate D2E/DX2                !
 ! R9    R(6,7)                  1.4825         estimate D2E/DX2                !
 ! R10   R(6,11)                 1.633          estimate D2E/DX2                !
 ! R11   R(7,8)                  1.3334         estimate D2E/DX2                !
 ! R12   R(7,20)                 1.083          estimate D2E/DX2                !
 ! R13   R(8,9)                  1.4368         estimate D2E/DX2                !
 ! R14   R(8,21)                 1.0844         estimate D2E/DX2                !
 ! R15   R(9,10)                 1.3415         estimate D2E/DX2                !
 ! R16   R(9,22)                 1.0889         estimate D2E/DX2                !
 ! R17   R(10,11)                1.4865         estimate D2E/DX2                !
 ! R18   R(10,23)                1.0904         estimate D2E/DX2                !
 ! R19   R(11,12)                1.3845         estimate D2E/DX2                !
 ! R20   R(12,13)                1.4962         estimate D2E/DX2                !
 ! R21   R(12,24)                1.0887         estimate D2E/DX2                !
 ! R22   R(13,14)                1.3899         estimate D2E/DX2                !
 ! R23   R(13,25)                1.0591         estimate D2E/DX2                !
 ! R24   R(14,26)                1.0153         estimate D2E/DX2                !
 ! R25   R(14,29)                1.7763         estimate D2E/DX2                !
 ! R26   R(15,16)                1.2876         estimate D2E/DX2                !
 ! R27   R(15,17)                1.4648         estimate D2E/DX2                !
 ! R28   R(15,27)                1.4711         estimate D2E/DX2                !
 ! R29   R(15,29)                1.6377         estimate D2E/DX2                !
 ! R30   R(16,17)                1.7264         estimate D2E/DX2                !
 ! R31   R(17,28)                1.1927         estimate D2E/DX2                !
 ! R32   R(17,29)                1.6269         estimate D2E/DX2                !
 ! R33   R(25,29)                1.7269         estimate D2E/DX2                !
 ! R34   R(27,29)                1.6546         estimate D2E/DX2                !
 ! A1    A(1,2,3)              111.9219         estimate D2E/DX2                !
 ! A2    A(1,2,17)             120.3181         estimate D2E/DX2                !
 ! A3    A(3,2,17)             126.1611         estimate D2E/DX2                !
 ! A4    A(2,3,4)              132.1474         estimate D2E/DX2                !
 ! A5    A(2,3,18)             110.1918         estimate D2E/DX2                !
 ! A6    A(4,3,18)             117.6229         estimate D2E/DX2                !
 ! A7    A(3,4,5)              141.1022         estimate D2E/DX2                !
 ! A8    A(3,4,19)             115.4429         estimate D2E/DX2                !
 ! A9    A(5,4,19)             103.1558         estimate D2E/DX2                !
 ! A10   A(4,5,6)              112.7884         estimate D2E/DX2                !
 ! A11   A(5,6,7)              111.0444         estimate D2E/DX2                !
 ! A12   A(5,6,11)             133.9976         estimate D2E/DX2                !
 ! A13   A(7,6,11)             114.7287         estimate D2E/DX2                !
 ! A14   A(6,7,8)              122.6712         estimate D2E/DX2                !
 ! A15   A(6,7,20)             113.4254         estimate D2E/DX2                !
 ! A16   A(8,7,20)             123.5924         estimate D2E/DX2                !
 ! A17   A(7,8,9)              122.1774         estimate D2E/DX2                !
 ! A18   A(7,8,21)             118.902          estimate D2E/DX2                !
 ! A19   A(9,8,21)             118.6387         estimate D2E/DX2                !
 ! A20   A(8,9,10)             121.5542         estimate D2E/DX2                !
 ! A21   A(8,9,22)             116.8402         estimate D2E/DX2                !
 ! A22   A(10,9,22)            121.3528         estimate D2E/DX2                !
 ! A23   A(9,10,11)            123.2602         estimate D2E/DX2                !
 ! A24   A(9,10,23)            118.6691         estimate D2E/DX2                !
 ! A25   A(11,10,23)           118.0682         estimate D2E/DX2                !
 ! A26   A(6,11,10)            113.6338         estimate D2E/DX2                !
 ! A27   A(6,11,12)            131.7362         estimate D2E/DX2                !
 ! A28   A(10,11,12)           114.6241         estimate D2E/DX2                !
 ! A29   A(11,12,13)           133.9965         estimate D2E/DX2                !
 ! A30   A(11,12,24)           117.6642         estimate D2E/DX2                !
 ! A31   A(13,12,24)           108.3308         estimate D2E/DX2                !
 ! A32   A(12,13,14)           139.432          estimate D2E/DX2                !
 ! A33   A(12,13,25)           112.9509         estimate D2E/DX2                !
 ! A34   A(14,13,25)           107.604          estimate D2E/DX2                !
 ! A35   A(13,14,26)           124.7708         estimate D2E/DX2                !
 ! A36   A(13,14,29)            82.5743         estimate D2E/DX2                !
 ! A37   A(26,14,29)           150.2043         estimate D2E/DX2                !
 ! A38   A(16,15,27)           100.075          estimate D2E/DX2                !
 ! A39   A(16,15,29)           139.77           estimate D2E/DX2                !
 ! A40   A(17,15,27)            74.2883         estimate D2E/DX2                !
 ! A41   A(2,17,15)            134.2477         estimate D2E/DX2                !
 ! A42   A(2,17,16)            126.3666         estimate D2E/DX2                !
 ! A43   A(2,17,28)            117.456          estimate D2E/DX2                !
 ! A44   A(2,17,29)             95.2605         estimate D2E/DX2                !
 ! A45   A(15,17,28)           106.9495         estimate D2E/DX2                !
 ! A46   A(16,17,28)            83.4472         estimate D2E/DX2                !
 ! A47   A(16,17,29)           110.1175         estimate D2E/DX2                !
 ! A48   A(28,17,29)           127.4086         estimate D2E/DX2                !
 ! A49   A(13,25,29)            95.4112         estimate D2E/DX2                !
 ! A50   A(14,29,15)            74.3155         estimate D2E/DX2                !
 ! A51   A(14,29,17)            75.2822         estimate D2E/DX2                !
 ! A52   A(14,29,25)            69.0506         estimate D2E/DX2                !
 ! A53   A(14,29,27)           126.1833         estimate D2E/DX2                !
 ! A54   A(15,29,25)           128.9822         estimate D2E/DX2                !
 ! A55   A(17,29,25)            83.3481         estimate D2E/DX2                !
 ! A56   A(17,29,27)            65.3917         estimate D2E/DX2                !
 ! A57   A(25,29,27)           135.6            estimate D2E/DX2                !
 ! D1    D(1,2,3,4)           -178.24           estimate D2E/DX2                !
 ! D2    D(1,2,3,18)            -0.5947         estimate D2E/DX2                !
 ! D3    D(17,2,3,4)            16.2703         estimate D2E/DX2                !
 ! D4    D(17,2,3,18)         -166.0844         estimate D2E/DX2                !
 ! D5    D(1,2,17,15)          -47.8983         estimate D2E/DX2                !
 ! D6    D(1,2,17,16)           13.9655         estimate D2E/DX2                !
 ! D7    D(1,2,17,28)          116.8449         estimate D2E/DX2                !
 ! D8    D(1,2,17,29)         -105.8191         estimate D2E/DX2                !
 ! D9    D(3,2,17,15)          116.4813         estimate D2E/DX2                !
 ! D10   D(3,2,17,16)          178.3451         estimate D2E/DX2                !
 ! D11   D(3,2,17,28)          -78.7755         estimate D2E/DX2                !
 ! D12   D(3,2,17,29)           58.5605         estimate D2E/DX2                !
 ! D13   D(2,3,4,5)           -174.092          estimate D2E/DX2                !
 ! D14   D(2,3,4,19)            13.5832         estimate D2E/DX2                !
 ! D15   D(18,3,4,5)             8.4023         estimate D2E/DX2                !
 ! D16   D(18,3,4,19)         -163.9224         estimate D2E/DX2                !
 ! D17   D(3,4,5,6)            168.4948         estimate D2E/DX2                !
 ! D18   D(19,4,5,6)           -18.6199         estimate D2E/DX2                !
 ! D19   D(4,5,6,7)            164.1785         estimate D2E/DX2                !
 ! D20   D(4,5,6,11)            -9.8591         estimate D2E/DX2                !
 ! D21   D(5,6,7,8)           -164.5803         estimate D2E/DX2                !
 ! D22   D(5,6,7,20)             9.2226         estimate D2E/DX2                !
 ! D23   D(11,6,7,8)            10.7007         estimate D2E/DX2                !
 ! D24   D(11,6,7,20)         -175.4964         estimate D2E/DX2                !
 ! D25   D(5,6,11,10)          174.991          estimate D2E/DX2                !
 ! D26   D(5,6,11,12)           -4.0651         estimate D2E/DX2                !
 ! D27   D(7,6,11,10)            1.1181         estimate D2E/DX2                !
 ! D28   D(7,6,11,12)         -177.938          estimate D2E/DX2                !
 ! D29   D(6,7,8,9)            -13.1469         estimate D2E/DX2                !
 ! D30   D(6,7,8,21)           173.0383         estimate D2E/DX2                !
 ! D31   D(20,7,8,9)           173.6824         estimate D2E/DX2                !
 ! D32   D(20,7,8,21)           -0.1325         estimate D2E/DX2                !
 ! D33   D(7,8,9,10)             2.1794         estimate D2E/DX2                !
 ! D34   D(7,8,9,22)          -172.1178         estimate D2E/DX2                !
 ! D35   D(21,8,9,10)          176.0098         estimate D2E/DX2                !
 ! D36   D(21,8,9,22)            1.7127         estimate D2E/DX2                !
 ! D37   D(8,9,10,11)           10.7274         estimate D2E/DX2                !
 ! D38   D(8,9,10,23)         -169.8473         estimate D2E/DX2                !
 ! D39   D(22,9,10,11)        -175.2321         estimate D2E/DX2                !
 ! D40   D(22,9,10,23)           4.1932         estimate D2E/DX2                !
 ! D41   D(9,10,11,6)          -11.4811         estimate D2E/DX2                !
 ! D42   D(9,10,11,12)         167.7441         estimate D2E/DX2                !
 ! D43   D(23,10,11,6)         169.0904         estimate D2E/DX2                !
 ! D44   D(23,10,11,12)        -11.6845         estimate D2E/DX2                !
 ! D45   D(6,11,12,13)          -3.88           estimate D2E/DX2                !
 ! D46   D(6,11,12,24)         177.3287         estimate D2E/DX2                !
 ! D47   D(10,11,12,13)        177.0712         estimate D2E/DX2                !
 ! D48   D(10,11,12,24)         -1.72           estimate D2E/DX2                !
 ! D49   D(11,12,13,14)        176.2022         estimate D2E/DX2                !
 ! D50   D(11,12,13,25)         -5.341          estimate D2E/DX2                !
 ! D51   D(24,12,13,14)         -4.9256         estimate D2E/DX2                !
 ! D52   D(24,12,13,25)        173.5312         estimate D2E/DX2                !
 ! D53   D(12,13,14,26)         -9.0954         estimate D2E/DX2                !
 ! D54   D(12,13,14,29)        158.0377         estimate D2E/DX2                !
 ! D55   D(25,13,14,26)        172.3954         estimate D2E/DX2                !
 ! D56   D(25,13,14,29)        -20.4715         estimate D2E/DX2                !
 ! D57   D(12,13,25,29)       -157.9502         estimate D2E/DX2                !
 ! D58   D(14,13,25,29)         20.9969         estimate D2E/DX2                !
 ! D59   D(13,14,29,15)        156.4649         estimate D2E/DX2                !
 ! D60   D(13,14,29,17)        101.0594         estimate D2E/DX2                !
 ! D61   D(13,14,29,25)         12.6453         estimate D2E/DX2                !
 ! D62   D(13,14,29,27)        144.5445         estimate D2E/DX2                !
 ! D63   D(26,14,29,15)        -45.1351         estimate D2E/DX2                !
 ! D64   D(26,14,29,17)       -100.5406         estimate D2E/DX2                !
 ! D65   D(26,14,29,25)        171.0454         estimate D2E/DX2                !
 ! D66   D(26,14,29,27)        -57.0554         estimate D2E/DX2                !
 ! D67   D(27,15,17,2)          -1.7422         estimate D2E/DX2                !
 ! D68   D(27,15,17,28)       -167.613          estimate D2E/DX2                !
 ! D69   D(16,15,29,14)        -93.8667         estimate D2E/DX2                !
 ! D70   D(16,15,29,25)        -48.6951         estimate D2E/DX2                !
 ! D71   D(2,17,29,14)        -141.3983         estimate D2E/DX2                !
 ! D72   D(2,17,29,25)         -71.3693         estimate D2E/DX2                !
 ! D73   D(2,17,29,27)          76.2584         estimate D2E/DX2                !
 ! D74   D(16,17,29,14)         86.6986         estimate D2E/DX2                !
 ! D75   D(16,17,29,25)        156.7276         estimate D2E/DX2                !
 ! D76   D(16,17,29,27)        -55.6447         estimate D2E/DX2                !
 ! D77   D(28,17,29,14)        -10.6056         estimate D2E/DX2                !
 ! D78   D(28,17,29,25)         59.4235         estimate D2E/DX2                !
 ! D79   D(28,17,29,27)       -152.9489         estimate D2E/DX2                !
 ! D80   D(13,25,29,14)        -16.6284         estimate D2E/DX2                !
 ! D81   D(13,25,29,15)        -63.6109         estimate D2E/DX2                !
 ! D82   D(13,25,29,17)        -93.3763         estimate D2E/DX2                !
 ! D83   D(13,25,29,27)       -137.4632         estimate D2E/DX2                !
 --------------------------------------------------------------------------------
 Trust Radius=3.00D-01 FncErr=1.00D-07 GrdErr=1.00D-06 EigMax=2.50D+02 EigMin=1.00D-04
 Number of steps in this run=    174 maximum allowed number of steps=    174.
 GradGradGradGradGradGradGradGradGradGradGradGradGradGradGradGradGradGrad

                          Input orientation:                          
 ---------------------------------------------------------------------
 Center     Atomic      Atomic             Coordinates (Angstroms)
 Number     Number       Type             X           Y           Z
 ---------------------------------------------------------------------
      1          8           0        0.895430   -0.673820    0.384580
      2          6           0        2.118180   -0.519850    0.464820
      3          6           0        2.895770   -1.897410    0.366280
      4          6           0        4.197460   -2.200850    0.435000
      5          7           0        5.041770   -3.244200    0.292690
      6          6           0        6.313460   -2.874020    0.256190
      7          6           0        7.211650   -4.032090    0.479780
      8          6           0        8.501650   -3.893620    0.787480
      9          6           0        9.188640   -2.638400    0.658130
     10          6           0        8.551430   -1.527160    0.259630
     11          6           0        7.072470   -1.432520    0.143910
     12          6           0        6.587900   -0.146130   -0.021460
     13          6           0        5.224060    0.431450   -0.233370
     14          6           0        4.609570    1.672660   -0.350070
     15          6           0        2.601790    2.064230   -0.632430
     16          7           0        1.922440    2.465240    0.385160
     17          6           0        2.770320    0.962870    0.318450
     18          1           0        2.194840   -2.715160    0.256950
     19          1           0        4.816350   -1.442010    0.796640
     20          1           0        6.695960   -4.984380    0.473760
     21          1           0        9.075510   -4.775580    1.049710
     22          1           0       10.267460   -2.650900    0.805540
     23          1           0        9.142690   -0.643940    0.016020
     24          1           0        7.309180    0.669370   -0.023340
     25          1           0        4.476160   -0.308760   -0.353260
     26          1           0        5.063510    2.562740   -0.169680
     27          1           0        1.728170    0.983690   -1.115470
     28          1           0        3.349860    1.404420    1.262800
     29          1           0        3.360300    0.719270   -1.178010
 ---------------------------------------------------------------------
                    Distance matrix (angstroms):
                    1          2          3          4          5
     1  O    0.000000
     2  C    1.235015   0.000000
     3  C    2.344966   1.584938   0.000000
     4  C    3.638374   2.673959   1.338355   0.000000
     5  N    4.879286   3.999886   2.534674   1.349700   0.000000
     6  C    5.849138   4.815186   3.556191   2.227686   1.324976
     7  C    7.154137   6.187042   4.816281   3.527150   2.316064
     8  C    8.269463   7.227387   5.965581   4.638509   3.554903
     9  C    8.527118   7.383565   6.343064   5.015288   4.206789
    10  C    7.704423   6.514866   5.668770   4.409271   3.907305
    11  C    6.228111   5.047865   4.208372   2.990108   2.725447
    12  C    5.731277   4.511600   4.104771   3.185033   3.476672
    13  C    4.510047   3.322489   3.347253   2.903382   3.717576
    14  C    4.454269   3.417334   4.024384   3.973695   4.977494
    15  C    3.382734   2.848738   4.096149   4.677230   5.915131
    16  N    3.302794   2.992561   4.469949   5.191396   6.506649
    17  C    2.489647   1.626398   2.863429   3.472670   4.781170
    18  H    2.423185   2.206462   1.082576   2.075260   2.895889
    19  H    4.016656   2.870645   2.020205   1.043861   1.884852
    20  H    7.227380   6.394386   4.897181   3.740594   2.407770
    21  H    9.174995   8.176660   6.851286   5.549998   4.380555
    22  H    9.587544   8.430197   7.423106   6.097930   5.284208
    23  H    8.255545   7.039926   6.381056   5.201424   4.863686
    24  H    6.565573   5.347806   5.120386   4.258056   4.533989
    25  H    3.674140   2.504772   2.353546   2.068582   3.058427
    26  H    5.306168   4.310443   4.987914   4.879290   5.825359
    27  H    2.385570   2.215865   3.443778   4.317713   5.553189
    28  H    3.333853   2.420046   3.451380   3.794951   5.041165
    29  H    3.233879   2.403575   3.073700   3.439439   4.549659
                    6          7          8          9         10
     6  C    0.000000
     7  C    1.482519   0.000000
     8  C    2.471847   1.333399   0.000000
     9  C    2.912685   2.425422   1.436755   0.000000
    10  C    2.612002   2.849237   2.425126   1.341526   0.000000
    11  C    1.632980   2.624870   2.917833   2.489326   1.486496
    12  C    2.755683   3.967492   4.284916   3.665665   2.416962
    13  C    3.514626   4.937842   5.521862   5.092803   3.892376
    14  C    4.893168   6.324843   6.886638   6.369426   5.113594
    15  C    6.241190   7.723531   8.504144   8.195539   7.006573
    16  N    6.914144   8.378544   9.158764   8.883654   7.739414
    17  C    5.222973   6.685886   7.526860   7.367453   6.294835
    18  H    4.121683   5.191564   6.437863   7.005717   6.466652
    19  H    2.141046   3.542086   4.426275   4.535135   3.774447
    20  H    2.155751   1.082972   2.132767   3.427983   3.929503
    21  H    3.445943   2.086042   1.084405   2.175700   3.383950
    22  H    3.998210   3.369240   2.159343   1.088916   2.122632
    23  H    3.610468   3.927283   3.400956   2.095778   1.090418
    24  H    3.691234   4.729309   4.785425   3.864986   2.539291
    25  H    3.213668   4.694683   5.509726   5.353279   4.297436
    26  H    5.594828   6.966210   7.377096   6.689830   5.392326
    27  H    6.147216   7.600752   8.560923   8.480790   7.399469
    28  H    5.301060   6.714327   7.405140   7.127508   6.054489
    29  H    4.867219   6.336922   7.181600   6.972439   5.836188
                   11         12         13         14         15
    11  C    0.000000
    12  C    1.384541   0.000000
    13  C    2.652045   1.496183   0.000000
    14  C    3.994000   2.707355   1.389899   0.000000
    15  C    5.728608   4.598701   3.114726   2.065002   0.000000
    16  N    6.463246   5.362006   3.926777   2.896448   1.287562
    17  C    4.927155   3.989904   2.570555   2.081721   1.464776
    18  H    5.044722   5.096705   4.395195   5.045033   4.878440
    19  H    2.348664   2.342431   2.176465   3.325488   4.386369
    20  H    3.586958   4.864728   5.656654   7.024806   8.226104
    21  H    4.001086   5.363526   6.602509   7.967672   9.566695
    22  H    3.482839   4.527357   6.001341   7.213898   9.113874
    23  H    2.219014   2.603108   4.071157   5.103904   7.109012
    24  H    2.121779   1.088710   2.109133   2.898489   4.947337
    25  H    2.872428   2.143825   1.059075   1.985909   3.036821
    26  H    4.482897   3.111866   2.138277   1.015305   2.553961
    27  H    5.998804   5.107869   3.647508   3.059899   1.471090
    28  H    4.812273   3.812930   2.588015   2.064018   2.141694
    29  H    4.489753   3.536089   2.109215   1.776264   1.637655
                   16         17         18         19         20
    16  N    0.000000
    17  C    1.726403   0.000000
    18  H    5.189141   3.723287   0.000000
    19  H    4.879614   3.193486   2.963864   0.000000
    20  H    8.848230   7.127731   5.045438   4.023129   0.000000
    21  H   10.199878   8.556867   7.226162   5.414534   2.457148
    22  H    9.797498   8.336888   8.091494   5.583556   4.279114
    23  H    7.869897   6.578784   7.254007   4.468053   5.003542
    24  H    5.692889   4.561164   6.139225   3.368159   5.708593
    25  H    3.842112   2.231172   3.371578   1.649926   5.241459
    26  H    3.191187   2.838411   6.022251   4.127092   7.748415
    27  H    2.117693   1.772748   3.972758   4.367727   7.926061
    28  H    1.983209   1.192741   4.395082   3.235747   7.255049
    29  H    2.749428   1.626902   3.900348   3.269626   6.810771
                   21         22         23         24         25
    21  H    0.000000
    22  H    2.448393   0.000000
    23  H    4.259516   2.432352   0.000000
    24  H    5.823988   4.523567   2.255680   0.000000
    25  H    6.563141   6.353550   4.693103   3.015226   0.000000
    26  H    8.451863   7.430625   5.192012   2.940969   2.936698
    27  H    9.583350   9.477341   7.674930   5.695544   3.130949
    28  H    8.427388   8.031681   6.269539   4.227371   2.610591
    29  H    8.235274   7.937341   6.059710   4.114536   1.726905
                   26         27         28         29
    26  H    0.000000
    27  H    3.809516   0.000000
    28  H    2.516009   2.909134   0.000000
    29  H    2.704817   1.654593   2.535171   0.000000
 Stoichiometry    C14H12N2O
 Framework group  C1[X(C14H12N2O)]
 Deg. of freedom    81
 Full point group                 C1      NOp   1
 Largest Abelian subgroup         C1      NOp   1
 Largest concise Abelian subgroup C1      NOp   1
                         Standard orientation:                         
 ---------------------------------------------------------------------
 Center     Atomic      Atomic             Coordinates (Angstroms)
 Number     Number       Type             X           Y           Z
 ---------------------------------------------------------------------
      1          8           0       -3.580128    2.045246   -0.101437
      2          6           0       -2.647347    1.246134   -0.230285
      3          6           0       -1.242133    1.928843    0.036751
      4          6           0        0.009821    1.459208   -0.020260
      5          7           0        1.282000    1.825134    0.243084
      6          6           0        2.128468    0.806736    0.199290
      7          6           0        3.529967    1.282649    0.114603
      8          6           0        4.540087    0.487293   -0.238979
      9          6           0        4.404272   -0.941822   -0.297695
     10          6           0        3.235241   -1.547113   -0.039464
     11          6           0        1.949746   -0.813186    0.096638
     12          6           0        0.823153   -1.618010    0.096583
     13          6           0       -0.640947   -1.356434    0.259540
     14          6           0       -1.847364   -2.045528    0.220451
     15          6           0       -3.745951   -1.280634    0.493470
     16          7           0       -4.474264   -1.101960   -0.553168
     17          6           0       -2.939546   -0.352179   -0.302301
     18          1           0       -1.374763    2.977050    0.272636
     19          1           0        0.121565    0.536861   -0.496112
     20          1           0        3.631635    2.350691    0.262176
     21          1           0        5.521319    0.922846   -0.391983
     22          1           0        5.314119   -1.515609   -0.467065
     23          1           0        3.220420   -2.632137    0.067847
     24          1           0        0.967571   -2.689728   -0.029324
     25          1           0       -0.856245   -0.346893    0.496421
     26          1           0       -1.955700   -3.006141   -0.089918
     27          1           0       -3.896914    0.032477    1.139269
     28          1           0       -2.650777   -0.919111   -1.311177
     29          1           0       -2.400156   -0.670228    1.199269
 ---------------------------------------------------------------------
 Rotational constants (GHZ):           1.0439897           0.2618256           0.2127549
 Standard basis: 6-31G(2df,p) (6D, 7F)
 There are   587 symmetry adapted cartesian basis functions of A   symmetry.
 There are   536 symmetry adapted basis functions of A   symmetry.
   536 basis functions,   832 primitive gaussians,   587 cartesian basis functions
    59 alpha electrons       59 beta electrons
       nuclear repulsion energy      1066.1348362239 Hartrees.
 NAtoms=   29 NActive=   29 NUniq=   29 SFac= 1.00D+00 NAtFMM=   60 NAOKFM=F Big=F
 Integral buffers will be    131072 words long.
 Raffenetti 2 integral format.
 Two-electron integral symmetry is turned on.
 One-electron integrals computed using PRISM.
 PrsmSu:  requested number of processors reduced to:  12 ShMem   1 Linda.
 NBasis=   536 RedAO= T EigKep=  1.46D-04  NBF=   536
 NBsUse=   536 1.00D-06 EigRej= -1.00D+00 NBFU=   536
 ExpMin= 1.61D-01 ExpMax= 5.48D+03 ExpMxC= 8.25D+02 IAcc=3 IRadAn=         5 AccDes= 0.00D+00
 Harris functional with IExCor=  402 and IRadAn=       5 diagonalized for initial guess.
 HarFok:  IExCor=  402 AccDes= 0.00D+00 IRadAn=         5 IDoV= 1 UseB2=F ITyADJ=14
 ICtDFT=  3500011 ScaDFX=  1.000000  1.000000  1.000000  1.000000
 FoFCou: FMM=F IPFlag=           0 FMFlag=      100000 FMFlg1=           0
         NFxFlg=           0 DoJE=T BraDBF=F KetDBF=T FulRan=T
         wScrn=  0.000000 ICntrl=       500 IOpCl=  0 I1Cent=   200000004 NGrid=           0
         NMat0=    1 NMatS0=      1 NMatT0=    0 NMatD0=    1 NMtDS0=    0 NMtDT0=    0
 Petite list used in FoFCou.
 Requested convergence on RMS density matrix=1.00D-08 within 128 cycles.
 Requested convergence on MAX density matrix=1.00D-06.
 Requested convergence on             energy=1.00D-06.
 No special actions if energy rises.
 Integral accuracy reduced to 1.0D-05 until final iterations.
 EnCoef did     4 forward-backward iterations
 Initial convergence to 1.0D-05 achieved.  Increase integral accuracy.
 SCF Done:  E(RB3LYP) =  -724.785711730     A.U. after   21 cycles
            NFock= 21  Conv=0.42D-08     -V/T= 2.0082

 **********************************************************************

            Population analysis using the SCF density.

 **********************************************************************

 Orbital symmetries:
       Occupied  (A) (A) (A) (A) (A) (A) (A) (A) (A) (A) (A) (A)
                 (A) (A) (A) (A) (A) (A) (A) (A) (A) (A) (A) (A)
                 (A) (A) (A) (A) (A) (A) (A) (A) (A) (A) (A) (A)
                 (A) (A) (A) (A) (A) (A) (A) (A) (A) (A) (A) (A)
                 (A) (A) (A) (A) (A) (A) (A) (A) (A) (A) (A)
       Virtual   (A) (A) (A) (A) (A) (A) (A) (A) (A) (A) (A) (A)
                 (A) (A) (A) (A) (A) (A) (A) (A) (A) (A) (A) (A)
                 (A) (A) (A) (A) (A) (A) (A) (A) (A) (A) (A) (A)
                 (A) (A) (A) (A) (A) (A) (A) (A) (A) (A) (A) (A)
                 (A) (A) (A) (A) (A) (A) (A) (A) (A) (A) (A) (A)
                 (A) (A) (A) (A) (A) (A) (A) (A) (A) (A) (A) (A)
                 (A) (A) (A) (A) (A) (A) (A) (A) (A) (A) (A) (A)
                 (A) (A) (A) (A) (A) (A) (A) (A) (A) (A) (A) (A)
                 (A) (A) (A) (A) (A) (A) (A) (A) (A) (A) (A) (A)
                 (A) (A) (A) (A) (A) (A) (A) (A) (A) (A) (A) (A)
                 (A) (A) (A) (A) (A) (A) (A) (A) (A) (A) (A) (A)
                 (A) (A) (A) (A) (A) (A) (A) (A) (A) (A) (A) (A)
                 (A) (A) (A) (A) (A) (A) (A) (A) (A) (A) (A) (A)
                 (A) (A) (A) (A) (A) (A) (A) (A) (A) (A) (A) (A)
                 (A) (A) (A) (A) (A) (A) (A) (A) (A) (A) (A) (A)
                 (A) (A) (A) (A) (A) (A) (A) (A) (A) (A) (A) (A)
                 (A) (A) (A) (A) (A) (A) (A) (A) (A) (A) (A) (A)
                 (A) (A) (A) (A) (A) (A) (A) (A) (A) (A) (A) (A)
                 (A) (A) (A) (A) (A) (A) (A) (A) (A) (A) (A) (A)
                 (A) (A) (A) (A) (A) (A) (A) (A) (A) (A) (A) (A)
                 (A) (A) (A) (A) (A) (A) (A) (A) (A) (A) (A) (A)
                 (A) (A) (A) (A) (A) (A) (A) (A) (A) (A) (A) (A)
                 (A) (A) (A) (A) (A) (A) (A) (A) (A) (A) (A) (A)
                 (A) (A) (A) (A) (A) (A) (A) (A) (A) (A) (A) (A)
                 (A) (A) (A) (A) (A) (A) (A) (A) (A) (A) (A) (A)
                 (A) (A) (A) (A) (A) (A) (A) (A) (A) (A) (A) (A)
                 (A) (A) (A) (A) (A) (A) (A) (A) (A) (A) (A) (A)
                 (A) (A) (A) (A) (A) (A) (A) (A) (A) (A) (A) (A)
                 (A) (A) (A) (A) (A) (A) (A) (A) (A) (A) (A) (A)
                 (A) (A) (A) (A) (A) (A) (A) (A) (A) (A) (A) (A)
                 (A) (A) (A) (A) (A) (A) (A) (A) (A) (A) (A) (A)
                 (A) (A) (A) (A) (A) (A) (A) (A) (A) (A) (A) (A)
                 (A) (A) (A) (A) (A) (A) (A) (A) (A) (A) (A) (A)
                 (A) (A) (A) (A) (A) (A) (A) (A) (A) (A) (A) (A)
                 (A) (A) (A) (A) (A) (A) (A) (A) (A) (A) (A) (A)
                 (A) (A) (A) (A) (A) (A) (A) (A) (A) (A) (A) (A)
                 (A) (A) (A) (A) (A) (A) (A) (A) (A) (A) (A) (A)
                 (A) (A) (A) (A) (A) (A) (A) (A) (A) (A) (A) (A)
                 (A) (A) (A) (A) (A) (A) (A) (A) (A) (A) (A) (A)
                 (A) (A) (A) (A) (A) (A) (A) (A) (A)
 The electronic state is 1-A.
 Alpha  occ. eigenvalues --  -19.14513 -14.35332 -14.34893 -10.30649 -10.27997
 Alpha  occ. eigenvalues --  -10.27785 -10.26044 -10.26018 -10.25227 -10.25025
 Alpha  occ. eigenvalues --  -10.22848 -10.22442 -10.22272 -10.21606 -10.21539
 Alpha  occ. eigenvalues --  -10.21033 -10.20948  -1.04180  -0.97216  -0.96344
 Alpha  occ. eigenvalues --   -0.86783  -0.83531  -0.79321  -0.78823  -0.74720
 Alpha  occ. eigenvalues --   -0.71608  -0.67773  -0.64651  -0.61698  -0.61182
 Alpha  occ. eigenvalues --   -0.58935  -0.56389  -0.54438  -0.53933  -0.51219
 Alpha  occ. eigenvalues --   -0.50802  -0.48857  -0.47134  -0.45353  -0.44813
 Alpha  occ. eigenvalues --   -0.43572  -0.43245  -0.41688  -0.40602  -0.39558
 Alpha  occ. eigenvalues --   -0.39023  -0.38047  -0.37271  -0.36516  -0.35684
 Alpha  occ. eigenvalues --   -0.33832  -0.33152  -0.29467  -0.28987  -0.27672
 Alpha  occ. eigenvalues --   -0.26369  -0.23279  -0.22534  -0.20046
 Alpha virt. eigenvalues --   -0.13612  -0.08841  -0.07947  -0.05602  -0.02650
 Alpha virt. eigenvalues --   -0.01079   0.02400   0.03608   0.05319   0.06689
 Alpha virt. eigenvalues --    0.07216   0.08806   0.09503   0.12125   0.12882
 Alpha virt. eigenvalues --    0.13589   0.14570   0.15083   0.15898   0.16507
 Alpha virt. eigenvalues --    0.17820   0.19416   0.20840   0.21963   0.23661
 Alpha virt. eigenvalues --    0.24147   0.24962   0.27714   0.29330   0.30384
 Alpha virt. eigenvalues --    0.32445   0.33415   0.34728   0.36532   0.37641
 Alpha virt. eigenvalues --    0.38407   0.39837   0.41793   0.43063   0.43662
 Alpha virt. eigenvalues --    0.44258   0.44718   0.45733   0.46866   0.47289
 Alpha virt. eigenvalues --    0.47690   0.48423   0.49372   0.49954   0.50900
 Alpha virt. eigenvalues --    0.51540   0.52127   0.52491   0.52629   0.54133
 Alpha virt. eigenvalues --    0.54514   0.55026   0.56047   0.57342   0.58304
 Alpha virt. eigenvalues --    0.58601   0.59297   0.59793   0.60919   0.63105
 Alpha virt. eigenvalues --    0.63574   0.64020   0.64587   0.65333   0.65941
 Alpha virt. eigenvalues --    0.66693   0.68197   0.68585   0.69572   0.70526
 Alpha virt. eigenvalues --    0.70793   0.71259   0.72040   0.73767   0.74086
 Alpha virt. eigenvalues --    0.74571   0.75431   0.75757   0.77098   0.77348
 Alpha virt. eigenvalues --    0.77656   0.78636   0.79075   0.79509   0.79646
 Alpha virt. eigenvalues --    0.80409   0.81044   0.81760   0.82745   0.83647
 Alpha virt. eigenvalues --    0.85007   0.85769   0.86044   0.87000   0.87925
 Alpha virt. eigenvalues --    0.89685   0.90664   0.91483   0.92362   0.93038
 Alpha virt. eigenvalues --    0.94038   0.94392   0.94599   0.95541   0.96898
 Alpha virt. eigenvalues --    0.97410   0.98306   0.98980   1.00682   1.02750
 Alpha virt. eigenvalues --    1.03652   1.04464   1.05172   1.06004   1.07343
 Alpha virt. eigenvalues --    1.09130   1.12479   1.12730   1.15027   1.15951
 Alpha virt. eigenvalues --    1.16612   1.19267   1.19998   1.20876   1.21968
 Alpha virt. eigenvalues --    1.23234   1.24185   1.25232   1.25859   1.27988
 Alpha virt. eigenvalues --    1.28395   1.29327   1.30472   1.32831   1.33800
 Alpha virt. eigenvalues --    1.34488   1.36481   1.37459   1.38108   1.39256
 Alpha virt. eigenvalues --    1.40465   1.41172   1.41695   1.42212   1.42938
 Alpha virt. eigenvalues --    1.44274   1.44604   1.46883   1.48312   1.49131
 Alpha virt. eigenvalues --    1.50087   1.50775   1.51289   1.52837   1.54189
 Alpha virt. eigenvalues --    1.54573   1.55158   1.56478   1.58658   1.59421
 Alpha virt. eigenvalues --    1.60020   1.61103   1.61698   1.61980   1.63793
 Alpha virt. eigenvalues --    1.65899   1.66629   1.67523   1.69888   1.70895
 Alpha virt. eigenvalues --    1.72432   1.74585   1.75617   1.76902   1.79508
 Alpha virt. eigenvalues --    1.80312   1.81176   1.83432   1.85083   1.87796
 Alpha virt. eigenvalues --    1.88359   1.90016   1.90889   1.92335   1.92837
 Alpha virt. eigenvalues --    1.95350   1.98233   2.00714   2.03022   2.04639
 Alpha virt. eigenvalues --    2.06130   2.06941   2.07568   2.11313   2.13023
 Alpha virt. eigenvalues --    2.14993   2.17569   2.18762   2.20633   2.21101
 Alpha virt. eigenvalues --    2.22549   2.23040   2.25847   2.26343   2.28190
 Alpha virt. eigenvalues --    2.28711   2.31130   2.35144   2.35758   2.37066
 Alpha virt. eigenvalues --    2.39500   2.41765   2.44217   2.44756   2.46608
 Alpha virt. eigenvalues --    2.48389   2.52293   2.53666   2.56306   2.58432
 Alpha virt. eigenvalues --    2.60260   2.61973   2.65386   2.66520   2.67646
 Alpha virt. eigenvalues --    2.69542   2.72151   2.73161   2.76001   2.77134
 Alpha virt. eigenvalues --    2.78753   2.80262   2.81036   2.82924   2.83845
 Alpha virt. eigenvalues --    2.84311   2.85022   2.87720   2.89231   2.89622
 Alpha virt. eigenvalues --    2.91839   2.91945   2.93139   2.93994   2.94825
 Alpha virt. eigenvalues --    2.96524   2.97475   2.97827   2.99715   3.00301
 Alpha virt. eigenvalues --    3.01529   3.03622   3.04641   3.04942   3.05724
 Alpha virt. eigenvalues --    3.06551   3.07421   3.08817   3.09936   3.10598
 Alpha virt. eigenvalues --    3.11349   3.12406   3.12829   3.14190   3.14940
 Alpha virt. eigenvalues --    3.16607   3.17251   3.18896   3.19632   3.20426
 Alpha virt. eigenvalues --    3.21244   3.22441   3.23419   3.24229   3.26548
 Alpha virt. eigenvalues --    3.26976   3.28435   3.29432   3.30686   3.30958
 Alpha virt. eigenvalues --    3.31549   3.33579   3.34149   3.36011   3.36218
 Alpha virt. eigenvalues --    3.37056   3.38621   3.39393   3.40979   3.41416
 Alpha virt. eigenvalues --    3.43280   3.44584   3.45317   3.46813   3.47874
 Alpha virt. eigenvalues --    3.48306   3.50276   3.51453   3.52567   3.53893
 Alpha virt. eigenvalues --    3.54951   3.55624   3.57801   3.59024   3.60779
 Alpha virt. eigenvalues --    3.62553   3.65308   3.66156   3.68166   3.69746
 Alpha virt. eigenvalues --    3.70092   3.71867   3.73428   3.74525   3.77335
 Alpha virt. eigenvalues --    3.78481   3.79366   3.81452   3.84537   3.86111
 Alpha virt. eigenvalues --    3.88745   3.90005   3.90746   3.94287   3.94525
 Alpha virt. eigenvalues --    3.95529   3.97130   3.97749   3.98345   3.99167
 Alpha virt. eigenvalues --    4.00306   4.05005   4.07230   4.09492   4.10613
 Alpha virt. eigenvalues --    4.12022   4.12806   4.15860   4.16410   4.18066
 Alpha virt. eigenvalues --    4.19164   4.20520   4.22589   4.24678   4.25711
 Alpha virt. eigenvalues --    4.26606   4.27308   4.29388   4.30032   4.31814
 Alpha virt. eigenvalues --    4.32473   4.33565   4.35354   4.35507   4.36499
 Alpha virt. eigenvalues --    4.37269   4.37952   4.38792   4.39609   4.42146
 Alpha virt. eigenvalues --    4.42708   4.44081   4.44780   4.45109   4.46578
 Alpha virt. eigenvalues --    4.46776   4.47363   4.48693   4.49975   4.51142
 Alpha virt. eigenvalues --    4.51755   4.52960   4.54479   4.54795   4.55541
 Alpha virt. eigenvalues --    4.56646   4.57999   4.58226   4.59854   4.60956
 Alpha virt. eigenvalues --    4.61843   4.63890   4.64810   4.65973   4.66831
 Alpha virt. eigenvalues --    4.68039   4.68077   4.71245   4.71874   4.73158
 Alpha virt. eigenvalues --    4.73386   4.75423   4.76882   4.78376   4.80857
 Alpha virt. eigenvalues --    4.81796   4.83253   4.86557   4.88292   4.89314
 Alpha virt. eigenvalues --    4.93557   4.93678   4.93783   4.94696   4.95261
 Alpha virt. eigenvalues --    4.98009   5.00607   5.02046   5.02878   5.05439
 Alpha virt. eigenvalues --    5.06596   5.07409   5.08505   5.09185   5.11238
 Alpha virt. eigenvalues --    5.11668   5.12598   5.14441   5.17572   5.18541
 Alpha virt. eigenvalues --    5.21285   5.22118   5.26741   5.29582   5.30476
 Alpha virt. eigenvalues --    5.34118   5.37235   5.41425   5.43023   5.45848
 Alpha virt. eigenvalues --    5.47133   5.47546   5.51845   5.53983   5.57015
 Alpha virt. eigenvalues --    5.60608   5.63527   5.66208   5.69345   5.70708
 Alpha virt. eigenvalues --    5.74149   5.77821   5.80241   5.90533   5.94308
 Alpha virt. eigenvalues --    5.99551   6.01236   6.04758   6.18647   6.36850
 Alpha virt. eigenvalues --    6.49847   6.80318   7.26518   9.59711   9.82955
 Alpha virt. eigenvalues --   10.19294  10.35394  10.50495  10.59155  10.98644
 Alpha virt. eigenvalues --   11.21573  11.32167  11.36163  11.57045  11.64505
 Alpha virt. eigenvalues --   11.81437  11.98266  12.24543  12.40795  12.94746
 Alpha virt. eigenvalues --   13.14692  18.85244
          Condensed to atoms (all electrons):
               1          2          3          4          5          6
     1  O    7.707869   0.685812  -0.058604   0.006496  -0.000021   0.000001
     2  C    0.685812   4.442111   0.373115   0.005637   0.001290  -0.000059
     3  C   -0.058604   0.373115   5.369464   0.393256   0.012300  -0.000888
     4  C    0.006496   0.005637   0.393256   4.744657   0.460647  -0.091760
     5  N   -0.000021   0.001290   0.012300   0.460647   6.478198   0.581089
     6  C    0.000001  -0.000059  -0.000888  -0.091760   0.581089   4.680186
     7  C   -0.000000   0.000001  -0.000504   0.000092  -0.036889   0.423415
     8  C   -0.000000  -0.000000   0.000006   0.000061   0.000563   0.003517
     9  C    0.000000   0.000000   0.000000  -0.000061   0.000166  -0.028505
    10  C    0.000000  -0.000000  -0.000009   0.000300   0.003724  -0.024710
    11  C    0.000000  -0.000010   0.001251  -0.002173  -0.048535   0.353948
    12  C    0.000001   0.000176   0.001099  -0.010759  -0.011491  -0.042259
    13  C    0.000161   0.004462  -0.015761  -0.010966   0.005062  -0.006785
    14  C    0.000281  -0.005131   0.003602   0.000327   0.000010   0.000040
    15  C   -0.002714  -0.028668   0.001280   0.000077   0.000000  -0.000001
    16  N    0.000555   0.001968   0.000520   0.000011   0.000000   0.000000
    17  C   -0.061788   0.298250  -0.052135  -0.001196  -0.000043  -0.000000
    18  H    0.001971  -0.035944   0.347417  -0.032300  -0.007657   0.000086
    19  H    0.000005  -0.012105  -0.062258   0.373821  -0.103167  -0.004822
    20  H   -0.000000  -0.000000  -0.000007   0.000118   0.001008  -0.029368
    21  H   -0.000000   0.000000  -0.000000   0.000002  -0.000080   0.003940
    22  H    0.000000  -0.000000  -0.000000   0.000000   0.000002   0.000820
    23  H    0.000000   0.000000  -0.000000  -0.000007  -0.000042   0.001523
    24  H    0.000000  -0.000001  -0.000024  -0.000078  -0.000167   0.003453
    25  H   -0.000610   0.000153   0.009787   0.003677  -0.003557   0.003051
    26  H   -0.000000  -0.000088  -0.000062  -0.000030   0.000001   0.000002
    27  H    0.017685  -0.011316   0.000249   0.000096   0.000004   0.000000
    28  H    0.001437  -0.028337   0.000047   0.000369   0.000001   0.000004
    29  H   -0.000647  -0.012742  -0.005122  -0.001880   0.000005   0.000002
               7          8          9         10         11         12
     1  O   -0.000000  -0.000000   0.000000   0.000000   0.000000   0.000001
     2  C    0.000001  -0.000000   0.000000  -0.000000  -0.000010   0.000176
     3  C   -0.000504   0.000006   0.000000  -0.000009   0.001251   0.001099
     4  C    0.000092   0.000061  -0.000061   0.000300  -0.002173  -0.010759
     5  N   -0.036889   0.000563   0.000166   0.003724  -0.048535  -0.011491
     6  C    0.423415   0.003517  -0.028505  -0.024710   0.353948  -0.042259
     7  C    4.845235   0.601920   0.003891  -0.029023  -0.031648   0.002786
     8  C    0.601920   4.766105   0.457313   0.003117  -0.027650   0.001149
     9  C    0.003891   0.457313   4.776952   0.604825   0.009201  -0.001064
    10  C   -0.029023   0.003117   0.604825   4.861227   0.397439  -0.026536
    11  C   -0.031648  -0.027650   0.009201   0.397439   4.811868   0.499992
    12  C    0.002786   0.001149  -0.001064  -0.026536   0.499992   5.046455
    13  C    0.000086  -0.000006  -0.000208   0.005547   0.001351   0.421607
    14  C    0.000001   0.000000   0.000001  -0.000126   0.004072  -0.004341
    15  C   -0.000000   0.000000   0.000000   0.000000   0.000001  -0.000061
    16  N    0.000000   0.000000  -0.000000  -0.000000   0.000000  -0.000030
    17  C    0.000000  -0.000000   0.000000  -0.000001   0.000018   0.003242
    18  H    0.000003   0.000000   0.000000  -0.000000  -0.000008  -0.000013
    19  H    0.002239   0.000035  -0.000017  -0.001752   0.008654   0.007360
    20  H    0.359936  -0.042375   0.004495   0.000413   0.004123  -0.000020
    21  H   -0.035652   0.365721  -0.045257   0.003821   0.000463   0.000004
    22  H    0.002770  -0.044352   0.366212  -0.034679   0.003693  -0.000229
    23  H    0.000942   0.003678  -0.036085   0.365043  -0.045984  -0.003546
    24  H   -0.000015  -0.000048   0.000824  -0.017807  -0.044669   0.361646
    25  H   -0.000023  -0.000001   0.000003  -0.000119  -0.018048  -0.031660
    26  H    0.000000  -0.000000  -0.000000  -0.000006   0.000006  -0.006619
    27  H    0.000000   0.000000  -0.000000  -0.000000   0.000002  -0.000092
    28  H    0.000000  -0.000000  -0.000000  -0.000001   0.000075  -0.000800
    29  H    0.000000  -0.000000   0.000000  -0.000005   0.000013   0.001235
              13         14         15         16         17         18
     1  O    0.000161   0.000281  -0.002714   0.000555  -0.061788   0.001971
     2  C    0.004462  -0.005131  -0.028668   0.001968   0.298250  -0.035944
     3  C   -0.015761   0.003602   0.001280   0.000520  -0.052135   0.347417
     4  C   -0.010966   0.000327   0.000077   0.000011  -0.001196  -0.032300
     5  N    0.005062   0.000010   0.000000   0.000000  -0.000043  -0.007657
     6  C   -0.006785   0.000040  -0.000001   0.000000  -0.000000   0.000086
     7  C    0.000086   0.000001  -0.000000   0.000000   0.000000   0.000003
     8  C   -0.000006   0.000000   0.000000   0.000000  -0.000000   0.000000
     9  C   -0.000208   0.000001   0.000000  -0.000000   0.000000   0.000000
    10  C    0.005547  -0.000126   0.000000  -0.000000  -0.000001  -0.000000
    11  C    0.001351   0.004072   0.000001   0.000000   0.000018  -0.000008
    12  C    0.421607  -0.004341  -0.000061  -0.000030   0.003242  -0.000013
    13  C    4.885823   0.542873   0.007621   0.001526  -0.081905   0.000012
    14  C    0.542873   5.512269   0.212415  -0.038027   0.006909   0.000009
    15  C    0.007621   0.212415   5.317480   0.572738   0.113018  -0.000022
    16  N    0.001526  -0.038027   0.572738   6.642370   0.090164  -0.000003
    17  C   -0.081905   0.006909   0.113018   0.090164   5.402837   0.003489
    18  H    0.000012   0.000009  -0.000022  -0.000003   0.003489   0.590197
    19  H   -0.011779   0.002058   0.000066  -0.000008   0.004143   0.008712
    20  H   -0.000004  -0.000000   0.000000   0.000000  -0.000000   0.000003
    21  H    0.000000   0.000000  -0.000000   0.000000  -0.000000  -0.000000
    22  H    0.000001   0.000000   0.000000  -0.000000   0.000000   0.000000
    23  H    0.000349  -0.000008   0.000000  -0.000000  -0.000000   0.000000
    24  H   -0.048457  -0.008761  -0.000018   0.000002  -0.000099   0.000000
    25  H    0.321236  -0.092515  -0.008925   0.000315  -0.006289  -0.000428
    26  H   -0.045355   0.342884  -0.026578   0.003476   0.001120  -0.000000
    27  H    0.000605  -0.035137   0.190763  -0.053918  -0.048065  -0.000298
    28  H   -0.016443  -0.042487  -0.062904  -0.006758   0.347854  -0.000077
    29  H   -0.018154  -0.103666  -0.112596  -0.011413   0.184451  -0.000111
              19         20         21         22         23         24
     1  O    0.000005  -0.000000  -0.000000   0.000000   0.000000   0.000000
     2  C   -0.012105  -0.000000   0.000000  -0.000000   0.000000  -0.000001
     3  C   -0.062258  -0.000007  -0.000000  -0.000000  -0.000000  -0.000024
     4  C    0.373821   0.000118   0.000002   0.000000  -0.000007  -0.000078
     5  N   -0.103167   0.001008  -0.000080   0.000002  -0.000042  -0.000167
     6  C   -0.004822  -0.029368   0.003940   0.000820   0.001523   0.003453
     7  C    0.002239   0.359936  -0.035652   0.002770   0.000942  -0.000015
     8  C    0.000035  -0.042375   0.365721  -0.044352   0.003678  -0.000048
     9  C   -0.000017   0.004495  -0.045257   0.366212  -0.036085   0.000824
    10  C   -0.001752   0.000413   0.003821  -0.034679   0.365043  -0.017807
    11  C    0.008654   0.004123   0.000463   0.003693  -0.045984  -0.044669
    12  C    0.007360  -0.000020   0.000004  -0.000229  -0.003546   0.361646
    13  C   -0.011779  -0.000004   0.000000   0.000001   0.000349  -0.048457
    14  C    0.002058  -0.000000   0.000000   0.000000  -0.000008  -0.008761
    15  C    0.000066   0.000000  -0.000000   0.000000   0.000000  -0.000018
    16  N   -0.000008   0.000000   0.000000  -0.000000  -0.000000   0.000002
    17  C    0.004143  -0.000000  -0.000000   0.000000  -0.000000  -0.000099
    18  H    0.008712   0.000003  -0.000000   0.000000   0.000000   0.000000
    19  H    0.693792   0.000175  -0.000001   0.000001   0.000022   0.000389
    20  H    0.000175   0.581497  -0.007824  -0.000181   0.000021   0.000002
    21  H   -0.000001  -0.007824   0.606761  -0.005664  -0.000231  -0.000000
    22  H    0.000001  -0.000181  -0.005664   0.605524  -0.007272  -0.000029
    23  H    0.000022   0.000021  -0.000231  -0.007272   0.600225   0.005765
    24  H    0.000389   0.000002  -0.000000  -0.000029   0.005765   0.620723
    25  H   -0.022283   0.000003  -0.000000  -0.000000   0.000007   0.007453
    26  H   -0.000063   0.000000  -0.000000   0.000000   0.000000   0.002252
    27  H   -0.000069   0.000000   0.000000  -0.000000  -0.000000   0.000001
    28  H    0.000024   0.000000   0.000000   0.000000  -0.000000   0.000007
    29  H    0.000356   0.000000  -0.000000   0.000000  -0.000000   0.000010
              25         26         27         28         29
     1  O   -0.000610  -0.000000   0.017685   0.001437  -0.000647
     2  C    0.000153  -0.000088  -0.011316  -0.028337  -0.012742
     3  C    0.009787  -0.000062   0.000249   0.000047  -0.005122
     4  C    0.003677  -0.000030   0.000096   0.000369  -0.001880
     5  N   -0.003557   0.000001   0.000004   0.000001   0.000005
     6  C    0.003051   0.000002   0.000000   0.000004   0.000002
     7  C   -0.000023   0.000000   0.000000   0.000000   0.000000
     8  C   -0.000001  -0.000000   0.000000  -0.000000  -0.000000
     9  C    0.000003  -0.000000  -0.000000  -0.000000   0.000000
    10  C   -0.000119  -0.000006  -0.000000  -0.000001  -0.000005
    11  C   -0.018048   0.000006   0.000002   0.000075   0.000013
    12  C   -0.031660  -0.006619  -0.000092  -0.000800   0.001235
    13  C    0.321236  -0.045355   0.000605  -0.016443  -0.018154
    14  C   -0.092515   0.342884  -0.035137  -0.042487  -0.103666
    15  C   -0.008925  -0.026578   0.190763  -0.062904  -0.112596
    16  N    0.000315   0.003476  -0.053918  -0.006758  -0.011413
    17  C   -0.006289   0.001120  -0.048065   0.347854   0.184451
    18  H   -0.000428  -0.000000  -0.000298  -0.000077  -0.000111
    19  H   -0.022283  -0.000063  -0.000069   0.000024   0.000356
    20  H    0.000003   0.000000   0.000000   0.000000   0.000000
    21  H   -0.000000  -0.000000   0.000000   0.000000  -0.000000
    22  H   -0.000000   0.000000  -0.000000   0.000000   0.000000
    23  H    0.000007   0.000000  -0.000000  -0.000000  -0.000000
    24  H    0.007453   0.002252   0.000001   0.000007   0.000010
    25  H    0.687973   0.009161   0.001884   0.001962   0.025454
    26  H    0.009161   0.576904   0.000879   0.006707   0.009111
    27  H    0.001884   0.000879   0.707715   0.015524   0.059547
    28  H    0.001962   0.006707   0.015524   0.613770   0.015955
    29  H    0.025454   0.009111   0.059547   0.015955   0.728785
 Mulliken charges:
               1
     1  O   -0.297890
     2  C    0.321427
     3  C   -0.318022
     4  C    0.161566
     5  N   -0.332419
     6  C    0.174080
     7  C   -0.109564
     8  C   -0.088755
     9  C   -0.112685
    10  C   -0.110683
    11  C    0.122555
    12  C   -0.207231
    13  C    0.057499
    14  C   -0.297549
    15  C   -0.172972
    16  N   -0.203486
    17  C   -0.203974
    18  H    0.124960
    19  H    0.116472
    20  H    0.127985
    21  H    0.113998
    22  H    0.113382
    23  H    0.115599
    24  H    0.117646
    25  H    0.112340
    26  H    0.126302
    27  H    0.153940
    28  H    0.154071
    29  H    0.241411
 Sum of Mulliken charges =  -0.00000
 Mulliken charges with hydrogens summed into heavy atoms:
               1
     1  O   -0.297890
     2  C    0.321427
     3  C   -0.193062
     4  C    0.278038
     5  N   -0.332419
     6  C    0.174080
     7  C    0.018421
     8  C    0.025243
     9  C    0.000697
    10  C    0.004917
    11  C    0.122555
    12  C   -0.089586
    13  C    0.169838
    14  C   -0.171247
    15  C   -0.019032
    16  N   -0.203486
    17  C    0.191507
 Electronic spatial extent (au):  <R**2>=           4801.3857
 Charge=             -0.0000 electrons
 Dipole moment (field-independent basis, Debye):
    X=              7.0988    Y=             -3.0231    Z=              0.3355  Tot=              7.7230
 Quadrupole moment (field-independent basis, Debye-Ang):
   XX=           -111.1588   YY=            -98.7196   ZZ=           -101.5315
   XY=             -0.2219   XZ=             -5.0699   YZ=              0.8310
 Traceless Quadrupole moment (field-independent basis, Debye-Ang):
   XX=             -7.3555   YY=              5.0837   ZZ=              2.2718
   XY=             -0.2219   XZ=             -5.0699   YZ=              0.8310
 Octapole moment (field-independent basis, Debye-Ang**2):
  XXX=            215.4321  YYY=            -18.1665  ZZZ=             -3.4745  XYY=             27.4979
  XXY=             -5.4491  XXZ=              9.3746  XZZ=             -5.1945  YZZ=              8.0805
  YYZ=             -3.9597  XYZ=             -1.8688
 Hexadecapole moment (field-independent basis, Debye-Ang**3):
 XXXX=          -5235.6526 YYYY=          -1262.9622 ZZZZ=           -168.0533 XXXY=            -22.2763
 XXXZ=           -132.1994 YYYX=            -20.6592 YYYZ=             12.4246 ZZZX=             12.0507
 ZZZY=              4.4654 XXYY=          -1107.1226 XXZZ=           -921.5115 YYZZ=           -260.0349
 XXYZ=              6.6836 YYXZ=              7.1268 ZZXY=            -20.9180
 N-N= 1.066134836224D+03 E-N=-3.815026862218D+03  KE= 7.189003378825D+02
 PrsmSu:  requested number of processors reduced to:  13 ShMem   1 Linda.
 Calling FoFJK, ICntrl=      2127 FMM=F ISym2X=0 I1Cent= 0 IOpClX= 0 NMat=1 NMatS=1 NMatT=0.
 ***** Axes restored to original set *****
 -------------------------------------------------------------------
 Center     Atomic                   Forces (Hartrees/Bohr)
 Number     Number              X              Y              Z
 -------------------------------------------------------------------
      1        8           0.030485910    0.018333134    0.000481543
      2        6          -0.020242048   -0.014248388   -0.013781716
      3        6          -0.023155655    0.005123997    0.008087693
      4        6           0.005593329    0.034001824    0.018583711
      5        7           0.010002289   -0.008634167   -0.011212382
      6        6           0.026400663   -0.008104895    0.002767712
      7        6          -0.026467195    0.019482234   -0.007115207
      8        6           0.016242810   -0.004467356   -0.000948020
      9        6           0.007893501   -0.011033276   -0.000100035
     10        6          -0.019463381    0.008826556    0.000553332
     11        6          -0.007549261   -0.027021113    0.000012408
     12        6          -0.026806766    0.030846900   -0.011429440
     13        6           0.005966760    0.000717574   -0.018472911
     14        6           0.009687031   -0.060666907   -0.023875974
     15        6          -0.048753517    0.039198980   -0.088597078
     16        7           0.010477688   -0.033522365    0.001063482
     17        6           0.030892658   -0.067050506    0.143372947
     18        1          -0.008159672    0.003774573   -0.008663482
     19        1           0.001906749    0.032740046    0.012530643
     20        1           0.001113537   -0.000185696    0.002340189
     21        1           0.001731196   -0.000002377    0.001015915
     22        1          -0.002432145    0.003201435   -0.001842885
     23        1          -0.006078400    0.000961185    0.004520078
     24        1           0.009141026   -0.006673816    0.002505368
     25        1          -0.000383353   -0.011419366   -0.004133775
     26        1           0.021272695    0.058302368    0.011726782
     27        1           0.036784708    0.048041794   -0.032234410
     28        1          -0.017439412   -0.039039015   -0.027017164
     29        1          -0.018661746   -0.011483356    0.039862675
 -------------------------------------------------------------------
 Cartesian Forces:  Max     0.143372947 RMS     0.028110018

 GradGradGradGradGradGradGradGradGradGradGradGradGradGradGradGradGradGrad
 Berny optimization.
 FormGI is forming the generalized inverse of G from B-inverse, IUseBI=4.
 Internal  Forces:  Max     0.075021443 RMS     0.016251760
 Search for a local minimum.
 Step number   1 out of a maximum of  174
 All quantities printed in internal units (Hartrees-Bohrs-Radians)
 Mixed Optimization -- RFO/linear search
 Second derivative matrix not updated -- first step.
 ITU=  0
     Eigenvalues ---    0.00274   0.00444   0.00518   0.00856   0.00874
     Eigenvalues ---    0.01009   0.01199   0.01237   0.01507   0.01626
     Eigenvalues ---    0.01755   0.01786   0.01856   0.01910   0.02054
     Eigenvalues ---    0.02241   0.02260   0.02307   0.02573   0.02580
     Eigenvalues ---    0.02758   0.02879   0.03466   0.04243   0.04731
     Eigenvalues ---    0.05474   0.05835   0.06747   0.07642   0.08623
     Eigenvalues ---    0.09094   0.10281   0.10809   0.11764   0.13267
     Eigenvalues ---    0.14094   0.14712   0.15876   0.15925   0.15950
     Eigenvalues ---    0.15976   0.15994   0.15999   0.15999   0.16176
     Eigenvalues ---    0.21441   0.21710   0.21769   0.21935   0.22097
     Eigenvalues ---    0.22579   0.22774   0.23970   0.24262   0.24381
     Eigenvalues ---    0.24813   0.24884   0.25203   0.26225   0.32318
     Eigenvalues ---    0.32714   0.32786   0.33817   0.34764   0.34938
     Eigenvalues ---    0.34962   0.35467   0.35638   0.35685   0.38980
     Eigenvalues ---    0.40702   0.40739   0.45096   0.47690   0.54111
     Eigenvalues ---    0.54629   0.55835   0.56770   0.57048   0.60040
     Eigenvalues ---    0.89028
 RFO step:  Lambda=-1.34481628D-01 EMin= 2.73828767D-03
 Linear search not attempted -- first point.
 Maximum step size (   0.300) exceeded in Quadratic search.
    -- Step size scaled by   0.538
 Iteration  1 RMS(Cart)=  0.05658337 RMS(Int)=  0.00169724
 Iteration  2 RMS(Cart)=  0.00185767 RMS(Int)=  0.00049969
 Iteration  3 RMS(Cart)=  0.00000220 RMS(Int)=  0.00049969
 Iteration  4 RMS(Cart)=  0.00000000 RMS(Int)=  0.00049969
 Variable       Old X    -DE/DX   Delta X   Delta X   Delta X     New X
                                 (Linear)    (Quad)   (Total)
    R1        2.33384  -0.03250   0.00000  -0.01707  -0.01707   2.31677
    R2        2.99510  -0.04552   0.00000  -0.06355  -0.06345   2.93165
    R3        3.07345  -0.03904   0.00000  -0.06072  -0.06083   3.01261
    R4        2.52913   0.00674   0.00000   0.00626   0.00649   2.53561
    R5        2.04577   0.00331   0.00000   0.00362   0.00362   2.04939
    R6        2.55056   0.03222   0.00000   0.02568   0.02582   2.57639
    R7        1.97261   0.02927   0.00000   0.02908   0.02908   2.00169
    R8        2.50384  -0.01028   0.00000  -0.00625  -0.00602   2.49782
    R9        2.80156  -0.01612   0.00000  -0.01796  -0.01793   2.78363
   R10        3.08589  -0.03721   0.00000  -0.05573  -0.05557   3.03032
   R11        2.51976   0.01671   0.00000   0.01271   0.01270   2.53246
   R12        2.04652  -0.00038   0.00000  -0.00042  -0.00042   2.04610
   R13        2.71507  -0.00119   0.00000  -0.00092  -0.00096   2.71411
   R14        2.04923   0.00116   0.00000   0.00128   0.00128   2.05051
   R15        2.53512   0.00752   0.00000   0.00572   0.00568   2.54080
   R16        2.05775  -0.00270   0.00000  -0.00300  -0.00300   2.05475
   R17        2.80907  -0.01953   0.00000  -0.02271  -0.02271   2.78636
   R18        2.06059  -0.00353   0.00000  -0.00394  -0.00394   2.05665
   R19        2.61640  -0.00716   0.00000  -0.00644  -0.00651   2.60989
   R20        2.82738  -0.03273   0.00000  -0.03979  -0.04000   2.78738
   R21        2.05736   0.00105   0.00000   0.00117   0.00117   2.05853
   R22        2.62653  -0.02790   0.00000  -0.02338  -0.02344   2.60309
   R23        2.00136   0.01295   0.00000   0.01460   0.01447   2.01583
   R24        1.91865   0.06271   0.00000   0.05765   0.05765   1.97630
   R25        3.35665   0.00180   0.00000  -0.00123  -0.00126   3.35539
   R26        2.43314   0.00727   0.00000   0.00443   0.00523   2.43837
   R27        2.76803   0.07502   0.00000   0.10442   0.10521   2.87323
   R28        2.77996  -0.03021   0.00000  -0.07249  -0.07263   2.70733
   R29        3.09472  -0.00027   0.00000  -0.00650  -0.00709   3.08762
   R30        3.26243  -0.02523   0.00000  -0.05444  -0.05499   3.20744
   R31        2.25395  -0.04432   0.00000  -0.06171  -0.06171   2.19224
   R32        3.07440   0.03842   0.00000   0.07432   0.07371   3.14811
   R33        3.26338  -0.00105   0.00000  -0.00924  -0.00933   3.25405
   R34        3.12673  -0.01199   0.00000  -0.03213  -0.03167   3.09506
    A1        1.95341   0.02946   0.00000   0.04505   0.04521   1.99862
    A2        2.09995  -0.00462   0.00000  -0.00435  -0.00430   2.09565
    A3        2.20193  -0.02506   0.00000  -0.03975  -0.03993   2.16200
    A4        2.30641  -0.03277   0.00000  -0.05088  -0.05080   2.25560
    A5        1.92321   0.00767   0.00000   0.00972   0.00961   1.93282
    A6        2.05291   0.02528   0.00000   0.04179   0.04168   2.09459
    A7        2.46270  -0.03803   0.00000  -0.05877  -0.05887   2.40382
    A8        2.01486   0.00050   0.00000  -0.00428  -0.00424   2.01062
    A9        1.80041   0.03764   0.00000   0.06393   0.06400   1.86441
   A10        1.96853   0.02708   0.00000   0.04500   0.04584   2.01437
   A11        1.93809   0.01466   0.00000   0.01821   0.01780   1.95589
   A12        2.33870  -0.02050   0.00000  -0.02438  -0.02387   2.31483
   A13        2.00239   0.00609   0.00000   0.00720   0.00703   2.00942
   A14        2.14102   0.00030   0.00000   0.00254   0.00262   2.14364
   A15        1.97965   0.00160   0.00000   0.00184   0.00179   1.98144
   A16        2.15709  -0.00186   0.00000  -0.00417  -0.00420   2.15289
   A17        2.13240  -0.00852   0.00000  -0.01112  -0.01115   2.12125
   A18        2.07523   0.00583   0.00000   0.00866   0.00866   2.08389
   A19        2.07064   0.00294   0.00000   0.00322   0.00322   2.07385
   A20        2.12152  -0.00624   0.00000  -0.00824  -0.00829   2.11323
   A21        2.03925   0.00683   0.00000   0.01095   0.01097   2.05021
   A22        2.11801  -0.00052   0.00000  -0.00247  -0.00244   2.11556
   A23        2.15130   0.00316   0.00000   0.00488   0.00489   2.15618
   A24        2.07117   0.00320   0.00000   0.00630   0.00629   2.07746
   A25        2.06068  -0.00634   0.00000  -0.01113  -0.01114   2.04953
   A26        1.98328   0.00633   0.00000   0.00835   0.00835   1.99163
   A27        2.29923  -0.00213   0.00000  -0.00182  -0.00165   2.29758
   A28        2.00057  -0.00420   0.00000  -0.00653  -0.00670   1.99386
   A29        2.33868  -0.00955   0.00000  -0.01773  -0.01791   2.32077
   A30        2.05363  -0.00700   0.00000  -0.01265  -0.01257   2.04106
   A31        1.89073   0.01657   0.00000   0.03048   0.03056   1.92129
   A32        2.43355  -0.02268   0.00000  -0.02978  -0.02957   2.40398
   A33        1.97137   0.00765   0.00000   0.00532   0.00492   1.97628
   A34        1.87804   0.01500   0.00000   0.02449   0.02467   1.90271
   A35        2.17766   0.00305   0.00000   0.01155   0.01163   2.18929
   A36        1.44119  -0.00080   0.00000  -0.00958  -0.00980   1.43140
   A37        2.62156  -0.00281   0.00000  -0.00287  -0.00275   2.61881
   A38        1.74664  -0.00106   0.00000   0.01714   0.01931   1.76595
   A39        2.43945  -0.03655   0.00000  -0.04874  -0.04928   2.39017
   A40        1.29657   0.01152   0.00000   0.04429   0.04442   1.34099
   A41        2.34306  -0.00974   0.00000  -0.02005  -0.01969   2.32338
   A42        2.20551  -0.00696   0.00000  -0.01269  -0.01194   2.19357
   A43        2.04999  -0.01161   0.00000  -0.01991  -0.02003   2.02996
   A44        1.66261   0.01632   0.00000   0.02504   0.02425   1.68686
   A45        1.86662   0.02058   0.00000   0.03831   0.03798   1.90460
   A46        1.45643   0.01329   0.00000   0.02204   0.02230   1.47872
   A47        1.92191  -0.02086   0.00000  -0.03448  -0.03471   1.88720
   A48        2.22370   0.00541   0.00000   0.01339   0.01384   2.23754
   A49        1.66524  -0.01369   0.00000  -0.02162  -0.02158   1.64366
   A50        1.29705   0.01154   0.00000   0.01210   0.01251   1.30955
   A51        1.31392   0.02280   0.00000   0.04812   0.04900   1.36292
   A52        1.20516   0.00189   0.00000   0.01073   0.01075   1.21591
   A53        2.20231   0.00849   0.00000   0.01132   0.00738   2.20970
   A54        2.25116   0.01118   0.00000   0.00961   0.00959   2.26075
   A55        1.45470  -0.00487   0.00000  -0.00672  -0.00666   1.44804
   A56        1.14130   0.01478   0.00000   0.03649   0.03728   1.17858
   A57        2.36667   0.02323   0.00000   0.06137   0.06107   2.42774
    D1       -3.11087  -0.00414   0.00000  -0.00557  -0.00520  -3.11607
    D2       -0.01038   0.00215   0.00000   0.01542   0.01543   0.00505
    D3        0.28397  -0.00363   0.00000  -0.01091  -0.01045   0.27352
    D4       -2.89872   0.00266   0.00000   0.01008   0.01018  -2.88854
    D5       -0.83598  -0.00044   0.00000   0.00548   0.00602  -0.82996
    D6        0.24374  -0.00577   0.00000  -0.00339  -0.00394   0.23981
    D7        2.03933  -0.00185   0.00000   0.00173   0.00209   2.04142
    D8       -1.84689   0.01134   0.00000   0.02726   0.02731  -1.81958
    D9        2.03298   0.00308   0.00000   0.01703   0.01762   2.05060
   D10        3.11271  -0.00226   0.00000   0.00816   0.00766   3.12037
   D11       -1.37489   0.00167   0.00000   0.01328   0.01368  -1.36121
   D12        1.02207   0.01486   0.00000   0.03881   0.03890   1.06098
   D13       -3.03848   0.00363   0.00000   0.01564   0.01554  -3.02294
   D14        0.23707  -0.00153   0.00000  -0.00179  -0.00163   0.23545
   D15        0.14665  -0.00258   0.00000  -0.00580  -0.00588   0.14077
   D16       -2.86099  -0.00774   0.00000  -0.02323  -0.02305  -2.88404
   D17        2.94079  -0.01752   0.00000  -0.05416  -0.05358   2.88721
   D18       -0.32498  -0.01381   0.00000  -0.04014  -0.03978  -0.36476
   D19        2.86546  -0.00375   0.00000  -0.00253  -0.00279   2.86266
   D20       -0.17207  -0.00783   0.00000  -0.01701  -0.01698  -0.18905
   D21       -2.87247  -0.00074   0.00000  -0.00844  -0.00856  -2.88103
   D22        0.16096  -0.00051   0.00000  -0.00666  -0.00677   0.15419
   D23        0.18676   0.00061   0.00000   0.00078   0.00079   0.18756
   D24       -3.06299   0.00085   0.00000   0.00257   0.00259  -3.06040
   D25        3.05417   0.00046   0.00000   0.00254   0.00212   3.05628
   D26       -0.07095   0.00002   0.00000   0.00291   0.00254  -0.06841
   D27        0.01951  -0.00404   0.00000  -0.01274  -0.01281   0.00670
   D28       -3.10560  -0.00447   0.00000  -0.01237  -0.01239  -3.11799
   D29       -0.22946   0.00385   0.00000   0.01065   0.01058  -0.21887
   D30        3.02009   0.00090   0.00000   0.00212   0.00210   3.02219
   D31        3.03133   0.00337   0.00000   0.00826   0.00819   3.03952
   D32       -0.00231   0.00041   0.00000  -0.00027  -0.00029  -0.00260
   D33        0.03804  -0.00169   0.00000  -0.00503  -0.00500   0.03304
   D34       -3.00402  -0.00250   0.00000  -0.00761  -0.00753  -3.01155
   D35        3.07195   0.00143   0.00000   0.00381   0.00377   3.07572
   D36        0.02989   0.00062   0.00000   0.00123   0.00124   0.03113
   D37        0.18723  -0.00386   0.00000  -0.01143  -0.01133   0.17590
   D38       -2.96440  -0.00203   0.00000  -0.00611  -0.00600  -2.97039
   D39       -3.05838  -0.00262   0.00000  -0.00800  -0.00797  -3.06634
   D40        0.07319  -0.00079   0.00000  -0.00268  -0.00263   0.07055
   D41       -0.20038   0.00477   0.00000   0.01733   0.01740  -0.18298
   D42        2.92769   0.00513   0.00000   0.01704   0.01707   2.94476
   D43        2.95118   0.00290   0.00000   0.01195   0.01205   2.96324
   D44       -0.20393   0.00326   0.00000   0.01166   0.01172  -0.19221
   D45       -0.06772  -0.00177   0.00000  -0.00165  -0.00201  -0.06973
   D46        3.09497  -0.00343   0.00000  -0.00936  -0.00953   3.08544
   D47        3.09048  -0.00228   0.00000  -0.00138  -0.00169   3.08878
   D48       -0.03002  -0.00395   0.00000  -0.00910  -0.00922  -0.03924
   D49        3.07531  -0.00381   0.00000  -0.01561  -0.01555   3.05976
   D50       -0.09322  -0.00520   0.00000  -0.01374  -0.01396  -0.10718
   D51       -0.08597  -0.00244   0.00000  -0.00874  -0.00875  -0.09472
   D52        3.02869  -0.00382   0.00000  -0.00686  -0.00716   3.02153
   D53       -0.15875   0.00381   0.00000   0.01091   0.01081  -0.14793
   D54        2.75828   0.00157   0.00000   0.00698   0.00684   2.76512
   D55        3.00887   0.00519   0.00000   0.00924   0.00942   3.01829
   D56       -0.35730   0.00295   0.00000   0.00532   0.00546  -0.35184
   D57       -2.75675  -0.00172   0.00000  -0.00628  -0.00620  -2.76295
   D58        0.36647  -0.00324   0.00000  -0.00578  -0.00585   0.36061
   D59        2.73083   0.00109   0.00000  -0.01271  -0.01292   2.71790
   D60        1.76382  -0.01588   0.00000  -0.03176  -0.03140   1.73242
   D61        0.22070  -0.00148   0.00000  -0.00359  -0.00375   0.21695
   D62        2.52278   0.02990   0.00000   0.08141   0.08163   2.60441
   D63       -0.78776  -0.00001   0.00000  -0.01436  -0.01461  -0.80237
   D64       -1.75476  -0.01698   0.00000  -0.03340  -0.03308  -1.78785
   D65        2.98530  -0.00258   0.00000  -0.00523  -0.00544   2.97986
   D66       -0.99581   0.02880   0.00000   0.07977   0.07994  -0.91586
   D67       -0.03041  -0.01159   0.00000  -0.02890  -0.02896  -0.05936
   D68       -2.92540  -0.00719   0.00000  -0.01990  -0.01950  -2.94490
   D69       -1.63828   0.00101   0.00000  -0.01971  -0.02069  -1.65898
   D70       -0.84989   0.00731   0.00000   0.00480   0.00437  -0.84552
   D71       -2.46787  -0.01744   0.00000  -0.04671  -0.04551  -2.51338
   D72       -1.24563  -0.01498   0.00000  -0.03540  -0.03516  -1.28079
   D73        1.33096   0.00980   0.00000   0.02608   0.02488   1.35584
   D74        1.51318  -0.00932   0.00000  -0.03082  -0.02979   1.48339
   D75        2.73541  -0.00686   0.00000  -0.01951  -0.01944   2.71598
   D76       -0.97118   0.01791   0.00000   0.04197   0.04060  -0.93058
   D77       -0.18510  -0.01263   0.00000  -0.03847  -0.03726  -0.22236
   D78        1.03714  -0.01017   0.00000  -0.02716  -0.02691   1.01023
   D79       -2.66946   0.01460   0.00000   0.03432   0.03313  -2.63633
   D80       -0.29022   0.00749   0.00000   0.01060   0.01060  -0.27962
   D81       -1.11022  -0.00192   0.00000  -0.01476  -0.01545  -1.12567
   D82       -1.62972  -0.01866   0.00000  -0.04309  -0.04373  -1.67345
   D83       -2.39919  -0.01034   0.00000  -0.02604  -0.02581  -2.42500
         Item               Value     Threshold  Converged?
 Maximum Force            0.075021     0.000450     NO 
 RMS     Force            0.016252     0.000300     NO 
 Maximum Displacement     0.284632     0.001800     NO 
 RMS     Displacement     0.056747     0.001200     NO 
 Predicted change in Energy=-6.168994D-02
 GradGradGradGradGradGradGradGradGradGradGradGradGradGradGradGradGradGrad

                          Input orientation:                          
 ---------------------------------------------------------------------
 Center     Atomic      Atomic             Coordinates (Angstroms)
 Number     Number       Type             X           Y           Z
 ---------------------------------------------------------------------
      1          8           0        0.862384   -0.664766    0.324909
      2          6           0        2.076719   -0.555144    0.452997
      3          6           0        2.856842   -1.893044    0.362643
      4          6           0        4.173925   -2.117540    0.486309
      5          7           0        5.037960   -3.161304    0.335423
      6          6           0        6.317844   -2.835252    0.283342
      7          6           0        7.194584   -3.999175    0.498841
      8          6           0        8.499785   -3.883279    0.779803
      9          6           0        9.192186   -2.633758    0.631197
     10          6           0        8.543586   -1.523182    0.239146
     11          6           0        7.075418   -1.429147    0.140490
     12          6           0        6.600385   -0.145051   -0.040795
     13          6           0        5.247926    0.407196   -0.244626
     14          6           0        4.659584    1.647614   -0.357376
[...]
    D7        1.23869  -0.00037  -0.01027  -0.01625  -0.04146   1.19724
    D8       -1.88301  -0.00013   0.03776  -0.00570   0.04008  -1.84293
    D9        1.19494   0.00020  -0.00533  -0.00118  -0.00101   1.19393
   D10        1.25934   0.00149  -0.00119   0.00119   0.00209   1.26143
   D11       -1.92559   0.00026  -0.03627  -0.00570  -0.05545  -1.98103
   D12        1.23590   0.00050   0.01175   0.00484   0.02609   1.26199
   D13       -3.05098  -0.00112   0.00687  -0.01915  -0.01343  -3.06441
   D14        0.11755  -0.00003  -0.00700   0.00359  -0.00567   0.11188
   D15        0.03311  -0.00038   0.00055  -0.00738  -0.00797   0.02514
   D16       -3.08155   0.00072  -0.01332   0.01537  -0.00022  -3.08176
   D17        2.77006   0.00102   0.01009   0.00448   0.00885   2.77891
   D18       -0.39828  -0.00007   0.02383  -0.01812   0.00111  -0.39718
   D19        2.82438   0.00049  -0.01907   0.00965  -0.01076   2.81361
   D20       -0.25993   0.00022   0.00253  -0.00957  -0.01036  -0.27029
   D21       -2.84828  -0.00011   0.01274  -0.01316  -0.00183  -2.85010
   D22        0.18834  -0.00013   0.01364  -0.01334  -0.00088   0.18746
   D23        0.24370   0.00008  -0.00599   0.00330  -0.00256   0.24114
   D24       -3.00286   0.00006  -0.00509   0.00311  -0.00161  -3.00448
   D25        2.75838   0.00023  -0.02245   0.02170   0.00158   2.75997
   D26       -0.45864   0.00027  -0.02820   0.02285  -0.00388  -0.46252
   D27       -0.32571  -0.00003  -0.00078   0.00239   0.00189  -0.32382
   D28        2.74045  -0.00000  -0.00654   0.00354  -0.00357   2.73688
   D29       -0.04199  -0.00007   0.00676  -0.00511   0.00134  -0.04065
   D30        3.06607  -0.00003   0.00313  -0.00091   0.00227   3.06834
   D31       -3.07219  -0.00006   0.00596  -0.00506   0.00035  -3.07184
   D32        0.03587  -0.00002   0.00233  -0.00086   0.00128   0.03715
   D33       -0.07951   0.00006  -0.00081   0.00132   0.00074  -0.07877
   D34        3.09562   0.00008  -0.00491   0.00461   0.00005   3.09567
   D35        3.09533   0.00002   0.00279  -0.00285  -0.00019   3.09515
   D36       -0.01272   0.00004  -0.00131   0.00044  -0.00088  -0.01360
   D37       -0.02046   0.00007  -0.00593   0.00497  -0.00057  -0.02104
   D38       -3.07793   0.00003  -0.00485   0.00359  -0.00111  -3.07905
   D39        3.08720   0.00005  -0.00183   0.00166   0.00011   3.08731
   D40        0.02973   0.00001  -0.00074   0.00027  -0.00043   0.02930
   D41        0.22576  -0.00009   0.00659  -0.00671  -0.00080   0.22496
   D42       -2.84651  -0.00010   0.01218  -0.00767   0.00490  -2.84161
   D43       -2.99730  -0.00005   0.00545  -0.00527  -0.00027  -2.99757
   D44        0.21362  -0.00005   0.01103  -0.00624   0.00542   0.21904
   D45       -0.11723   0.00004  -0.00184  -0.00120   0.00020  -0.11703
   D46        2.99349   0.00013  -0.00018   0.00051   0.00374   2.99723
   D47        2.94865   0.00007  -0.00769  -0.00004  -0.00546   2.94319
   D48       -0.22381   0.00016  -0.00603   0.00167  -0.00192  -0.22574
   D49        2.48709   0.00009   0.01532  -0.00625   0.01203   2.49912
   D50       -0.50941   0.00045   0.00914  -0.01015   0.00218  -0.50723
   D51       -0.62356   0.00000   0.01355  -0.00790   0.00845  -0.61511
   D52        2.66313   0.00037   0.00737  -0.01179  -0.00140   2.66173
   D53        0.17238  -0.00137   0.01448  -0.01429  -0.00014   0.17223
   D54       -2.75242  -0.00068   0.00549  -0.02037  -0.01632  -2.76874
   D55       -3.11972  -0.00158   0.01795  -0.00943   0.00836  -3.11136
   D56        0.23866  -0.00088   0.00895  -0.01551  -0.00781   0.23085
   D57        2.78230   0.00064   0.00003   0.01886   0.01973   2.80202
   D58       -0.21676   0.00078  -0.00218   0.01414   0.01287  -0.20389
   D59        3.07794  -0.00016  -0.02967   0.01217  -0.01746   3.06048
   D60        1.97769  -0.00055  -0.03329   0.00215  -0.02840   1.94929
   D61       -0.11465   0.00026   0.00023   0.00673   0.00721  -0.10744
   D62       -2.64686  -0.00237  -0.01431  -0.00248  -0.01494  -2.66180
   D63        0.28033   0.00019  -0.04746   0.00144  -0.04733   0.23300
   D64       -0.81993  -0.00020  -0.05108  -0.00859  -0.05826  -0.87819
   D65       -2.91226   0.00061  -0.01756  -0.00400  -0.02265  -2.93491
   D66        0.83871  -0.00202  -0.03210  -0.01322  -0.04480   0.79391
   D67        1.97868   0.00110   0.05013  -0.00060   0.03400   2.01268
   D68       -1.20180   0.00110   0.11409   0.00597   0.13960  -1.06220
   D69       -2.00190   0.00014  -0.01165   0.00550  -0.00985  -2.01175
   D70       -2.04567   0.00054   0.01515   0.00097   0.01181  -2.03386
   D71       -2.34205  -0.00052   0.03494   0.01100   0.05089  -2.29116
   D72       -1.41267  -0.00175   0.01800   0.00610   0.02850  -1.38417
   D73        2.74500   0.00073   0.05089   0.00807   0.06302   2.80802
   D74        0.82029   0.00041   0.02339   0.00790   0.02965   0.84994
   D75        1.74967  -0.00082   0.00645   0.00300   0.00726   1.75693
   D76       -0.37585   0.00166   0.03933   0.00497   0.04178  -0.33406
   D77        1.02964   0.00017   0.77221   0.20204   0.96920   1.99884
   D78        1.95901  -0.00106   0.75527   0.19714   0.94682   2.90583
   D79       -0.16650   0.00142   0.78816   0.19911   0.98134   0.81484
   D80        0.14186  -0.00037  -0.00024  -0.00846  -0.00912   0.13274
   D81        0.17757  -0.00075  -0.02194  -0.00498  -0.02690   0.15067
   D82       -1.11233   0.00138  -0.00007  -0.00071   0.00061  -1.11172
   D83        0.78110  -0.00357  -0.02793  -0.01506  -0.04062   0.74048
         Item               Value     Threshold  Converged?
 Maximum Force            0.004476     0.000450     NO 
 RMS     Force            0.000979     0.000300     NO 
 Maximum Displacement     0.116736     0.001800     NO 
 RMS     Displacement     0.022850     0.001200     NO 
 Predicted change in Energy=-5.140743D-04
 GradGradGradGradGradGradGradGradGradGradGradGradGradGradGradGradGradGrad

                          Input orientation:                          
 ---------------------------------------------------------------------
 Center     Atomic      Atomic             Coordinates (Angstroms)
 Number     Number       Type             X           Y           Z
 ---------------------------------------------------------------------
      1          8           0        0.666001   -0.937550    0.630058
      2          6           0        1.860197   -0.723142    0.787505
      3          6           0        2.865511   -1.748902    0.544098
      4          6           0        4.195944   -1.667116    0.809474
      5          7           0        5.038030   -2.671461    0.447666
      6          6           0        6.335873   -2.556408    0.294864
      7          6           0        7.083725   -3.795101    0.325430
      8          6           0        8.427184   -3.813541    0.514684
      9          6           0        9.174972   -2.593205    0.644335
     10          6           0        8.551763   -1.401650    0.486553
     11          6           0        7.140855   -1.314238    0.161612
     12          6           0        6.669501   -0.122665   -0.329322
     13          6           0        5.374608    0.111050   -0.923345
     14          6           0        4.709439    1.263202   -0.719642
     15          6           0        3.223971    1.381040   -0.839826
     16          7           0        2.732530    1.669767    0.545565
     17          6           0        2.212510    0.704447    1.206466
     18          1           0        2.484732   -2.642623    0.058662
     19          1           0        4.592280   -0.803841    1.346455
     20          1           0        6.495762   -4.704430    0.289133
     21          1           0        8.948209   -4.761737    0.600473
     22          1           0       10.240813   -2.638445    0.837634
     23          1           0        9.113804   -0.473288    0.524080
     24          1           0        7.331109    0.738892   -0.239789
     25          1           0        4.910593   -0.734072   -1.431013
     26          1           0        5.222946    2.089490   -0.233515
     27          1           0        2.883193    2.156692   -1.540521
     28          1           0        1.861515    0.904065    2.226408
     29          1           0        2.836409    0.419914   -1.207752
 ---------------------------------------------------------------------
                    Distance matrix (angstroms):
                    1          2          3          4          5
     1  O    0.000000
     2  C    1.223463   0.000000
     3  C    2.345960   1.456739   0.000000
     4  C    3.609011   2.519382   1.359105   0.000000
     5  N    4.706842   3.743002   2.362256   1.359678   0.000000
     6  C    5.905973   4.861609   3.571778   2.373807   1.311862
     7  C    7.031755   6.077474   4.693407   3.619654   2.337172
     8  C    8.277717   7.262942   5.932605   4.753676   3.577038
     9  C    8.668563   7.551395   6.366489   5.067112   4.142352
    10  C    7.900710   6.732608   5.697135   4.375832   3.736341
    11  C    6.502698   5.350373   4.314371   3.035910   2.519078
    12  C    6.134041   4.973659   4.228220   3.130602   3.124383
    13  C    5.067899   3.996745   3.450851   2.748415   3.120148
    14  C    4.797331   3.786190   3.750983   3.344941   4.117299
    15  C    3.752283   2.989259   3.440970   3.599469   4.622901
    16  N    3.328030   2.558421   3.421255   3.653220   4.916419
    17  C    2.328108   1.528942   2.623750   3.117038   4.467225
    18  H    2.557645   2.146081   1.085992   2.107981   2.582923
    19  H    3.993341   2.789842   2.125712   1.091181   2.120029
    20  H    6.949225   6.130864   4.688163   3.845152   2.506607
    21  H    9.122514   8.159973   6.788193   5.674891   4.436452
    22  H    9.726929   8.596838   7.434549   6.122476   5.217481
    23  H    8.461214   7.262688   6.377206   5.068729   4.631386
    24  H    6.927535   5.755324   5.171572   4.088897   4.166690
    25  H    4.722920   3.771851   3.018824   2.530034   2.701694
    26  H    5.538455   4.501274   4.571153   4.031706   4.812989
    27  H    4.381972   3.841832   4.427145   4.676249   5.648653
    28  H    2.714615   2.172153   3.297941   3.750765   5.102800
    29  H    3.151336   2.498123   2.788115   3.205188   4.140549
                    6          7          8          9         10
     6  C    0.000000
     7  C    1.447265   0.000000
     8  C    2.449956   1.356849   0.000000
     9  C    2.860762   2.433016   1.437086   0.000000
    10  C    2.506068   2.812419   2.415270   1.353915   0.000000
    11  C    1.486183   2.486922   2.832987   2.450797   1.450478
    12  C    2.534566   3.753275   4.174251   3.650885   2.417512
    13  C    3.086000   4.442807   5.175767   4.920709   3.790829
    14  C    4.273632   5.684702   6.412372   6.055847   4.829057
    15  C    5.145382   6.561094   7.476082   7.308335   6.155324
    16  N    5.559451   6.989001   7.905486   7.725784   6.580316
    17  C    5.335384   6.689611   7.714464   7.724401   6.718634
    18  H    3.859342   4.748696   6.073858   6.716008   6.207413
    19  H    2.686532   4.024603   4.945364   4.969493   4.095645
    20  H    2.153972   1.083465   2.138913   3.429520   3.895442
    21  H    3.432371   2.118097   1.085312   2.180798   3.385311
    22  H    3.943334   3.401090   2.185039   1.084172   2.122689
    23  H    3.479774   3.898092   3.410106   2.124205   1.085889
    24  H    3.483583   4.575780   4.742917   3.909523   2.568947
    25  H    2.886344   4.144574   5.063129   5.093954   4.169033
    26  H    4.806471   6.197042   6.758160   6.190053   4.877251
    27  H    6.123966   7.519979   8.402583   8.180562   6.993105
    28  H    5.977092   7.277868   8.264008   8.259570   7.287170
    29  H    4.833488   6.177111   7.221198   7.258546   6.233301
                   11         12         13         14         15
    11  C    0.000000
    12  C    1.372239   0.000000
    13  C    2.515593   1.443688   0.000000
    14  C    3.651245   2.432040   1.345882   0.000000
    15  C    4.858949   3.793866   2.499018   1.494973   0.000000
    16  N    5.337138   4.413386   3.401157   2.382060   1.498060
    17  C    5.427283   4.786180   3.858378   3.202616   2.380785
    18  H    4.843005   4.900308   4.110771   4.561857   4.188510
    19  H    2.856500   2.754465   2.569252   2.924918   3.380207
    20  H    3.453376   4.626581   5.090770   6.310405   7.000865
    21  H    3.917190   5.251479   6.231910   7.483968   8.519101
    22  H    3.438061   4.521638   5.860096   6.945794   8.258705
    23  H    2.175111   2.612633   4.051923   4.894964   6.323678
    24  H    2.100634   1.089963   2.165486   2.716305   4.200116
    25  H    2.801270   2.163631   1.089617   2.129698   2.769097
    26  H    3.926814   2.644868   2.100737   1.087549   2.205769
    27  H    5.750853   4.582423   3.282180   2.192565   1.099427
    28  H    6.087339   5.540998   4.784521   4.113254   3.389038
    29  H    4.838461   3.969714   2.572691   2.111309   1.099699
                   16         17         18         19         20
    16  N    0.000000
    17  C    1.280255   0.000000
    18  H    4.346859   3.548864   0.000000
    19  H    3.196691   2.820964   3.079171   0.000000
    20  H    7.406623   6.960151   4.515809   4.467188   0.000000
    21  H    8.944380   8.695749   6.823544   5.932584   2.472795
    22  H    8.661426   8.704287   7.795102   5.960754   4.312140
    23  H    6.731553   7.034242   6.990510   4.607574   4.981155
    24  H    4.757124   5.319106   5.917016   3.520991   5.532388
    25  H    3.798587   4.037980   3.427317   2.796519   4.608189
    26  H    2.642973   3.613117   5.475042   3.356399   6.931852
    27  H    2.147452   3.178799   5.074404   4.474413   7.967012
    28  H    2.042107   1.096963   4.203156   3.338913   7.528911
    29  H    2.155701   2.509712   3.332658   3.332362   6.472282
                   21         22         23         24         25
    21  H    0.000000
    22  H    2.497086   0.000000
    23  H    4.292325   2.460969   0.000000
    24  H    5.794651   4.586243   2.287112   0.000000
    25  H    6.054037   6.097921   4.642992   3.073683   0.000000
    26  H    7.842987   6.977085   4.720228   2.503698   3.082867
    27  H    9.446319   9.098546   7.071060   4.846237   3.532543
    28  H    9.217713   9.202756   7.575666   6.002155   5.035583
    29  H    8.214213   8.268154   6.572879   4.608799   2.384066
                   26         27         28         29
    26  H    0.000000
    27  H    2.680901   0.000000
    28  H    4.330783   4.099104   0.000000
    29  H    3.071186   1.768989   3.602538   0.000000
 Stoichiometry    C14H12N2O
 Framework group  C1[X(C14H12N2O)]
 Deg. of freedom    81
 Full point group                 C1      NOp   1
 Largest Abelian subgroup         C1      NOp   1
 Largest concise Abelian subgroup C1      NOp   1
                         Standard orientation:                         
 ---------------------------------------------------------------------
 Center     Atomic      Atomic             Coordinates (Angstroms)
 Number     Number       Type             X           Y           Z
 ---------------------------------------------------------------------
      1          8           0       -3.944492    1.901752    0.135940
      2          6           0       -2.972724    1.243166   -0.208726
      3          6           0       -1.615168    1.623724    0.157750
      4          6           0       -0.461661    1.049444   -0.274443
      5          7           0        0.739880    1.450139    0.219995
      6          6           0        1.847460    0.747933    0.186007
      7          6           0        3.071681    1.497317    0.371160
      8          6           0        4.281453    0.982910    0.035192
      9          6           0        4.402840   -0.354712   -0.475935
     10          6           0        3.310590   -1.152042   -0.541812
     11          6           0        2.008987   -0.704534   -0.084153
     12          6           0        1.050945   -1.657993    0.152726
     13          6           0       -0.213821   -1.459471    0.819952
     14          6           0       -1.324272   -2.106705    0.420720
     15          6           0       -2.705242   -1.597533    0.682653
     16          7           0       -3.267762   -1.257179   -0.663421
     17          6           0       -3.296457   -0.022936   -1.002354
     18          1           0       -1.556689    2.425175    0.888252
     19          1           0       -0.492346    0.281414   -1.048951
     20          1           0        2.954017    2.523714    0.697599
     21          1           0        5.172879    1.595743    0.122935
     22          1           0        5.376548   -0.724800   -0.776531
     23          1           0        3.396554   -2.183245   -0.871032
     24          1           0        1.256096   -2.660763   -0.221956
     25          1           0       -0.251633   -0.669796    1.569785
     26          1           0       -1.233876   -2.907461   -0.309610
     27          1           0       -3.360929   -2.306872    1.207679
     28          1           0       -3.695122    0.234086   -1.991462
     29          1           0       -2.622057   -0.703323    1.317325
 ---------------------------------------------------------------------
 Rotational constants (GHZ):           1.0419518           0.2872792           0.2376845
 Standard basis: 6-31G(2df,p) (6D, 7F)
 There are   587 symmetry adapted cartesian basis functions of A   symmetry.
 There are   536 symmetry adapted basis functions of A   symmetry.
   536 basis functions,   832 primitive gaussians,   587 cartesian basis functions
    59 alpha electrons       59 beta electrons
       nuclear repulsion energy      1091.7030567898 Hartrees.
 NAtoms=   29 NActive=   29 NUniq=   29 SFac= 1.00D+00 NAtFMM=   60 NAOKFM=F Big=F
 Integral buffers will be    131072 words long.
 Raffenetti 2 integral format.
 Two-electron integral symmetry is turned on.
 One-electron integrals computed using PRISM.
 PrsmSu:  requested number of processors reduced to:  12 ShMem   1 Linda.
 NBasis=   536 RedAO= T EigKep=  1.41D-04  NBF=   536
 NBsUse=   536 1.00D-06 EigRej= -1.00D+00 NBFU=   536
 Initial guess from the checkpoint file:  "OdC1CdCNdc2ccccc2dCCdCCdNC1.chk"
 B after Tr=    -0.000000    0.000000    0.000000
         Rot=    0.999998    0.000614    0.000099    0.002114 Ang=   0.25 deg.
 ExpMin= 1.61D-01 ExpMax= 5.48D+03 ExpMxC= 8.25D+02 IAcc=2 IRadAn=         4 AccDes= 0.00D+00
 Harris functional with IExCor=  402 and IRadAn=       4 diagonalized for initial guess.
 HarFok:  IExCor=  402 AccDes= 0.00D+00 IRadAn=         4 IDoV= 1 UseB2=F ITyADJ=14
 ICtDFT=  3500011 ScaDFX=  1.000000  1.000000  1.000000  1.000000
 FoFCou: FMM=F IPFlag=           0 FMFlag=      100000 FMFlg1=           0
         NFxFlg=           0 DoJE=T BraDBF=F KetDBF=T FulRan=T
         wScrn=  0.000000 ICntrl=       500 IOpCl=  0 I1Cent=   200000004 NGrid=           0
         NMat0=    1 NMatS0=      1 NMatT0=    0 NMatD0=    1 NMtDS0=    0 NMtDT0=    0
 Petite list used in FoFCou.
 Requested convergence on RMS density matrix=1.00D-08 within 128 cycles.
 Requested convergence on MAX density matrix=1.00D-06.
 Requested convergence on             energy=1.00D-06.
 No special actions if energy rises.
 Integral accuracy reduced to 1.0D-05 until final iterations.
 Initial convergence to 1.0D-05 achieved.  Increase integral accuracy.
 SCF Done:  E(RB3LYP) =  -725.359407616     A.U. after   12 cycles
            NFock= 12  Conv=0.61D-08     -V/T= 2.0079
 PrsmSu:  requested number of processors reduced to:  13 ShMem   1 Linda.
 Calling FoFJK, ICntrl=      2127 FMM=F ISym2X=0 I1Cent= 0 IOpClX= 0 NMat=1 NMatS=1 NMatT=0.
slurmstepd: error: *** JOB 27446604 ON lewis4-r630-hpc4-node303 CANCELLED AT 2023-05-17T00:09:08 DUE TO TIME LIMIT ***
