### Starting Gaussian ###
 Entering Gaussian System, Link 0=g16
 Initial command:
 /cluster/software/gaussian/gaussian-16-A.03/avx2/g16/l1.exe "/local/scratch/yxie/Gau-4342.inp" -scrdir="/local/scratch/yxie/"
 Entering Link 1 = /cluster/software/gaussian/gaussian-16-A.03/avx2/g16/l1.exe PID=      4343.
  
 Copyright (c) 1988,1990,1992,1993,1995,1998,2003,2009,2016,
            Gaussian, Inc.  All Rights Reserved.
  
 This is part of the Gaussian(R) 16 program.  It is based on
 the Gaussian(R) 09 system (copyright 2009, Gaussian, Inc.),
 the Gaussian(R) 03 system (copyright 2003, Gaussian, Inc.),
 the Gaussian(R) 98 system (copyright 1998, Gaussian, Inc.),
 the Gaussian(R) 94 system (copyright 1995, Gaussian, Inc.),
 the Gaussian 92(TM) system (copyright 1992, Gaussian, Inc.),
 the Gaussian 90(TM) system (copyright 1990, Gaussian, Inc.),
 the Gaussian 88(TM) system (copyright 1988, Gaussian, Inc.),
 the Gaussian 86(TM) system (copyright 1986, Carnegie Mellon
 University), and the Gaussian 82(TM) system (copyright 1983,
 Carnegie Mellon University). Gaussian is a federally registered
 trademark of Gaussian, Inc.
  
 This software contains proprietary and confidential information,
 including trade secrets, belonging to Gaussian, Inc.
  
 This software is provided under written license and may be
 used, copied, transmitted, or stored only in accord with that
 written license.
  
 The following legend is applicable only to US Government
 contracts under FAR:
  
                    RESTRICTED RIGHTS LEGEND
  
 Use, reproduction and disclosure by the US Government is
 subject to restrictions as set forth in subparagraphs (a)
 and (c) of the Commercial Computer Software - Restricted
 Rights clause in FAR 52.227-19.
  
 Gaussian, Inc.
 340 Quinnipiac St., Bldg. 40, Wallingford CT 06492
  
  
 ---------------------------------------------------------------
 Warning -- This program may not be used in any manner that
 competes with the business of Gaussian, Inc. or will provide
 assistance to any competitor of Gaussian, Inc.  The licensee
 of this program is prohibited from giving any competitor of
 Gaussian, Inc. access to this program.  By using this program,
 the user acknowledges that Gaussian, Inc. is engaged in the
 business of creating and licensing software in the field of
 computational chemistry and represents and warrants to the
 licensee that it is not a competitor of Gaussian, Inc. and that
 it will not use this program in any manner prohibited above.
 ---------------------------------------------------------------
  

 Cite this work as:
 Gaussian 16, Revision A.03,
 M. J. Frisch, G. W. Trucks, H. B. Schlegel, G. E. Scuseria, 
 M. A. Robb, J. R. Cheeseman, G. Scalmani, V. Barone, 
 G. A. Petersson, H. Nakatsuji, X. Li, M. Caricato, A. V. Marenich, 
 J. Bloino, B. G. Janesko, R. Gomperts, B. Mennucci, H. P. Hratchian, 
 J. V. Ortiz, A. F. Izmaylov, J. L. Sonnenberg, D. Williams-Young, 
 F. Ding, F. Lipparini, F. Egidi, J. Goings, B. Peng, A. Petrone, 
 T. Henderson, D. Ranasinghe, V. G. Zakrzewski, J. Gao, N. Rega, 
 G. Zheng, W. Liang, M. Hada, M. Ehara, K. Toyota, R. Fukuda, 
 J. Hasegawa, M. Ishida, T. Nakajima, Y. Honda, O. Kitao, H. Nakai, 
 T. Vreven, K. Throssell, J. A. Montgomery, Jr., J. E. Peralta, 
 F. Ogliaro, M. J. Bearpark, J. J. Heyd, E. N. Brothers, K. N. Kudin, 
 V. N. Staroverov, T. A. Keith, R. Kobayashi, J. Normand, 
 K. Raghavachari, A. P. Rendell, J. C. Burant, S. S. Iyengar, 
 J. Tomasi, M. Cossi, J. M. Millam, M. Klene, C. Adamo, R. Cammi, 
 J. W. Ochterski, R. L. Martin, K. Morokuma, O. Farkas, 
 J. B. Foresman, and D. J. Fox, Gaussian, Inc., Wallingford CT, 2016.
 
 ******************************************
 Gaussian 16:  ES64L-G16RevA.03 25-Dec-2016
                16-May-2023 
 ******************************************
 %chk=OdC1CdC2CdNCdc3ccccc3dNC1dC2.chk
 %NProcShared=20
 Will use up to   20 processors via shared memory.
 -----------------------------
 # opt freq b3lyp/6-31g(2df,p)
 -----------------------------
 1/18=20,19=15,26=3,38=1/1,3;
 2/9=110,12=2,17=6,18=5,40=1/2;
 3/5=1,6=6,7=104,11=2,25=1,30=1,71=1,74=-5/1,2,3;
 4//1;
 5/5=2,38=5/2;
 6/7=2,8=2,9=2,10=2,28=1/1;
 7//1,2,3,16;
 1/18=20,19=15,26=3/3(2);
 2/9=110/2;
 99//99;
 2/9=110/2;
 3/5=1,6=6,7=104,11=2,25=1,30=1,71=1,74=-5/1,2,3;
 4/5=5,16=3,69=1/1;
 5/5=2,38=5/2;
 7//1,2,3,16;
 1/18=20,19=15,26=3/3(-5);
 2/9=110/2;
 6/7=2,8=2,9=2,10=2,19=2,28=1/1;
 99/9=1/99;
 -------------------
 Title Card Required
 -------------------
 Symbolic Z-matrix:
 Charge =  0 Multiplicity = 1
 O                     1.41682   0.21187  -0.32785 
 C                     2.47823   0.72863  -0.22363 
 C                     3.13438   1.19708   1.03479 
 C                     4.43227   0.78711   0.77563 
 C                     5.81725   1.39041   0.60216 
 N                     5.96305   2.6126    0.81332 
 C                     6.81293   3.27973  -0.01307 
 C                     6.2806    4.42068  -0.40946 
 C                     7.20898   5.60121  -0.2169 
 C                     6.85779   6.84879   0.1139 
 C                     5.43029   7.03433   0.05299 
 C                     4.47764   6.04355  -0.25023 
 C                     4.68862   4.25762  -0.56603 
 N                     3.81198   3.11463  -0.8749 
 C                     3.65234   1.39365  -1.14604 
 C                     4.36084   0.30861  -0.57948 
 H                     2.70378   2.21547   0.91005 
 H                     6.53259   0.81737  -0.06832 
 H                     7.88296   3.22959   0.04226 
 H                     8.28137   5.44125  -0.25508 
 H                     7.6145    7.66064   0.277 
 H                     5.27875   8.12823   0.15596 
 H                     3.50545   6.49533  -0.3951 
 H                     4.40664  -0.82403  -0.35058 
 

 GradGradGradGradGradGradGradGradGradGradGradGradGradGradGradGradGradGrad
 Berny optimization.
 Initialization pass.
                           ----------------------------
                           !    Initial Parameters    !
                           ! (Angstroms and Degrees)  !
 --------------------------                            --------------------------
 ! Name  Definition              Value          Derivative Info.                !
 --------------------------------------------------------------------------------
 ! R1    R(1,2)                  1.1851         estimate D2E/DX2                !
 ! R2    R(2,3)                  1.4945         estimate D2E/DX2                !
 ! R3    R(2,15)                 1.6345         estimate D2E/DX2                !
 ! R4    R(3,4)                  1.3856         estimate D2E/DX2                !
 ! R5    R(3,17)                 1.1127         estimate D2E/DX2                !
 ! R6    R(4,5)                  1.5206         estimate D2E/DX2                !
 ! R7    R(4,16)                 1.4389         estimate D2E/DX2                !
 ! R8    R(5,6)                  1.2488         estimate D2E/DX2                !
 ! R9    R(5,18)                 1.1356         estimate D2E/DX2                !
 ! R10   R(6,7)                  1.3602         estimate D2E/DX2                !
 ! R11   R(7,8)                  1.3199         estimate D2E/DX2                !
 ! R12   R(7,19)                 1.0726         estimate D2E/DX2                !
 ! R13   R(8,9)                  1.5141         estimate D2E/DX2                !
 ! R14   R(8,13)                 1.6079         estimate D2E/DX2                !
 ! R15   R(9,10)                 1.3376         estimate D2E/DX2                !
 ! R16   R(9,20)                 1.0849         estimate D2E/DX2                !
 ! R17   R(10,11)                1.4408         estimate D2E/DX2                !
 ! R18   R(10,21)                1.1217         estimate D2E/DX2                !
 ! R19   R(11,12)                1.4075         estimate D2E/DX2                !
 ! R20   R(11,22)                1.1091         estimate D2E/DX2                !
 ! R21   R(12,13)                1.8259         estimate D2E/DX2                !
 ! R22   R(12,23)                1.0818         estimate D2E/DX2                !
 ! R23   R(13,14)                1.4732         estimate D2E/DX2                !
 ! R24   R(15,16)                1.4143         estimate D2E/DX2                !
 ! R25   R(16,24)                1.1564         estimate D2E/DX2                !
 ! A1    A(1,2,3)              127.1521         estimate D2E/DX2                !
 ! A2    A(1,2,15)             140.4551         estimate D2E/DX2                !
 ! A3    A(3,2,15)              91.8499         estimate D2E/DX2                !
 ! A4    A(2,3,4)               99.266          estimate D2E/DX2                !
 ! A5    A(2,3,17)              91.2939         estimate D2E/DX2                !
 ! A6    A(4,3,17)             127.7593         estimate D2E/DX2                !
 ! A7    A(3,4,5)              139.2116         estimate D2E/DX2                !
 ! A8    A(3,4,16)             103.1823         estimate D2E/DX2                !
 ! A9    A(5,4,16)              93.9977         estimate D2E/DX2                !
 ! A10   A(4,5,6)              118.3809         estimate D2E/DX2                !
 ! A11   A(4,5,18)             116.1601         estimate D2E/DX2                !
 ! A12   A(6,5,18)             121.3408         estimate D2E/DX2                !
 ! A13   A(5,6,7)              116.7566         estimate D2E/DX2                !
 ! A14   A(6,7,8)              110.7569         estimate D2E/DX2                !
 ! A15   A(6,7,19)             124.6817         estimate D2E/DX2                !
 ! A16   A(8,7,19)             117.2719         estimate D2E/DX2                !
 ! A17   A(7,8,9)              112.8594         estimate D2E/DX2                !
 ! A18   A(7,8,13)             109.9302         estimate D2E/DX2                !
 ! A19   A(9,8,13)             134.3067         estimate D2E/DX2                !
 ! A20   A(8,9,10)             126.7026         estimate D2E/DX2                !
 ! A21   A(8,9,20)             119.1191         estimate D2E/DX2                !
 ! A22   A(10,9,20)            113.937          estimate D2E/DX2                !
 ! A23   A(9,10,11)            111.702          estimate D2E/DX2                !
 ! A24   A(9,10,21)            122.2673         estimate D2E/DX2                !
 ! A25   A(11,10,21)           125.5423         estimate D2E/DX2                !
 ! A26   A(10,11,12)           126.0889         estimate D2E/DX2                !
 ! A27   A(10,11,22)           104.9781         estimate D2E/DX2                !
 ! A28   A(12,11,22)           128.4456         estimate D2E/DX2                !
 ! A29   A(11,12,13)           130.3588         estimate D2E/DX2                !
 ! A30   A(11,12,23)           110.068          estimate D2E/DX2                !
 ! A31   A(13,12,23)           119.2864         estimate D2E/DX2                !
 ! A32   A(8,13,12)             89.9067         estimate D2E/DX2                !
 ! A33   A(8,13,14)            133.491          estimate D2E/DX2                !
 ! A34   A(12,13,14)           136.5844         estimate D2E/DX2                !
 ! A35   A(2,15,16)             79.7257         estimate D2E/DX2                !
 ! A36   A(4,16,15)             98.4536         estimate D2E/DX2                !
 ! A37   A(4,16,24)             97.8932         estimate D2E/DX2                !
 ! A38   A(15,16,24)           148.2687         estimate D2E/DX2                !
 ! D1    D(1,2,3,4)            139.2849         estimate D2E/DX2                !
 ! D2    D(1,2,3,17)           -92.0854         estimate D2E/DX2                !
 ! D3    D(15,2,3,4)           -47.7502         estimate D2E/DX2                !
 ! D4    D(15,2,3,17)           80.8794         estimate D2E/DX2                !
 ! D5    D(1,2,15,16)         -117.2558         estimate D2E/DX2                !
 ! D6    D(3,2,15,16)           71.5639         estimate D2E/DX2                !
 ! D7    D(2,3,4,5)            118.3609         estimate D2E/DX2                !
 ! D8    D(2,3,4,16)             5.9611         estimate D2E/DX2                !
 ! D9    D(17,3,4,5)            19.4265         estimate D2E/DX2                !
 ! D10   D(17,3,4,16)          -92.9733         estimate D2E/DX2                !
 ! D11   D(3,4,5,6)              5.8788         estimate D2E/DX2                !
 ! D12   D(3,4,5,18)          -151.6437         estimate D2E/DX2                !
 ! D13   D(16,4,5,6)           121.4061         estimate D2E/DX2                !
 ! D14   D(16,4,5,18)          -36.1165         estimate D2E/DX2                !
 ! D15   D(3,4,16,15)           47.159          estimate D2E/DX2                !
 ! D16   D(3,4,16,24)         -105.5509         estimate D2E/DX2                !
 ! D17   D(5,4,16,15)          -95.5798         estimate D2E/DX2                !
 ! D18   D(5,4,16,24)          111.7103         estimate D2E/DX2                !
 ! D19   D(4,5,6,7)           -141.9887         estimate D2E/DX2                !
 ! D20   D(18,5,6,7)            14.3217         estimate D2E/DX2                !
 ! D21   D(5,6,7,8)            134.8176         estimate D2E/DX2                !
 ! D22   D(5,6,7,19)           -76.0728         estimate D2E/DX2                !
 ! D23   D(6,7,8,9)            129.7123         estimate D2E/DX2                !
 ! D24   D(6,7,8,13)           -33.8621         estimate D2E/DX2                !
 ! D25   D(19,7,8,9)           -21.9298         estimate D2E/DX2                !
 ! D26   D(19,7,8,13)          174.4958         estimate D2E/DX2                !
 ! D27   D(7,8,9,10)          -145.0644         estimate D2E/DX2                !
 ! D28   D(7,8,9,20)            28.9288         estimate D2E/DX2                !
 ! D29   D(13,8,9,10)           13.1287         estimate D2E/DX2                !
 ! D30   D(13,8,9,20)         -172.8781         estimate D2E/DX2                !
 ! D31   D(7,8,13,12)          153.4132         estimate D2E/DX2                !
 ! D32   D(7,8,13,14)          -27.9822         estimate D2E/DX2                !
 ! D33   D(9,8,13,12)           -5.2339         estimate D2E/DX2                !
 ! D34   D(9,8,13,14)          173.3706         estimate D2E/DX2                !
 ! D35   D(8,9,10,11)          -10.064          estimate D2E/DX2                !
 ! D36   D(8,9,10,21)          177.5432         estimate D2E/DX2                !
 ! D37   D(20,9,10,11)         175.6765         estimate D2E/DX2                !
 ! D38   D(20,9,10,21)           3.2837         estimate D2E/DX2                !
 ! D39   D(9,10,11,12)           2.8049         estimate D2E/DX2                !
 ! D40   D(9,10,11,22)        -169.7175         estimate D2E/DX2                !
 ! D41   D(21,10,11,12)        174.8977         estimate D2E/DX2                !
 ! D42   D(21,10,11,22)          2.3753         estimate D2E/DX2                !
 ! D43   D(10,11,12,13)          3.579          estimate D2E/DX2                !
 ! D44   D(10,11,12,23)       -170.0937         estimate D2E/DX2                !
 ! D45   D(22,11,12,13)        174.342          estimate D2E/DX2                !
 ! D46   D(22,11,12,23)          0.6693         estimate D2E/DX2                !
 ! D47   D(11,12,13,8)          -2.2636         estimate D2E/DX2                !
 ! D48   D(11,12,13,14)        179.2095         estimate D2E/DX2                !
 ! D49   D(23,12,13,8)         170.9202         estimate D2E/DX2                !
 ! D50   D(23,12,13,14)         -7.6068         estimate D2E/DX2                !
 ! D51   D(2,15,16,4)          -69.9113         estimate D2E/DX2                !
 ! D52   D(2,15,16,24)          50.3755         estimate D2E/DX2                !
 --------------------------------------------------------------------------------
 Trust Radius=3.00D-01 FncErr=1.00D-07 GrdErr=1.00D-06 EigMax=2.50D+02 EigMin=1.00D-04
 Number of steps in this run=    125 maximum allowed number of steps=    144.
 GradGradGradGradGradGradGradGradGradGradGradGradGradGradGradGradGradGrad

                          Input orientation:                          
 ---------------------------------------------------------------------
 Center     Atomic      Atomic             Coordinates (Angstroms)
 Number     Number       Type             X           Y           Z
 ---------------------------------------------------------------------
      1          8           0        1.416820    0.211870   -0.327850
      2          6           0        2.478230    0.728630   -0.223630
      3          6           0        3.134380    1.197080    1.034790
      4          6           0        4.432270    0.787110    0.775630
      5          6           0        5.817250    1.390410    0.602160
      6          7           0        5.963050    2.612600    0.813320
      7          6           0        6.812930    3.279730   -0.013070
      8          6           0        6.280600    4.420680   -0.409460
      9          6           0        7.208980    5.601210   -0.216900
     10          6           0        6.857790    6.848790    0.113900
     11          6           0        5.430290    7.034330    0.052990
     12          6           0        4.477640    6.043550   -0.250230
     13          6           0        4.688620    4.257620   -0.566030
     14          7           0        3.811980    3.114630   -0.874900
     15          6           0        3.652340    1.393650   -1.146040
     16          6           0        4.360840    0.308610   -0.579480
     17          1           0        2.703780    2.215470    0.910050
     18          1           0        6.532590    0.817370   -0.068320
     19          1           0        7.882960    3.229590    0.042260
     20          1           0        8.281370    5.441250   -0.255080
     21          1           0        7.614500    7.660640    0.277000
     22          1           0        5.278750    8.128230    0.155960
     23          1           0        3.505450    6.495330   -0.395100
     24          1           0        4.406640   -0.824030   -0.350580
 ---------------------------------------------------------------------
                    Distance matrix (angstroms):
                    1          2          3          4          5
     1  O    0.000000
     2  C    1.185113   0.000000
     3  C    2.403630   1.494523   0.000000
     4  C    3.262132   2.195498   1.385553   0.000000
     5  C    4.649479   3.502704   2.724397   1.520603   0.000000
     6  N    5.266306   4.094946   3.170823   2.382671   1.248837
     7  C    6.215212   5.034091   4.355132   3.535922   2.222480
     8  C    6.432503   5.303186   4.730344   4.245420   3.228096
     9  C    7.912421   6.791324   6.129066   5.645422   4.509835
    10  C    8.593486   7.533315   6.830347   6.562393   5.578085
    11  C    7.924578   6.968000   6.348907   6.367575   5.683763
    12  C    6.586588   5.678620   5.190751   5.355801   4.916588
    13  C    5.208598   4.178137   3.787505   3.729639   3.295355
    14  N    3.802903   2.809989   2.789813   2.919993   3.029150
    15  C    2.657741   1.634511   2.250098   2.160786   2.782633
    16  C    2.956337   1.961445   2.213470   1.438884   2.165108
    17  H    2.683855   1.883294   1.112697   2.246321   3.235617
    18  H    5.158012   4.058304   3.592891   2.263738   1.135619
    19  H    7.145249   5.961259   5.259774   4.290781   2.821919
    20  H    8.629818   7.475708   6.794722   6.126904   4.818304
    21  H    9.708824   8.642029   7.900844   7.590826   6.530821
    22  H    8.821413   7.920927   7.308318   7.415697   6.774016
    23  H    6.621840   5.859984   5.500339   5.900286   5.692026
    24  H    3.164274   2.479039   2.760938   1.965904   2.793077
                    6          7          8          9         10
     6  N    0.000000
     7  C    1.360250   0.000000
     8  C    2.205716   1.319950   0.000000
     9  C    3.397865   2.363826   1.514140   0.000000
    10  C    4.385779   3.571600   2.550053   1.337617   0.000000
    11  C    4.518145   4.001634   2.787123   2.300089   1.440795
    12  C    3.887030   3.626090   2.430993   2.767127   2.538920
    13  C    2.496571   2.403066   1.607950   2.877384   3.446994
    14  N    2.780148   3.126613   2.831340   4.260945   4.919211
    15  C    3.265626   3.851006   4.075931   5.587177   6.451427
    16  C    3.132944   3.893728   4.541311   6.021211   7.034877
    17  H    3.284800   4.343951   4.404282   5.747180   6.273540
    18  H    2.079547   2.478883   3.628184   4.833705   6.042929
    19  H    2.158996   1.072632   2.047023   2.479112   3.762275
    20  H    3.810164   2.624320   2.251328   1.084926   2.035656
    21  H    5.338318   4.463074   3.570414   2.156301   1.121745
    22  H    5.596656   5.088244   3.881924   3.201662   2.032758
    23  H    4.751386   4.628764   3.464944   3.814098   3.409135
    24  H    3.948101   4.769171   5.569755   7.011040   8.068212
                   11         12         13         14         15
    11  C    0.000000
    12  C    1.407526   0.000000
    13  C    2.939962   1.825866   0.000000
    14  N    4.340962   3.067880   1.473202   0.000000
    15  C    6.034571   4.806783   3.100421   1.749507   0.000000
    16  C    6.839521   5.745571   3.962613   2.874416   1.414311
    17  H    5.602662   4.375731   3.207613   2.285310   2.408871
    18  H    6.315091   5.618618   3.934877   3.650985   3.128805
    19  H    4.526782   4.427203   3.410377   4.174599   4.762445
    20  H    3.280468   3.851123   3.795461   5.076690   6.213276
    21  H    2.283247   3.568311   4.566401   6.037569   7.549763
    22  H    1.109137   2.269947   3.981350   5.324497   7.049467
    23  H    2.048491   1.081779   2.537017   3.428309   5.158743
    24  H    7.935020   6.868680   5.094026   4.017658   2.473829
                   16         17         18         19         20
    16  C    0.000000
    17  H    2.932689   0.000000
    18  H    2.288366   4.191858   0.000000
    19  H    4.617793   5.348402   2.766683   0.000000
    20  H    6.466822   6.547724   4.947057   2.266844   0.000000
    21  H    8.085308   7.359742   6.936867   4.445377   2.377712
    22  H    7.907584   6.493062   7.420990   5.549010   4.050252
    23  H    6.248295   4.545689   6.442794   5.478954   4.892862
    24  H    1.156446   3.705061   2.700653   5.354527   7.367251
                   21         22         23         24
    21  H    0.000000
    22  H    2.385166   0.000000
    23  H    4.323651   2.472776   0.000000
    24  H    9.092516   9.008891   7.374765   0.000000
 Stoichiometry    C13H8N2O
 Framework group  C1[X(C13H8N2O)]
 Deg. of freedom    66
 Full point group                 C1      NOp   1
 Largest Abelian subgroup         C1      NOp   1
 Largest concise Abelian subgroup C1      NOp   1
                         Standard orientation:                         
 ---------------------------------------------------------------------
 Center     Atomic      Atomic             Coordinates (Angstroms)
 Number     Number       Type             X           Y           Z
 ---------------------------------------------------------------------
      1          8           0        4.208968   -1.489042    0.015423
      2          6           0        3.226007   -0.827174    0.000831
      3          6           0        2.486815   -0.282829    1.180188
      4          6           0        2.184545    0.977963    0.691520
      5          6           0        0.963950    1.822700    0.361671
      6          7           0       -0.164606    1.374373    0.653147
      7          6           0       -1.167920    1.618458   -0.232326
      8          6           0       -1.881817    0.528309   -0.442547
      9          6           0       -3.370275    0.761899   -0.292392
     10          6           0       -4.269622   -0.100044    0.194896
     11          6           0       -3.707383   -1.415162    0.368798
     12          6           0       -2.370047   -1.783344    0.129834
     13          6           0       -0.935427   -0.769489   -0.367912
     14          7           0        0.494769   -0.998265   -0.637217
     15          6           0        2.060737   -0.323607   -1.028825
     16          6           0        2.636857    0.918097   -0.673111
     17          1           0        1.826490   -1.177870    1.211270
     18          1           0        1.098079    2.598024   -0.457177
     19          1           0       -1.666107    2.561618   -0.345456
     20          1           0       -3.774689    1.745395   -0.507451
     21          1           0       -5.353138    0.166384    0.310314
     22          1           0       -4.574587   -2.070971    0.588020
     23          1           0       -2.267585   -2.859326    0.174665
     24          1           0        3.590130    1.561656   -0.552831
 ---------------------------------------------------------------------
 Rotational constants (GHZ):           1.4182274           0.3370017           0.2926045
 Standard basis: 6-31G(2df,p) (6D, 7F)
 There are   536 symmetry adapted cartesian basis functions of A   symmetry.
 There are   488 symmetry adapted basis functions of A   symmetry.
   488 basis functions,   760 primitive gaussians,   536 cartesian basis functions
    54 alpha electrons       54 beta electrons
       nuclear repulsion energy       956.8850695481 Hartrees.
 NAtoms=   24 NActive=   24 NUniq=   24 SFac= 1.00D+00 NAtFMM=   60 NAOKFM=F Big=F
 Integral buffers will be    131072 words long.
 Raffenetti 2 integral format.
 Two-electron integral symmetry is turned on.
 One-electron integrals computed using PRISM.
 PrsmSu:  requested number of processors reduced to:  12 ShMem   1 Linda.
 NBasis=   488 RedAO= T EigKep=  2.41D-04  NBF=   488
 NBsUse=   488 1.00D-06 EigRej= -1.00D+00 NBFU=   488
 ExpMin= 1.61D-01 ExpMax= 5.48D+03 ExpMxC= 8.25D+02 IAcc=3 IRadAn=         5 AccDes= 0.00D+00
 Harris functional with IExCor=  402 and IRadAn=       5 diagonalized for initial guess.
 HarFok:  IExCor=  402 AccDes= 0.00D+00 IRadAn=         5 IDoV= 1 UseB2=F ITyADJ=14
 ICtDFT=  3500011 ScaDFX=  1.000000  1.000000  1.000000  1.000000
 FoFCou: FMM=F IPFlag=           0 FMFlag=      100000 FMFlg1=           0
         NFxFlg=           0 DoJE=T BraDBF=F KetDBF=T FulRan=T
         wScrn=  0.000000 ICntrl=       500 IOpCl=  0 I1Cent=   200000004 NGrid=           0
         NMat0=    1 NMatS0=      1 NMatT0=    0 NMatD0=    1 NMtDS0=    0 NMtDT0=    0
 Petite list used in FoFCou.
 Requested convergence on RMS density matrix=1.00D-08 within 128 cycles.
 Requested convergence on MAX density matrix=1.00D-06.
 Requested convergence on             energy=1.00D-06.
 No special actions if energy rises.
 Integral accuracy reduced to 1.0D-05 until final iterations.
 Problem detected with inexpensive integrals.
 Switching to full accuracy and repeating last cycle.
 EnCoef did     8 forward-backward iterations
 SCF Done:  E(RB3LYP) =  -684.257183758     A.U. after   24 cycles
            NFock= 24  Conv=0.49D-08     -V/T= 2.0084

 **********************************************************************

            Population analysis using the SCF density.

 **********************************************************************

 Orbital symmetries:
       Occupied  (A) (A) (A) (A) (A) (A) (A) (A) (A) (A) (A) (A)
                 (A) (A) (A) (A) (A) (A) (A) (A) (A) (A) (A) (A)
                 (A) (A) (A) (A) (A) (A) (A) (A) (A) (A) (A) (A)
                 (A) (A) (A) (A) (A) (A) (A) (A) (A) (A) (A) (A)
                 (A) (A) (A) (A) (A) (A)
       Virtual   (A) (A) (A) (A) (A) (A) (A) (A) (A) (A) (A) (A)
                 (A) (A) (A) (A) (A) (A) (A) (A) (A) (A) (A) (A)
                 (A) (A) (A) (A) (A) (A) (A) (A) (A) (A) (A) (A)
                 (A) (A) (A) (A) (A) (A) (A) (A) (A) (A) (A) (A)
                 (A) (A) (A) (A) (A) (A) (A) (A) (A) (A) (A) (A)
                 (A) (A) (A) (A) (A) (A) (A) (A) (A) (A) (A) (A)
                 (A) (A) (A) (A) (A) (A) (A) (A) (A) (A) (A) (A)
                 (A) (A) (A) (A) (A) (A) (A) (A) (A) (A) (A) (A)
                 (A) (A) (A) (A) (A) (A) (A) (A) (A) (A) (A) (A)
                 (A) (A) (A) (A) (A) (A) (A) (A) (A) (A) (A) (A)
                 (A) (A) (A) (A) (A) (A) (A) (A) (A) (A) (A) (A)
                 (A) (A) (A) (A) (A) (A) (A) (A) (A) (A) (A) (A)
                 (A) (A) (A) (A) (A) (A) (A) (A) (A) (A) (A) (A)
                 (A) (A) (A) (A) (A) (A) (A) (A) (A) (A) (A) (A)
                 (A) (A) (A) (A) (A) (A) (A) (A) (A) (A) (A) (A)
                 (A) (A) (A) (A) (A) (A) (A) (A) (A) (A) (A) (A)
                 (A) (A) (A) (A) (A) (A) (A) (A) (A) (A) (A) (A)
                 (A) (A) (A) (A) (A) (A) (A) (A) (A) (A) (A) (A)
                 (A) (A) (A) (A) (A) (A) (A) (A) (A) (A) (A) (A)
                 (A) (A) (A) (A) (A) (A) (A) (A) (A) (A) (A) (A)
                 (A) (A) (A) (A) (A) (A) (A) (A) (A) (A) (A) (A)
                 (A) (A) (A) (A) (A) (A) (A) (A) (A) (A) (A) (A)
                 (A) (A) (A) (A) (A) (A) (A) (A) (A) (A) (A) (A)
                 (A) (A) (A) (A) (A) (A) (A) (A) (A) (A) (A) (A)
                 (A) (A) (A) (A) (A) (A) (A) (A) (A) (A) (A) (A)
                 (A) (A) (A) (A) (A) (A) (A) (A) (A) (A) (A) (A)
                 (A) (A) (A) (A) (A) (A) (A) (A) (A) (A) (A) (A)
                 (A) (A) (A) (A) (A) (A) (A) (A) (A) (A) (A) (A)
                 (A) (A) (A) (A) (A) (A) (A) (A) (A) (A) (A) (A)
                 (A) (A) (A) (A) (A) (A) (A) (A) (A) (A) (A) (A)
                 (A) (A) (A) (A) (A) (A) (A) (A) (A) (A) (A) (A)
                 (A) (A) (A) (A) (A) (A) (A) (A) (A) (A) (A) (A)
                 (A) (A) (A) (A) (A) (A) (A) (A) (A) (A) (A) (A)
                 (A) (A) (A) (A) (A) (A) (A) (A) (A) (A) (A) (A)
                 (A) (A) (A) (A) (A) (A) (A) (A) (A) (A) (A) (A)
                 (A) (A) (A) (A) (A) (A) (A) (A) (A) (A) (A) (A)
                 (A) (A)
 The electronic state is 1-A.
 Alpha  occ. eigenvalues --  -19.14751 -14.35595 -14.35429 -10.30329 -10.29800
 Alpha  occ. eigenvalues --  -10.29415 -10.27350 -10.25468 -10.24053 -10.23515
 Alpha  occ. eigenvalues --  -10.23362 -10.21947 -10.21921 -10.21373 -10.21185
 Alpha  occ. eigenvalues --  -10.19574  -1.06803  -0.99271  -0.93947  -0.85179
 Alpha  occ. eigenvalues --   -0.81158  -0.79052  -0.73860  -0.72835  -0.72050
 Alpha  occ. eigenvalues --   -0.64922  -0.61849  -0.59606  -0.57166  -0.54976
 Alpha  occ. eigenvalues --   -0.52863  -0.51406  -0.50222  -0.49170  -0.47618
 Alpha  occ. eigenvalues --   -0.46496  -0.45330  -0.44447  -0.43494  -0.41844
 Alpha  occ. eigenvalues --   -0.39731  -0.38547  -0.37597  -0.36768  -0.35135
 Alpha  occ. eigenvalues --   -0.32299  -0.32013  -0.29281  -0.27877  -0.26135
 Alpha  occ. eigenvalues --   -0.25307  -0.23186  -0.21750  -0.20365
 Alpha virt. eigenvalues --   -0.12867  -0.10110  -0.08261  -0.04616  -0.02406
 Alpha virt. eigenvalues --   -0.00368   0.01551   0.03063   0.06022   0.08976
 Alpha virt. eigenvalues --    0.09604   0.10716   0.11201   0.12246   0.12795
 Alpha virt. eigenvalues --    0.13473   0.15141   0.15408   0.18892   0.19223
 Alpha virt. eigenvalues --    0.20607   0.22125   0.23756   0.26140   0.26999
 Alpha virt. eigenvalues --    0.28589   0.28621   0.30979   0.32765   0.33653
 Alpha virt. eigenvalues --    0.35439   0.38291   0.38588   0.39034   0.39836
 Alpha virt. eigenvalues --    0.42472   0.43155   0.44126   0.44945   0.45797
 Alpha virt. eigenvalues --    0.46954   0.48033   0.48200   0.49043   0.50937
 Alpha virt. eigenvalues --    0.51163   0.51927   0.52654   0.53426   0.54214
 Alpha virt. eigenvalues --    0.55384   0.55578   0.56115   0.57143   0.57803
 Alpha virt. eigenvalues --    0.60068   0.60484   0.61535   0.61826   0.62586
 Alpha virt. eigenvalues --    0.63752   0.64715   0.64805   0.65379   0.66018
 Alpha virt. eigenvalues --    0.67965   0.68845   0.69867   0.70244   0.70755
 Alpha virt. eigenvalues --    0.71360   0.71611   0.73729   0.73982   0.74365
 Alpha virt. eigenvalues --    0.75116   0.75621   0.76649   0.76939   0.77711
 Alpha virt. eigenvalues --    0.78084   0.78949   0.80125   0.81132   0.81775
 Alpha virt. eigenvalues --    0.82888   0.84572   0.84913   0.85773   0.86796
 Alpha virt. eigenvalues --    0.87862   0.88923   0.89535   0.90475   0.92288
 Alpha virt. eigenvalues --    0.93924   0.95963   0.96531   0.97043   0.98543
 Alpha virt. eigenvalues --    0.99352   1.00965   1.02530   1.03677   1.05482
 Alpha virt. eigenvalues --    1.05893   1.06879   1.08016   1.10170   1.10685
 Alpha virt. eigenvalues --    1.13466   1.14803   1.17644   1.18271   1.19020
 Alpha virt. eigenvalues --    1.19814   1.23018   1.23536   1.25550   1.26247
 Alpha virt. eigenvalues --    1.26737   1.27394   1.29566   1.29842   1.31677
 Alpha virt. eigenvalues --    1.31799   1.33614   1.34548   1.35929   1.36958
 Alpha virt. eigenvalues --    1.38041   1.38334   1.39337   1.40893   1.43034
 Alpha virt. eigenvalues --    1.44065   1.44950   1.46621   1.47164   1.48781
 Alpha virt. eigenvalues --    1.49509   1.51636   1.53029   1.53468   1.55512
 Alpha virt. eigenvalues --    1.55820   1.56833   1.57809   1.58833   1.60398
 Alpha virt. eigenvalues --    1.62174   1.62768   1.65338   1.65892   1.67796
 Alpha virt. eigenvalues --    1.69287   1.69474   1.70606   1.71872   1.72889
 Alpha virt. eigenvalues --    1.74241   1.74734   1.77541   1.79090   1.80597
 Alpha virt. eigenvalues --    1.81909   1.83002   1.87030   1.87582   1.88673
 Alpha virt. eigenvalues --    1.90768   1.92819   1.93749   1.95209   1.97610
 Alpha virt. eigenvalues --    1.98030   1.99735   2.01829   2.04383   2.06002
 Alpha virt. eigenvalues --    2.07621   2.10324   2.12721   2.14773   2.19223
 Alpha virt. eigenvalues --    2.20189   2.21695   2.23408   2.25912   2.28762
 Alpha virt. eigenvalues --    2.34217   2.34661   2.35635   2.40797   2.41386
 Alpha virt. eigenvalues --    2.43001   2.44094   2.47081   2.48468   2.51582
 Alpha virt. eigenvalues --    2.54346   2.58035   2.60557   2.63376   2.66675
 Alpha virt. eigenvalues --    2.68513   2.68836   2.69402   2.71535   2.73736
 Alpha virt. eigenvalues --    2.74975   2.75676   2.77329   2.78400   2.79704
 Alpha virt. eigenvalues --    2.82748   2.85006   2.86106   2.87009   2.87316
 Alpha virt. eigenvalues --    2.88198   2.88468   2.90494   2.93472   2.95972
 Alpha virt. eigenvalues --    2.96978   2.97856   2.98088   2.99883   3.01448
 Alpha virt. eigenvalues --    3.01985   3.03531   3.05092   3.05289   3.06560
 Alpha virt. eigenvalues --    3.07441   3.09127   3.09466   3.11044   3.12873
 Alpha virt. eigenvalues --    3.14044   3.15612   3.17711   3.18838   3.19059
 Alpha virt. eigenvalues --    3.20777   3.21941   3.23176   3.25114   3.25625
 Alpha virt. eigenvalues --    3.26115   3.28378   3.29497   3.29984   3.32112
 Alpha virt. eigenvalues --    3.32476   3.34091   3.35796   3.36590   3.37400
 Alpha virt. eigenvalues --    3.38533   3.39681   3.40756   3.41488   3.42370
 Alpha virt. eigenvalues --    3.45366   3.47230   3.48789   3.51830   3.52171
 Alpha virt. eigenvalues --    3.53053   3.54420   3.55679   3.57081   3.58570
 Alpha virt. eigenvalues --    3.58778   3.62040   3.62541   3.65104   3.67387
 Alpha virt. eigenvalues --    3.68918   3.70424   3.70943   3.71470   3.73435
 Alpha virt. eigenvalues --    3.75062   3.76509   3.79766   3.80893   3.83396
 Alpha virt. eigenvalues --    3.83668   3.85345   3.88127   3.91422   3.92175
 Alpha virt. eigenvalues --    3.95894   3.97733   3.98305   4.00640   4.01075
 Alpha virt. eigenvalues --    4.02609   4.03657   4.06629   4.08360   4.12056
 Alpha virt. eigenvalues --    4.13504   4.15660   4.16582   4.18519   4.19865
 Alpha virt. eigenvalues --    4.21064   4.21969   4.24206   4.25020   4.28450
 Alpha virt. eigenvalues --    4.29065   4.30991   4.32637   4.33218   4.34637
 Alpha virt. eigenvalues --    4.36015   4.36479   4.37938   4.39338   4.40210
 Alpha virt. eigenvalues --    4.42475   4.43629   4.44620   4.45825   4.46285
 Alpha virt. eigenvalues --    4.47326   4.48436   4.50757   4.51339   4.53002
 Alpha virt. eigenvalues --    4.53775   4.53857   4.55359   4.55740   4.55944
 Alpha virt. eigenvalues --    4.57510   4.58133   4.59677   4.61100   4.62685
 Alpha virt. eigenvalues --    4.64392   4.65880   4.66683   4.68587   4.70199
 Alpha virt. eigenvalues --    4.70540   4.71009   4.73068   4.73339   4.74198
 Alpha virt. eigenvalues --    4.76429   4.77443   4.79769   4.80506   4.81701
 Alpha virt. eigenvalues --    4.82148   4.83169   4.85885   4.87276   4.87969
 Alpha virt. eigenvalues --    4.89169   4.90603   4.93157   4.95178   4.96028
 Alpha virt. eigenvalues --    4.98710   5.02983   5.03806   5.05452   5.06779
 Alpha virt. eigenvalues --    5.08330   5.09675   5.11213   5.12688   5.13014
 Alpha virt. eigenvalues --    5.14822   5.16243   5.17348   5.20855   5.22086
 Alpha virt. eigenvalues --    5.25783   5.26830   5.28137   5.31659   5.33079
 Alpha virt. eigenvalues --    5.36083   5.38072   5.40259   5.41828   5.47408
 Alpha virt. eigenvalues --    5.48631   5.51658   5.53853   5.55937   5.59258
 Alpha virt. eigenvalues --    5.61758   5.66121   5.68649   5.70416   5.71388
 Alpha virt. eigenvalues --    5.78377   5.81392   5.86286   5.90176   6.05373
 Alpha virt. eigenvalues --    6.09040   6.17284   6.28538   6.41676   6.66472
 Alpha virt. eigenvalues --    6.94280   9.74112  10.29041  10.43352  10.65069
 Alpha virt. eigenvalues --   11.08232  11.27768  11.31151  11.36487  11.44059
 Alpha virt. eigenvalues --   11.45895  11.74940  11.83689  12.06509  12.24862
 Alpha virt. eigenvalues --   12.62913  13.31575  13.63422  15.31922
          Condensed to atoms (all electrons):
               1          2          3          4          5          6
     1  O    7.593773   0.811567  -0.066592  -0.000606  -0.000141  -0.000003
     2  C    0.811567   4.373024   0.378817  -0.030379   0.006244  -0.000441
     3  C   -0.066592   0.378817   5.452343   0.510846  -0.026929  -0.006009
     4  C   -0.000606  -0.030379   0.510846   4.944233   0.349362  -0.041865
     5  C   -0.000141   0.006244  -0.026929   0.349362   4.949884   0.647061
     6  N   -0.000003  -0.000441  -0.006009  -0.041865   0.647061   6.221293
     7  C   -0.000000   0.000028   0.000127   0.005333  -0.122955   0.429300
     8  C    0.000000  -0.000013  -0.000242   0.001315  -0.000420  -0.078302
     9  C    0.000000  -0.000000   0.000001  -0.000013   0.000261  -0.000379
    10  C   -0.000000   0.000000   0.000000  -0.000000   0.000004   0.000349
    11  C   -0.000000   0.000000   0.000000   0.000000  -0.000002   0.000026
    12  C    0.000000  -0.000013   0.000011  -0.000016   0.000062   0.001662
    13  C   -0.000013   0.001297   0.001358  -0.001455   0.001284  -0.015430
    14  N    0.000327  -0.020559  -0.013516  -0.030761  -0.008845  -0.002932
    15  C   -0.046004   0.184399  -0.108671  -0.064226  -0.021324  -0.003726
    16  C   -0.013860  -0.030091  -0.193705   0.370493  -0.055585  -0.004703
    17  H   -0.000564  -0.054224   0.315226  -0.020293  -0.004415   0.001596
    18  H   -0.000002   0.000144   0.004214  -0.058547   0.364345  -0.053567
    19  H   -0.000000  -0.000001  -0.000009  -0.000373   0.000254  -0.040121
    20  H    0.000000  -0.000000  -0.000000   0.000001   0.000024  -0.000034
    21  H   -0.000000  -0.000000  -0.000000   0.000000  -0.000000  -0.000001
    22  H    0.000000  -0.000000   0.000000  -0.000000  -0.000000   0.000001
    23  H   -0.000000   0.000000  -0.000006   0.000001   0.000001  -0.000023
    24  H    0.000108   0.008135   0.002674  -0.059280  -0.000275   0.000197
               7          8          9         10         11         12
     1  O   -0.000000   0.000000   0.000000  -0.000000  -0.000000   0.000000
     2  C    0.000028  -0.000013  -0.000000   0.000000   0.000000  -0.000013
     3  C    0.000127  -0.000242   0.000001   0.000000   0.000000   0.000011
     4  C    0.005333   0.001315  -0.000013  -0.000000   0.000000  -0.000016
     5  C   -0.122955  -0.000420   0.000261   0.000004  -0.000002   0.000062
     6  N    0.429300  -0.078302  -0.000379   0.000349   0.000026   0.001662
     7  C    4.985378   0.513343  -0.013676  -0.002027   0.001308   0.001904
     8  C    0.513343   4.894456   0.339227   0.025375  -0.040842  -0.033300
     9  C   -0.013676   0.339227   4.876314   0.618661   0.005817  -0.040789
    10  C   -0.002027   0.025375   0.618661   4.768973   0.449706  -0.005697
    11  C    0.001308  -0.040842   0.005817   0.449706   4.747761   0.599057
    12  C    0.001904  -0.033300  -0.040789  -0.005697   0.599057   5.112965
    13  C   -0.028294   0.309621  -0.013326  -0.010164  -0.001363   0.304723
    14  N    0.000728  -0.030393   0.001491  -0.000050   0.000361  -0.018825
    15  C    0.002914  -0.001682   0.000027  -0.000001  -0.000001   0.000395
    16  C   -0.000811   0.000444  -0.000003   0.000000   0.000000  -0.000010
    17  H   -0.000205   0.000221  -0.000002   0.000000   0.000000  -0.000085
    18  H   -0.007214  -0.001603  -0.000021   0.000001  -0.000000   0.000002
    19  H    0.339267  -0.039465  -0.008467   0.000238  -0.000142  -0.000158
    20  H   -0.004516  -0.060651   0.369837  -0.052038   0.007219   0.000606
    21  H   -0.000034   0.004140  -0.034070   0.369416  -0.041041   0.004208
    22  H   -0.000004   0.000944   0.003824  -0.052021   0.360499  -0.041083
    23  H   -0.000184   0.002687   0.001274   0.004339  -0.041373   0.343659
    24  H    0.000075  -0.000008   0.000000  -0.000000  -0.000000   0.000000
              13         14         15         16         17         18
     1  O   -0.000013   0.000327  -0.046004  -0.013860  -0.000564  -0.000002
     2  C    0.001297  -0.020559   0.184399  -0.030091  -0.054224   0.000144
     3  C    0.001358  -0.013516  -0.108671  -0.193705   0.315226   0.004214
     4  C   -0.001455  -0.030761  -0.064226   0.370493  -0.020293  -0.058547
     5  C    0.001284  -0.008845  -0.021324  -0.055585  -0.004415   0.364345
     6  N   -0.015430  -0.002932  -0.003726  -0.004703   0.001596  -0.053567
     7  C   -0.028294   0.000728   0.002914  -0.000811  -0.000205  -0.007214
     8  C    0.309621  -0.030393  -0.001682   0.000444   0.000221  -0.001603
     9  C   -0.013326   0.001491   0.000027  -0.000003  -0.000002  -0.000021
    10  C   -0.010164  -0.000050  -0.000001   0.000000   0.000000   0.000001
    11  C   -0.001363   0.000361  -0.000001   0.000000   0.000000  -0.000000
    12  C    0.304723  -0.018825   0.000395  -0.000010  -0.000085   0.000002
    13  C    4.870038   0.464394  -0.015213  -0.000371   0.001010   0.000630
    14  N    0.464394   6.865137   0.204591  -0.008837   0.028342  -0.000316
    15  C   -0.015213   0.204591   5.526559   0.413772   0.011549  -0.000829
    16  C   -0.000371  -0.008837   0.413772   5.327858   0.016060   0.002875
    17  H    0.001010   0.028342   0.011549   0.016060   0.495264  -0.000029
    18  H    0.000630  -0.000316  -0.000829   0.002875  -0.000029   0.620584
    19  H    0.005845   0.000062  -0.000087  -0.000056   0.000002   0.004698
    20  H    0.001770  -0.000010  -0.000000  -0.000000   0.000000  -0.000005
    21  H   -0.000021   0.000000  -0.000000  -0.000000  -0.000000  -0.000000
    22  H    0.001671  -0.000003   0.000000  -0.000000  -0.000000   0.000000
    23  H   -0.030640   0.000842  -0.000026   0.000000   0.000024  -0.000000
    24  H   -0.000019   0.000803  -0.019152   0.345846  -0.000597   0.000853
              19         20         21         22         23         24
     1  O   -0.000000   0.000000  -0.000000   0.000000  -0.000000   0.000108
     2  C   -0.000001  -0.000000  -0.000000  -0.000000   0.000000   0.008135
     3  C   -0.000009  -0.000000  -0.000000   0.000000  -0.000006   0.002674
     4  C   -0.000373   0.000001   0.000000  -0.000000   0.000001  -0.059280
     5  C    0.000254   0.000024  -0.000000  -0.000000   0.000001  -0.000275
     6  N   -0.040121  -0.000034  -0.000001   0.000001  -0.000023   0.000197
     7  C    0.339267  -0.004516  -0.000034  -0.000004  -0.000184   0.000075
     8  C   -0.039465  -0.060651   0.004140   0.000944   0.002687  -0.000008
     9  C   -0.008467   0.369837  -0.034070   0.003824   0.001274   0.000000
    10  C    0.000238  -0.052038   0.369416  -0.052021   0.004339  -0.000000
    11  C   -0.000142   0.007219  -0.041041   0.360499  -0.041373  -0.000000
    12  C   -0.000158   0.000606   0.004208  -0.041083   0.343659   0.000000
    13  C    0.005845   0.001770  -0.000021   0.001671  -0.030640  -0.000019
    14  N    0.000062  -0.000010   0.000000  -0.000003   0.000842   0.000803
    15  C   -0.000087  -0.000000  -0.000000   0.000000  -0.000026  -0.019152
    16  C   -0.000056  -0.000000  -0.000000  -0.000000   0.000000   0.345846
    17  H    0.000002   0.000000  -0.000000  -0.000000   0.000024  -0.000597
    18  H    0.004698  -0.000005  -0.000000   0.000000  -0.000000   0.000853
    19  H    0.607804   0.007068  -0.000009  -0.000002   0.000006  -0.000002
    20  H    0.007068   0.641790  -0.007519  -0.000590   0.000022  -0.000000
    21  H   -0.000009  -0.007519   0.595648  -0.003890  -0.000136  -0.000000
    22  H   -0.000002  -0.000590  -0.003890   0.628280  -0.008915   0.000000
    23  H    0.000006   0.000022  -0.000136  -0.008915   0.619258  -0.000000
    24  H   -0.000002  -0.000000  -0.000000   0.000000  -0.000000   0.534629
 Mulliken charges:
               1
     1  O   -0.277992
     2  C    0.372066
     3  C   -0.249940
     4  C    0.126230
     5  C   -0.077896
     6  N   -0.053948
     7  C   -0.099786
     8  C    0.195149
     9  C   -0.105986
    10  C   -0.115065
    11  C   -0.046991
    12  C   -0.229277
    13  C    0.152669
    14  N   -0.432032
    15  C   -0.063262
    16  C   -0.169319
    17  H    0.211120
    18  H    0.123787
    19  H    0.123649
    20  H    0.097025
    21  H    0.113309
    22  H    0.111289
    23  H    0.109190
    24  H    0.186012
 Sum of Mulliken charges =  -0.00000
 Mulliken charges with hydrogens summed into heavy atoms:
               1
     1  O   -0.277992
     2  C    0.372066
     3  C   -0.038819
     4  C    0.126230
     5  C    0.045890
     6  N   -0.053948
     7  C    0.023863
     8  C    0.195149
     9  C   -0.008961
    10  C   -0.001756
    11  C    0.064298
    12  C   -0.120088
    13  C    0.152669
    14  N   -0.432032
    15  C   -0.063262
    16  C    0.016693
 Electronic spatial extent (au):  <R**2>=           3619.6481
 Charge=             -0.0000 electrons
 Dipole moment (field-independent basis, Debye):
    X=             -3.0001    Y=              4.8233    Z=              0.5273  Tot=              5.7046
 Quadrupole moment (field-independent basis, Debye-Ang):
   XX=            -86.6273   YY=            -85.5796   ZZ=            -94.8940
   XY=              9.9021   XZ=              1.2406   YZ=             -3.9387
 Traceless Quadrupole moment (field-independent basis, Debye-Ang):
   XX=              2.4064   YY=              3.4540   ZZ=             -5.8604
   XY=              9.9021   XZ=              1.2406   YZ=             -3.9387
 Octapole moment (field-independent basis, Debye-Ang**2):
  XXX=           -105.7166  YYY=             15.7045  ZZZ=              3.3952  XYY=            -13.1586
  XXY=             43.0935  XXZ=              8.9631  XZZ=              9.1385  YZZ=             -0.3434
  YYZ=              1.8549  XYZ=              1.4380
 Hexadecapole moment (field-independent basis, Debye-Ang**3):
 XXXX=          -3696.1894 YYYY=           -821.1456 ZZZZ=           -276.1354 XXXY=            177.6714
 XXXZ=            -37.5889 YYYX=              0.7310 YYYZ=            -16.2492 ZZZX=              6.3539
 ZZZY=              1.5370 XXYY=           -764.3789 XXZZ=           -707.0571 YYZZ=           -197.7179
 XXYZ=            -21.4746 YYXZ=              4.2228 ZZXY=            -13.8317
 N-N= 9.568850695481D+02 E-N=-3.503984984471D+03  KE= 6.785584970924D+02
 PrsmSu:  requested number of processors reduced to:  13 ShMem   1 Linda.
 Calling FoFJK, ICntrl=      2127 FMM=F ISym2X=0 I1Cent= 0 IOpClX= 0 NMat=1 NMatS=1 NMatT=0.
 ***** Axes restored to original set *****
 -------------------------------------------------------------------
 Center     Atomic                   Forces (Hartrees/Bohr)
 Number     Number              X              Y              Z
 -------------------------------------------------------------------
      1        8          -0.009323984   -0.009655839   -0.031289556
      2        6          -0.018352128   -0.001030482    0.020666570
      3        6          -0.000236141    0.046740730   -0.046240094
      4        6           0.058244925    0.053660927    0.005244142
      5        6          -0.005943606   -0.062398084    0.025017763
      6        7          -0.002794098   -0.009398713    0.007296269
      7        6           0.030418737    0.010282105    0.035883378
      8        6          -0.036913967    0.028979582   -0.028913206
      9        6           0.005896499   -0.022134979   -0.019489573
     10        6          -0.011484302   -0.008764456   -0.008083956
     11        6           0.001458628   -0.011290204   -0.008530235
     12        6          -0.014201998   -0.009762419   -0.011622186
     13        6           0.021741399    0.021332549    0.002816617
     14        7           0.038788034    0.089631899    0.024884811
     15        6          -0.012906620    0.002594313   -0.001026039
     16        6           0.009393202   -0.077981378    0.006209258
     17        1           0.009769746    0.005786263    0.061315116
     18        1          -0.016406363    0.003859257    0.016899348
     19        1           0.013945889   -0.015280457    0.004690207
     20        1           0.001262225   -0.016950154   -0.002237703
     21        1          -0.020192611   -0.016969283   -0.000244916
     22        1          -0.029516945   -0.015543917   -0.001150043
     23        1          -0.010278722   -0.010843746    0.001377996
     24        1          -0.002367798    0.025136488   -0.053473968
 -------------------------------------------------------------------
 Cartesian Forces:  Max     0.089631899 RMS     0.027036596

 GradGradGradGradGradGradGradGradGradGradGradGradGradGradGradGradGradGrad
 Berny optimization.
 FormGI is forming the generalized inverse of G from B-inverse, IUseBI=4.
 Internal  Forces:  Max     0.122872509 RMS     0.032754875
 Search for a local minimum.
 Step number   1 out of a maximum of  125
 All quantities printed in internal units (Hartrees-Bohrs-Radians)
 Mixed Optimization -- RFO/linear search
 Second derivative matrix not updated -- first step.
 ITU=  0
     Eigenvalues ---    0.00232   0.00466   0.00493   0.00628   0.00987
     Eigenvalues ---    0.01155   0.01484   0.01655   0.01838   0.01965
     Eigenvalues ---    0.02053   0.02102   0.02218   0.02348   0.02969
     Eigenvalues ---    0.03148   0.03530   0.03646   0.03691   0.05603
     Eigenvalues ---    0.07758   0.08991   0.09358   0.13638   0.14371
     Eigenvalues ---    0.15002   0.15524   0.15762   0.15885   0.15941
     Eigenvalues ---    0.15948   0.18586   0.20623   0.21880   0.22151
     Eigenvalues ---    0.22196   0.22280   0.22333   0.23224   0.23607
     Eigenvalues ---    0.24081   0.24570   0.24977   0.25000   0.28139
     Eigenvalues ---    0.30031   0.30305   0.30309   0.30827   0.31387
     Eigenvalues ---    0.32316   0.32692   0.35360   0.35406   0.35780
     Eigenvalues ---    0.36899   0.37423   0.38599   0.38654   0.43138
     Eigenvalues ---    0.45694   0.52897   0.55975   0.61944   0.83668
     Eigenvalues ---    1.12674
 RFO step:  Lambda=-2.84247653D-01 EMin= 2.31612380D-03
 Linear search not attempted -- first point.
 Maximum step size (   0.300) exceeded in Quadratic search.
    -- Step size scaled by   0.546
 Iteration  1 RMS(Cart)=  0.28164526 RMS(Int)=  0.01928621
 Iteration  2 RMS(Cart)=  0.12812336 RMS(Int)=  0.00292304
 Iteration  3 RMS(Cart)=  0.00419751 RMS(Int)=  0.00072698
 Iteration  4 RMS(Cart)=  0.00000889 RMS(Int)=  0.00072697
 Iteration  5 RMS(Cart)=  0.00000001 RMS(Int)=  0.00072697
 Variable       Old X    -DE/DX   Delta X   Delta X   Delta X     New X
                                 (Linear)    (Quad)   (Total)
    R1        2.23954   0.01531   0.00000   0.00593   0.00593   2.24547
    R2        2.82424   0.03309   0.00000   0.02711   0.02698   2.85122
    R3        3.08878  -0.00482   0.00000  -0.00714  -0.00722   3.08156
    R4        2.61832   0.02021   0.00000   0.01577   0.01565   2.63396
    R5        2.10269  -0.00536   0.00000  -0.00482  -0.00482   2.09787
    R6        2.87352  -0.05352   0.00000  -0.04977  -0.04977   2.82375
    R7        2.71910   0.05190   0.00000   0.04423   0.04433   2.76343
    R8        2.35996   0.01106   0.00000   0.00539   0.00539   2.36535
    R9        2.14601  -0.02226   0.00000  -0.02080  -0.02080   2.12521
   R10        2.57050   0.01191   0.00000   0.00800   0.00800   2.57850
   R11        2.49434   0.06085   0.00000   0.03678   0.03678   2.53112
   R12        2.02698   0.01487   0.00000   0.01243   0.01243   2.03941
   R13        2.86131  -0.05138   0.00000  -0.04747  -0.04730   2.81401
   R14        3.03859  -0.02657   0.00000  -0.02778  -0.02748   3.01110
   R15        2.52773   0.01976   0.00000   0.01210   0.01199   2.53972
   R16        2.05021   0.00383   0.00000   0.00327   0.00327   2.05349
   R17        2.72271   0.01969   0.00000   0.01549   0.01520   2.73791
   R18        2.11979  -0.02594   0.00000  -0.02368  -0.02368   2.09611
   R19        2.65984  -0.05477   0.00000  -0.04094  -0.04112   2.61872
   R20        2.09596  -0.01140   0.00000  -0.01019  -0.01019   2.08577
   R21        3.45039  -0.08022   0.00000  -0.10469  -0.10462   3.34576
   R22        2.04427   0.00452   0.00000   0.00385   0.00385   2.04811
   R23        2.78395  -0.09784   0.00000  -0.08377  -0.08377   2.70018
   R24        2.67266   0.02587   0.00000   0.01934   0.01958   2.69224
   R25        2.18537  -0.03530   0.00000  -0.03408  -0.03408   2.15128
    A1        2.21922   0.04114   0.00000   0.04458   0.04451   2.26373
    A2        2.45140  -0.02175   0.00000  -0.02139  -0.02139   2.43002
    A3        1.60308  -0.01970   0.00000  -0.02300  -0.02290   1.58018
    A4        1.73252   0.00660   0.00000   0.00654   0.00643   1.73894
    A5        1.59338   0.02441   0.00000   0.04041   0.04025   1.63363
    A6        2.22982   0.00354   0.00000   0.00914   0.00838   2.23820
    A7        2.42970  -0.03441   0.00000  -0.04242  -0.04244   2.38726
    A8        1.80087   0.00754   0.00000   0.00885   0.00875   1.80962
    A9        1.64057   0.00369   0.00000   0.00088   0.00050   1.64107
   A10        2.06614  -0.10016   0.00000  -0.11179  -0.11475   1.95138
   A11        2.02738   0.03132   0.00000   0.02730   0.02438   2.05175
   A12        2.11780   0.03984   0.00000   0.03644   0.03300   2.15080
   A13        2.03779  -0.01523   0.00000  -0.01557  -0.01557   2.02222
   A14        1.93307  -0.00946   0.00000  -0.00548  -0.00774   1.92534
   A15        2.17611  -0.00746   0.00000  -0.00491  -0.00774   2.16837
   A16        2.04678   0.05109   0.00000   0.06896   0.06708   2.11386
   A17        1.96977   0.04890   0.00000   0.05132   0.05115   2.02092
   A18        1.91864  -0.01738   0.00000  -0.01724  -0.01746   1.90118
   A19        2.34409  -0.02975   0.00000  -0.03014  -0.02973   2.31436
   A20        2.21138  -0.03169   0.00000  -0.03496  -0.03495   2.17643
   A21        2.07902  -0.00147   0.00000  -0.00377  -0.00379   2.07524
   A22        1.98858   0.03314   0.00000   0.03879   0.03879   2.02737
   A23        1.94957   0.03245   0.00000   0.03420   0.03374   1.98330
   A24        2.13397  -0.01217   0.00000  -0.01201  -0.01177   2.12220
   A25        2.19113  -0.01990   0.00000  -0.02156  -0.02135   2.16978
   A26        2.20067  -0.00290   0.00000  -0.00298  -0.00345   2.19721
   A27        1.83221   0.03388   0.00000   0.04159   0.04184   1.87406
   A28        2.24180  -0.03072   0.00000  -0.03805  -0.03783   2.20397
   A29        2.27519  -0.03215   0.00000  -0.03345  -0.03352   2.24167
   A30        1.92105   0.02951   0.00000   0.03340   0.03343   1.95448
   A31        2.08194   0.00271   0.00000   0.00033   0.00036   2.08230
   A32        1.56917   0.06362   0.00000   0.06694   0.06751   1.63668
   A33        2.32986   0.00172   0.00000   0.00083   0.00054   2.33040
   A34        2.38385  -0.06530   0.00000  -0.06768  -0.06797   2.31587
   A35        1.39148   0.02934   0.00000   0.03017   0.03017   1.42165
   A36        1.71834  -0.03466   0.00000  -0.03697  -0.03649   1.68185
   A37        1.70856   0.05122   0.00000   0.06485   0.06497   1.77353
   A38        2.58778  -0.01458   0.00000  -0.01844  -0.01851   2.56927
    D1        2.43098   0.00348   0.00000   0.00008   0.00005   2.43103
    D2       -1.60719   0.01371   0.00000   0.01966   0.01997  -1.58722
    D3       -0.83340  -0.00209   0.00000  -0.00236  -0.00226  -0.83566
    D4        1.41161   0.00813   0.00000   0.01723   0.01766   1.42928
    D5       -2.04650   0.01843   0.00000   0.02468   0.02492  -2.02158
    D6        1.24903   0.01652   0.00000   0.01849   0.01852   1.26755
    D7        2.06579  -0.00609   0.00000  -0.01366  -0.01344   2.05235
    D8        0.10404   0.00264   0.00000   0.00391   0.00428   0.10833
    D9        0.33906  -0.04411   0.00000  -0.07399  -0.07406   0.26500
   D10       -1.62269  -0.03538   0.00000  -0.05643  -0.05633  -1.67902
   D11        0.10260  -0.07019   0.00000  -0.12729  -0.12658  -0.02398
   D12       -2.64668  -0.00486   0.00000  -0.01175  -0.01265  -2.65933
   D13        2.11894  -0.07456   0.00000  -0.13824  -0.13734   1.98159
   D14       -0.63035  -0.00923   0.00000  -0.02270  -0.02341  -0.65376
   D15        0.82308  -0.01875   0.00000  -0.01848  -0.01855   0.80453
   D16       -1.84221  -0.01158   0.00000  -0.01352  -0.01370  -1.85591
   D17       -1.66818   0.01452   0.00000   0.02448   0.02462  -1.64356
   D18        1.94971   0.02169   0.00000   0.02944   0.02947   1.97918
   D19       -2.47817   0.05603   0.00000   0.09624   0.09620  -2.38197
   D20        0.24996  -0.01715   0.00000  -0.03014  -0.03010   0.21986
   D21        2.35301  -0.12287   0.00000  -0.21335  -0.21208   2.14093
   D22       -1.32772  -0.04073   0.00000  -0.07824  -0.07951  -1.40723
   D23        2.26391   0.03526   0.00000   0.06552   0.06687   2.33078
   D24       -0.59101   0.03684   0.00000   0.06128   0.06217  -0.52883
   D25       -0.38275  -0.02185   0.00000  -0.03536  -0.03624  -0.41899
   D26        3.04553  -0.02027   0.00000  -0.03959  -0.04094   3.00458
   D27       -2.53185  -0.00834   0.00000  -0.01627  -0.01627  -2.54813
   D28        0.50490  -0.00653   0.00000  -0.01327  -0.01327   0.49164
   D29        0.22914  -0.00139   0.00000  -0.00125  -0.00136   0.22778
   D30       -3.01729   0.00042   0.00000   0.00176   0.00165  -3.01565
   D31        2.67757   0.01260   0.00000   0.02004   0.01978   2.69735
   D32       -0.48838   0.01365   0.00000   0.02229   0.02223  -0.46615
   D33       -0.09135  -0.00472   0.00000  -0.00554  -0.00557  -0.09692
   D34        3.02589  -0.00367   0.00000  -0.00329  -0.00312   3.02277
   D35       -0.17565  -0.00016   0.00000   0.00049   0.00038  -0.17527
   D36        3.09871  -0.00187   0.00000  -0.00301  -0.00312   3.09559
   D37        3.06613  -0.00033   0.00000  -0.00044  -0.00049   3.06564
   D38        0.05731  -0.00204   0.00000  -0.00394  -0.00400   0.05331
   D39        0.04895  -0.00089   0.00000  -0.00086  -0.00085   0.04810
   D40       -2.96213  -0.00084   0.00000  -0.00266  -0.00274  -2.96487
   D41        3.05254   0.00179   0.00000   0.00386   0.00381   3.05635
   D42        0.04146   0.00184   0.00000   0.00207   0.00193   0.04338
   D43        0.06247  -0.00076   0.00000  -0.00120  -0.00116   0.06130
   D44       -2.96870  -0.00251   0.00000  -0.00509  -0.00503  -2.97372
   D45        3.04284   0.00463   0.00000   0.00774   0.00761   3.05046
   D46        0.01168   0.00288   0.00000   0.00385   0.00375   0.01543
   D47       -0.03951   0.00260   0.00000   0.00361   0.00354  -0.03596
   D48        3.12780  -0.00032   0.00000  -0.00062  -0.00056   3.12724
   D49        2.98312   0.00560   0.00000   0.00924   0.00916   2.99228
   D50       -0.13276   0.00267   0.00000   0.00501   0.00506  -0.12770
   D51       -1.22018  -0.00128   0.00000  -0.00243  -0.00295  -1.22313
   D52        0.87922   0.02746   0.00000   0.04754   0.04743   0.92665
         Item               Value     Threshold  Converged?
 Maximum Force            0.122873     0.000450     NO 
 RMS     Force            0.032755     0.000300     NO 
 Maximum Displacement     1.813499     0.001800     NO 
 RMS     Displacement     0.403525     0.001200     NO 
 Predicted change in Energy=-1.431200D-01
 GradGradGradGradGradGradGradGradGradGradGradGradGradGradGradGradGradGrad

                          Input orientation:                          
 ---------------------------------------------------------------------
 Center     Atomic      Atomic             Coordinates (Angstroms)
 Number     Number       Type             X           Y           Z
 ---------------------------------------------------------------------
      1          8           0        1.424632    1.171532   -0.434052
      2          6           0        2.567772    1.414139   -0.218852
      3          6           0        3.312069    1.464379    1.092626
      4          6           0        4.502693    0.849653    0.708830
      5          6           0        5.945476    1.228847    0.622695
      6          7           0        6.135064    2.417619    0.965624
      7          6           0        6.983943    3.136852    0.175741
      8          6           0        6.367070    4.227619   -0.297247
      9          6           0        7.134566    5.499903   -0.198838
     10          6           0        6.588245    6.707916    0.021319
     11          6           0        5.142222    6.716549   -0.068529
     12          6           0        4.335856    5.612984   -0.297135
     13          6           0        4.812521    3.915111   -0.454278
     14          7           0        4.067110    2.715790   -0.672600
     15          6           0        3.875247    1.995745   -1.000768
     16          6           0        4.354551    0.680480   -0.736121
     17          1           0        3.114907    2.546442    1.243269
     18          1           0        6.577715    0.699733   -0.142203
     19          1           0        8.060189    3.088184    0.239144
     20          1           0        8.220412    5.460755   -0.214043
     21          1           0        7.213629    7.617768    0.128158
     22          1           0        4.817500    7.771374   -0.056258
     23          1           0        3.306718    5.894849   -0.487088
     24          1           0        4.169942   -0.439874   -0.818004
 ---------------------------------------------------------------------
                    Distance matrix (angstroms):
                    1          2          3          4          5
     1  O    0.000000
     2  C    1.188250   0.000000
     3  C    2.445183   1.508799   0.000000
     4  C    3.299128   2.218819   1.393834   0.000000
     5  C    4.643062   3.485888   2.685357   1.494266   0.000000
     6  N    5.069516   3.890440   2.982297   2.277959   1.251688
     7  C    5.927923   4.756681   4.137693   3.416441   2.217806
     8  C    5.812579   4.728264   4.347444   3.987323   3.164912
     9  C    7.168923   6.127763   5.706559   5.419912   4.508966
    10  C    7.584313   6.651763   6.275007   6.256313   5.549324
    11  C    6.685902   5.896265   5.681816   5.952626   5.589086
    12  C    5.312293   4.556593   4.493383   4.871255   4.760002
    13  C    4.359521   3.368855   3.263488   3.293304   3.107969
    14  N    3.069907   2.036712   2.291754   2.362318   2.723425
    15  C    2.646887   1.630690   2.231998   2.151730   2.740367
    16  C    2.986102   1.999601   2.246238   1.462344   2.162898
    17  H    2.749693   1.928539   1.110147   2.256251   3.183283
    18  H    5.182860   4.073806   3.574064   2.247765   1.124614
    19  H    6.939551   5.760107   5.090169   4.229351   2.841876
    20  H    8.039183   6.951796   6.462990   5.994614   4.876937
    21  H    8.682311   7.758184   7.349597   7.313942   6.532312
    22  H    7.430491   6.745528   6.585169   6.970990   6.673677
    23  H    5.084759   4.549148   4.703678   5.321145   5.474142
    24  H    3.206365   2.522558   2.830660   2.026037   2.830682
                    6          7          8          9         10
     6  N    0.000000
     7  C    1.364481   0.000000
     8  C    2.219183   1.339411   0.000000
     9  C    3.443175   2.397292   1.489108   0.000000
    10  C    4.416303   3.596237   2.510434   1.343960   0.000000
    11  C    4.531668   4.033093   2.783405   2.338085   1.448838
    12  C    3.878410   3.656119   2.458672   2.802718   2.524588
    13  C    2.451066   2.391168   1.593406   2.822890   3.343523
    14  N    2.655017   3.066739   2.777828   4.169535   4.772286
    15  C    3.025136   3.514298   3.418388   4.852357   5.532592
    16  C    3.013937   3.712002   4.101833   5.589633   6.472487
    17  H    3.035627   4.056802   3.971915   5.192327   5.556537
    18  H    2.091495   2.491116   3.537568   4.832693   6.010417
    19  H    2.164149   1.079210   2.110137   2.620114   3.913633
    20  H    3.873109   2.661074   2.227651   1.086659   2.067553
    21  H    5.376450   4.487052   3.520049   2.144418   1.109212
    22  H    5.607399   5.121142   3.875235   3.247876   2.067002
    23  H    4.711799   4.644123   3.490194   3.858949   3.418768
    24  H    3.899782   4.658229   5.184983   6.667332   7.592335
                   11         12         13         14         15
    11  C    0.000000
    12  C    1.385764   0.000000
    13  C    2.847027   1.770501   0.000000
    14  N    4.186507   2.933757   1.428871   0.000000
    15  C    4.975970   3.713714   2.204790   0.814229   0.000000
    16  C    6.123743   4.952035   3.279026   2.056488   1.424673
    17  H    4.818776   3.642421   2.763478   2.146141   2.432506
    18  H    6.186125   5.402774   3.681298   3.263272   3.117710
    19  H    4.666287   4.531321   3.422279   4.112741   4.499394
    20  H    3.327680   3.888426   3.749727   4.999503   5.612993
    21  H    2.267512   3.532933   4.451317   5.879727   6.635240
    22  H    1.103744   2.224557   3.876753   5.148000   5.927717
    23  H    2.054132   1.083815   2.487546   3.273993   3.973676
    24  H    7.260953   6.077493   4.417137   3.160685   2.460181
                   16         17         18         19         20
    16  C    0.000000
    17  H    2.989401   0.000000
    18  H    2.301210   4.161839   0.000000
    19  H    4.525477   5.075191   2.836874   0.000000
    20  H    6.169966   6.056663   5.036958   2.420773   0.000000
    21  H    7.552965   6.615236   6.952459   4.609351   2.404874
    22  H    7.138439   5.646903   7.287925   5.703908   4.116268
    23  H    5.324436   3.773957   6.148788   5.567789   4.940383
    24  H    1.138411   3.778893   2.748233   5.357125   7.182514
                   21         22         23         24
    21  H    0.000000
    22  H    2.408119   0.000000
    23  H    4.314040   2.447330   0.000000
    24  H    8.665152   8.271892   6.401826   0.000000
 Stoichiometry    C13H8N2O
 Framework group  C1[X(C13H8N2O)]
 Deg. of freedom    66
 Full point group                 C1      NOp   1
 Largest Abelian subgroup         C1      NOp   1
 Largest concise Abelian subgroup C1      NOp   1
                         Standard orientation:                         
 ---------------------------------------------------------------------
 Center     Atomic      Atomic             Coordinates (Angstroms)
 Number     Number       Type             X           Y           Z
 ---------------------------------------------------------------------
      1          8           0        3.491130   -1.884529   -0.016931
      2          6           0        2.674969   -1.022304    0.031917
      3          6           0        2.233555   -0.178169    1.201987
      4          6           0        2.117197    1.057409    0.567494
      5          6           0        1.025728    2.038261    0.285617
      6          7           0       -0.080678    1.638195    0.712860
      7          6           0       -1.141527    1.812299   -0.127434
      8          6           0       -1.733374    0.637318   -0.378751
      9          6           0       -3.218987    0.625431   -0.277484
     10          6           0       -3.948264   -0.418665    0.151756
     11          6           0       -3.182705   -1.639610    0.301234
     12          6           0       -1.818806   -1.773594    0.095875
     13          6           0       -0.638320   -0.518155   -0.310328
     14          7           0        0.773929   -0.549385   -0.525389
     15          6           0        1.485357   -0.394201   -0.889746
     16          6           0        2.340663    0.744215   -0.843329
     17          1           0        1.424200   -0.880104    1.492950
     18          1           0        1.135762    2.692307   -0.622608
     19          1           0       -1.675611    2.742510   -0.246420
     20          1           0       -3.766176    1.543427   -0.474194
     21          1           0       -5.051603   -0.356669    0.247423
     22          1           0       -3.900742   -2.459758    0.474524
     23          1           0       -1.506887   -2.811497    0.106876
     24          1           0        3.386343    1.162944   -1.008246
 ---------------------------------------------------------------------
 Rotational constants (GHZ):           1.2571147           0.4309033           0.3477312
 Standard basis: 6-31G(2df,p) (6D, 7F)
 There are   536 symmetry adapted cartesian basis functions of A   symmetry.
 There are   488 symmetry adapted basis functions of A   symmetry.
   488 basis functions,   760 primitive gaussians,   536 cartesian basis functions
    54 alpha electrons       54 beta electrons
       nuclear repulsion energy      1013.7379795734 Hartrees.
 NAtoms=   24 NActive=   24 NUniq=   24 SFac= 1.00D+00 NAtFMM=   60 NAOKFM=F Big=F
 Integral buffers will be    131072 words long.
 Raffenetti 2 integral format.
 Two-electron integral symmetry is turned on.
 One-electron integrals computed using PRISM.
 PrsmSu:  requested number of processors reduced to:  12 ShMem   1 Linda.
 NBasis=   488 RedAO= T EigKep=  5.59D-05  NBF=   488
 NBsUse=   488 1.00D-06 EigRej= -1.00D+00 NBFU=   488
 Initial guess from the checkpoint file:  "OdC1CdC2CdNCdc3ccccc3dNC1dC2.chk"
 B after Tr=     0.000000    0.000000   -0.000000
         Rot=    0.999981    0.004501   -0.003677   -0.002221 Ang=   0.71 deg.
 ExpMin= 1.61D-01 ExpMax= 5.48D+03 ExpMxC= 8.25D+02 IAcc=2 IRadAn=         4 AccDes= 0.00D+00
 Harris functional with IExCor=  402 and IRadAn=       4 diagonalized for initial guess.
 HarFok:  IExCor=  402 AccDes= 0.00D+00 IRadAn=         4 IDoV= 1 UseB2=F ITyADJ=14
 ICtDFT=  3500011 ScaDFX=  1.000000  1.000000  1.000000  1.000000
 FoFCou: FMM=F IPFlag=           0 FMFlag=      100000 FMFlg1=           0
         NFxFlg=           0 DoJE=T BraDBF=F KetDBF=T FulRan=T
         wScrn=  0.000000 ICntrl=       500 IOpCl=  0 I1Cent=   200000004 NGrid=           0
         NMat0=    1 NMatS0=      1 NMatT0=    0 NMatD0=    1 NMtDS0=    0 NMtDT0=    0
 Petite list used in FoFCou.
 Requested convergence on RMS density matrix=1.00D-08 within 128 cycles.
 Requested convergence on MAX density matrix=1.00D-06.
 Requested convergence on             energy=1.00D-06.
 No special actions if energy rises.
 Integral accuracy reduced to 1.0D-05 until final iterations.
 Initial convergence to 1.0D-05 achieved.  Increase integral accuracy.
 SCF Done:  E(RB3LYP) =  -683.655709157     A.U. after   29 cycles
            NFock= 29  Conv=0.16D-08     -V/T= 2.0012
 PrsmSu:  requested number of processors reduced to:  13 ShMem   1 Linda.
 Calling FoFJK, ICntrl=      2127 FMM=F ISym2X=0 I1Cent= 0 IOpClX= 0 NMat=1 NMatS=1 NMatT=0.
 ***** Axes restored to original set *****
 -------------------------------------------------------------------
 Center     Atomic                   Forces (Hartrees/Bohr)
 Number     Number              X              Y              Z
 -------------------------------------------------------------------
      1        8           0.019674596    0.021864453   -0.030824022
      2        6          -0.087595880   -0.105256506    0.100209009
      3        6          -0.011398202    0.025788756    0.016361929
      4        6           0.008413049    0.012799953    0.011840466
      5        6          -0.022561789   -0.072669514    0.003944533
      6        7           0.004027533    0.022396532    0.006742091
      7        6           0.039234385    0.005787943    0.025442471
      8        6          -0.043109001   -0.005840025   -0.012117319
      9        6          -0.005144338   -0.011243918   -0.014964905
     10        6          -0.011987305   -0.012401298   -0.011034812
     11        6           0.011495042   -0.002791084   -0.003768606
     12        6          -0.010700088   -0.042108267   -0.008533084
     13        6           0.025474267    0.138970506    0.026207838
     14        7           0.690046531    2.529114454    0.959358408
     15        6          -0.558540614   -2.349202737   -1.085057735
     16        6          -0.014398668   -0.115852522   -0.017027508
     17        1           0.013980258   -0.011913549    0.050409829
     18        1          -0.009223852    0.002112201    0.016601708
     19        1           0.006275564   -0.009735454    0.001466637
     20        1           0.000277504   -0.014002397    0.000882645
     21        1          -0.013413137   -0.012931101    0.001776045
     22        1          -0.021019309   -0.016506899   -0.001139606
     23        1          -0.006527716   -0.009624990    0.002848484
     24        1          -0.003278829    0.033245463   -0.039624494
 -------------------------------------------------------------------
 Cartesian Forces:  Max     2.529114454 RMS     0.454738164

 GradGradGradGradGradGradGradGradGradGradGradGradGradGradGradGradGradGrad
 Berny optimization.
 Using GEDIIS/GDIIS optimizer.
 FormGI is forming the generalized inverse of G from B-inverse, IUseBI=4.
 Internal  Forces:  Max     7.108957397 RMS     1.637894403
 Search for a local minimum.
 Step number   2 out of a maximum of  125
 All quantities printed in internal units (Hartrees-Bohrs-Radians)
 Mixed Optimization -- RFO/linear search
 Update second derivatives using D2CorX and points    2    1
 DE=  6.01D-01 DEPred=-1.43D-01 R=-4.20D+00
 Trust test=-4.20D+00 RLast= 4.62D-01 DXMaxT set to 1.50D-01
 ITU= -1  0
 Use linear search instead of GDIIS.
     Eigenvalues ---    0.00230   0.00463   0.00532   0.00645   0.00995
     Eigenvalues ---    0.01158   0.01498   0.01672   0.01817   0.01840
     Eigenvalues ---    0.01980   0.02054   0.02356   0.02493   0.02993
     Eigenvalues ---    0.03085   0.03628   0.03654   0.04573   0.05705
     Eigenvalues ---    0.07944   0.08994   0.09747   0.12842   0.14308
     Eigenvalues ---    0.14823   0.15270   0.15733   0.15835   0.15932
     Eigenvalues ---    0.15942   0.17143   0.18881   0.20746   0.21936
     Eigenvalues ---    0.22181   0.22234   0.22553   0.23239   0.23772
     Eigenvalues ---    0.24441   0.24798   0.24996   0.27787   0.29193
     Eigenvalues ---    0.30060   0.30311   0.30785   0.31249   0.32275
     Eigenvalues ---    0.32440   0.32795   0.35405   0.35779   0.36856
     Eigenvalues ---    0.37005   0.38261   0.38585   0.42407   0.45621
     Eigenvalues ---    0.52636   0.55835   0.60269   0.81882   1.12532
     Eigenvalues ---   67.02169
 RFO step:  Lambda=-4.76099099D+00 EMin= 2.29936895D-03
 Quartic linear search produced a step of -0.46153.
 Maximum step size (   0.150) exceeded in Quadratic search.
    -- Step size scaled by   0.196
 Iteration  1 RMS(Cart)=  0.16952509 RMS(Int)=  0.00333918
 Iteration  2 RMS(Cart)=  0.01103475 RMS(Int)=  0.00031972
 Iteration  3 RMS(Cart)=  0.00004440 RMS(Int)=  0.00031944
 Iteration  4 RMS(Cart)=  0.00000000 RMS(Int)=  0.00031944
 Variable       Old X    -DE/DX   Delta X   Delta X   Delta X     New X
                                 (Linear)    (Quad)   (Total)
    R1        2.24547  -0.01781  -0.00274   0.00293   0.00019   2.24566
    R2        2.85122   0.55370  -0.01245   0.01753   0.00513   2.85634
    R3        3.08156  -0.14584   0.00333  -0.00458  -0.00122   3.08034
    R4        2.63396  -0.02266  -0.00722   0.00743   0.00028   2.63424
    R5        2.09787  -0.00725   0.00222  -0.00240  -0.00018   2.09769
    R6        2.82375   1.18555   0.02297  -0.01482   0.00815   2.83191
    R7        2.76343   0.90660  -0.02046   0.02872   0.00823   2.77166
    R8        2.36535   2.79779  -0.00249   0.02278   0.02029   2.38564
    R9        2.12521  -0.01747   0.00960  -0.01025  -0.00065   2.12456
   R10        2.57850   1.18883  -0.00369   0.01298   0.00929   2.58778
   R11        2.53112   1.45380  -0.01697   0.02916   0.01219   2.54331
   R12        2.03941   0.00678  -0.00574   0.00613   0.00039   2.03981
   R13        2.81401   0.39727   0.02183  -0.01978   0.00197   2.81598
   R14        3.01110  -0.74350   0.01268  -0.01911  -0.00656   3.00454
   R15        2.53972  -0.04135  -0.00553   0.00561   0.00012   2.53984
   R16        2.05349   0.00077  -0.00151   0.00160   0.00009   2.05358
   R17        2.73791  -0.50428  -0.00701   0.00337  -0.00350   2.73440
   R18        2.09611  -0.01800   0.01093  -0.01167  -0.00074   2.09536
   R19        2.61872  -0.48187   0.01898  -0.02404  -0.00498   2.61374
   R20        2.08577  -0.00960   0.00470  -0.00504  -0.00034   2.08543
   R21        3.34576  -0.13363   0.04829  -0.05125  -0.00299   3.34277
   R22        2.04811   0.00320  -0.00178   0.00191   0.00013   2.04824
   R23        2.70018  -2.62937   0.03866  -0.06155  -0.02288   2.67729
   R24        2.69224  -1.56470  -0.00904  -0.00240  -0.01156   2.68068
   R25        2.15128  -0.02934   0.01573  -0.01678  -0.00105   2.15023
    A1        2.26373  -0.29439  -0.02054   0.01909  -0.00142   2.26231
    A2        2.43002  -0.40536   0.00987  -0.01366  -0.00379   2.42623
    A3        1.58018   0.79033   0.01057  -0.00456   0.00593   1.58612
    A4        1.73894   0.09251  -0.00297   0.00386   0.00096   1.73990
    A5        1.63363   0.68225  -0.01858   0.02467   0.00617   1.63980
    A6        2.23820  -0.23564  -0.00387   0.00169  -0.00182   2.23637
    A7        2.38726   0.66606   0.01959  -0.01491   0.00465   2.39192
    A8        1.80962  -0.52109  -0.00404   0.00015  -0.00388   1.80575
    A9        1.64107   1.59978  -0.00023   0.01324   0.01313   1.65420
   A10        1.95138   7.10896   0.05296   0.00059   0.05474   2.00612
   A11        2.05175  -2.87935  -0.01125  -0.01253  -0.02263   2.02912
   A12        2.15080  -1.83891  -0.01523  -0.00006  -0.01390   2.13690
   A13        2.02222   0.21759   0.00719  -0.00580   0.00139   2.02361
   A14        1.92534   4.78640   0.00357   0.03365   0.03827   1.96360
   A15        2.16837  -1.29834   0.00357  -0.01551  -0.01060   2.15777
   A16        2.11386  -3.83662  -0.03096   0.00014  -0.02994   2.08392
   A17        2.02092  -2.65942  -0.02361   0.00331  -0.02021   2.00071
   A18        1.90118   3.94712   0.00806   0.02306   0.03120   1.93239
   A19        2.31436  -1.42955   0.01372  -0.02566  -0.01211   2.30225
   A20        2.17643   0.90893   0.01613  -0.00954   0.00658   2.18301
[...]
     Eigenvalues ---    0.12576   0.13352   0.15411   0.15803   0.15992
     Eigenvalues ---    0.16018   0.16156   0.17692   0.20179   0.21574
     Eigenvalues ---    0.22304   0.22595   0.23065   0.23915   0.24127
     Eigenvalues ---    0.25323   0.26206   0.28133   0.28516   0.29117
     Eigenvalues ---    0.29974   0.30713   0.31476   0.32427   0.32681
     Eigenvalues ---    0.33538   0.34061   0.35392   0.35846   0.36810
     Eigenvalues ---    0.38457   0.39215   0.42094   0.43963   0.45820
     Eigenvalues ---    0.50643   0.51139   0.54974   0.60027   0.63060
     Eigenvalues ---    0.80198   1.04637   1.12836   2.13939   9.22572
     Eigenvalues ---  102.13930
 RFO step:  Lambda=-2.77097414D-03 EMin= 6.59925669D-03
 Quartic linear search produced a step of -0.42926.
 Iteration  1 RMS(Cart)=  0.04705055 RMS(Int)=  0.00104966
 Iteration  2 RMS(Cart)=  0.00167146 RMS(Int)=  0.00044270
 Iteration  3 RMS(Cart)=  0.00000100 RMS(Int)=  0.00044270
 Iteration  4 RMS(Cart)=  0.00000000 RMS(Int)=  0.00044270
 Variable       Old X    -DE/DX   Delta X   Delta X   Delta X     New X
                                 (Linear)    (Quad)   (Total)
    R1        2.26322  -0.00304   0.00324  -0.00430  -0.00105   2.26216
    R2        2.88236   0.00569  -0.01438   0.01404  -0.00011   2.88225
    R3        2.96957   0.00474  -0.00273   0.02174   0.01929   2.98886
    R4        2.52618   0.00124   0.00574  -0.00100   0.00453   2.53070
    R5        2.04287   0.00186   0.00196   0.00045   0.00241   2.04528
    R6        2.82477  -0.00621  -0.00380   0.00287  -0.00092   2.82385
    R7        2.78037   0.01666   0.01113  -0.00249   0.00827   2.78864
    R8        2.69660  -0.03183  -0.01057   0.00625  -0.00432   2.69228
    R9        2.06280   0.00125   0.00086   0.00026   0.00112   2.06393
   R10        2.41982  -0.02821   0.00353  -0.00704  -0.00351   2.41631
   R11        2.75031  -0.02420  -0.00041   0.00528   0.00487   2.75518
   R12        2.08964   0.00041   0.00311  -0.00338  -0.00027   2.08937
   R13        2.64313  -0.00357  -0.00035   0.00526   0.00509   2.64822
   R14        2.70049   0.00236   0.00537   0.00828   0.01391   2.71441
   R15        2.62179  -0.00021  -0.00398   0.00095  -0.00310   2.61869
   R16        2.05213   0.00020   0.00039  -0.00005   0.00034   2.05247
   R17        2.63549   0.00904   0.00353  -0.00138   0.00190   2.63739
   R18        2.04542   0.00133  -0.00051   0.00230   0.00179   2.04721
   R19        2.61556   0.00802  -0.00302   0.00514   0.00194   2.61751
   R20        2.04892   0.00038   0.00006   0.00025   0.00031   2.04923
   R21        2.66267  -0.00195   0.00490  -0.02149  -0.01652   2.64615
   R22        2.04703   0.00007   0.00134  -0.00078   0.00056   2.04759
   R23        2.63774   0.02565  -0.00881   0.00733  -0.00148   2.63626
   R24        2.89313   0.01053   0.00518  -0.01026  -0.00504   2.88809
   R25        2.04328   0.00285   0.00196   0.00133   0.00329   2.04657
    A1        2.28512  -0.00735  -0.00051  -0.00780  -0.01031   2.27481
    A2        2.23505  -0.00497  -0.00340  -0.00418  -0.00957   2.22548
    A3        1.75362   0.01109  -0.00290   0.00207  -0.00115   1.75247
    A4        1.86633   0.00209   0.00206  -0.00678  -0.00396   1.86236
    A5        2.13705  -0.00536  -0.01392   0.01466   0.00101   2.13806
    A6        2.21884   0.00256   0.01963  -0.01684   0.00251   2.22135
    A7        2.58945  -0.01735  -0.00303   0.00313   0.00006   2.58951
    A8        2.04599  -0.01478  -0.01459  -0.00129  -0.01593   2.03006
    A9        1.06748   0.00586   0.02256  -0.00161   0.02077   1.08825
   A10        1.98520  -0.07166  -0.00249  -0.00594  -0.00833   1.97688
   A11        2.09137   0.04331  -0.00208   0.02084   0.01890   2.11028
   A12        2.14923   0.03615   0.01073  -0.01652  -0.00572   2.14351
   A13        2.03403   0.00530   0.00474  -0.00070   0.00404   2.03806
   A14        2.09337  -0.09606  -0.00190   0.00158  -0.00110   2.09227
   A15        2.11616   0.05338   0.00176   0.00448   0.00538   2.12154
   A16        2.05688   0.03565   0.00205  -0.02099  -0.01968   2.03720
   A17        2.14086   0.04736  -0.01679   0.00143  -0.01586   2.12499
   A18        2.05981  -0.06738   0.01138   0.00235   0.01313   2.07294
   A19        2.07370   0.01938   0.00591  -0.00560   0.00138   2.07508
   A20        2.12783  -0.01265  -0.00129  -0.00092  -0.00138   2.12645
   A21        2.05387   0.00757   0.00005   0.00521   0.00499   2.05886
   A22        2.10141   0.00509   0.00114  -0.00447  -0.00361   2.09780
   A23        2.08271  -0.00006  -0.00148  -0.00136  -0.00250   2.08021
   A24        2.10254  -0.00080   0.00043  -0.00117  -0.00086   2.10168
   A25        2.09772   0.00089   0.00113   0.00251   0.00352   2.10124
   A26        2.09301   0.00606   0.00413   0.00100   0.00532   2.09834
   A27        2.11009  -0.00436  -0.00515  -0.00100  -0.00627   2.10382
   A28        2.08005  -0.00169   0.00094   0.00015   0.00098   2.08102
   A29        2.12614  -0.00485   0.00015   0.00084   0.00162   2.12776
   A30        2.11213   0.00277  -0.00058   0.00007  -0.00070   2.11144
   A31        2.04464   0.00209   0.00051  -0.00105  -0.00073   2.04390
   A32        2.05557  -0.00777  -0.00511   0.00449   0.00116   2.05673
   A33        2.25532  -0.01651   0.00272  -0.00378  -0.00081   2.25451
   A34        1.96924   0.02466   0.00358  -0.00414  -0.00031   1.96892
   A35        1.83515  -0.01916  -0.01760  -0.01633  -0.03322   1.80193
   A36        1.69659   0.01405  -0.00148   0.01332   0.01187   1.70846
   A37        2.10703  -0.00202  -0.00568   0.01125   0.00607   2.11310
   A38        2.11708   0.00060  -0.01439   0.01195  -0.00231   2.11477
    D1        2.99571   0.00172  -0.00818   0.06201   0.05340   3.04910
    D2       -0.49046   0.00058   0.01893   0.03346   0.05260  -0.43786
    D3       -0.28686  -0.00741  -0.04688  -0.01193  -0.05857  -0.34542
    D4        2.51016  -0.00855  -0.01978  -0.04048  -0.05936   2.45080
    D5       -2.70967  -0.00304   0.01265  -0.06002  -0.04710  -2.75677
    D6        0.56716   0.00605   0.04924   0.01134   0.06052   0.62767
    D7        1.25644  -0.01402   0.04699   0.00275   0.04957   1.30601
    D8       -0.11403   0.00107   0.02718   0.00722   0.03452  -0.07951
    D9       -1.51950  -0.01076   0.02576   0.02476   0.05090  -1.46859
   D10       -2.88997   0.00433   0.00595   0.02923   0.03585  -2.85412
   D11       -0.06007  -0.02361  -0.01593   0.01749   0.00155  -0.05852
   D12        2.73531   0.00525   0.00529   0.00902   0.01447   2.74977
   D13        1.61287  -0.03641  -0.00775   0.01124   0.00334   1.61621
   D14       -1.87494  -0.00755   0.01347   0.00277   0.01625  -1.85869
   D15        0.46464   0.00702   0.00593   0.00725   0.01327   0.47791
   D16       -1.85982  -0.00545   0.03052  -0.02982   0.00061  -1.85921
   D17       -2.04986   0.02287   0.00360   0.00356   0.00727  -2.04258
   D18        1.90886   0.01040   0.02820  -0.03352  -0.00538   1.90348
   D19       -2.51619   0.03736   0.00165  -0.00087   0.00060  -2.51559
   D20        0.98466   0.00686  -0.01773  -0.00059  -0.01813   0.96653
   D21        2.20481  -0.07462  -0.02577  -0.00891  -0.03496   2.16985
   D22       -0.73679  -0.03703  -0.03811   0.08153   0.04369  -0.69309
   D23        2.70070   0.00769   0.02196  -0.00362   0.01808   2.71878
   D24       -0.58509   0.00361   0.02672  -0.01878   0.00772  -0.57737
   D25       -0.63419  -0.02595   0.03387  -0.08824  -0.05414  -0.68833
   D26        2.36321  -0.03004   0.03864  -0.10340  -0.06450   2.29871
   D27        3.07188  -0.00852  -0.04842   0.00881  -0.03932   3.03256
   D28       -0.08257  -0.00797  -0.03180  -0.00784  -0.03939  -0.12196
   D29        0.07558   0.00240  -0.05362   0.02346  -0.02987   0.04571
   D30       -3.07888   0.00295  -0.03700   0.00680  -0.02994  -3.10881
   D31       -3.13547   0.00068   0.08286  -0.00650   0.07672  -3.05875
   D32        0.09697  -0.00628   0.03175   0.04421   0.07612   0.17310
   D33       -0.13238  -0.00050   0.08566  -0.02049   0.06516  -0.06723
   D34        3.10005  -0.00745   0.03455   0.03022   0.06456  -3.11857
   D35       -0.00307  -0.00182  -0.00002  -0.00736  -0.00707  -0.01014
   D36        3.11676  -0.00025   0.01332  -0.00884   0.00456   3.12131
   D37       -3.13145  -0.00240  -0.01710   0.00966  -0.00707  -3.13852
   D38       -0.01163  -0.00082  -0.00376   0.00819   0.00456  -0.00707
   D39       -0.00957   0.00006   0.01958  -0.01282   0.00677  -0.00280
   D40        3.12304   0.00097   0.01343   0.00579   0.01898  -3.14117
   D41       -3.12946  -0.00149   0.00628  -0.01130  -0.00480  -3.13426
   D42        0.00315  -0.00058   0.00012   0.00731   0.00742   0.01056
   D43       -0.05325   0.00200   0.01612   0.01564   0.03150  -0.02176
   D44        3.11450   0.00118  -0.00177   0.02195   0.01994   3.13445
   D45        3.09717   0.00112   0.02226  -0.00264   0.01948   3.11665
   D46       -0.01826   0.00029   0.00436   0.00367   0.00793  -0.01033
   D47        0.12388  -0.00316  -0.06853   0.00139  -0.06736   0.05652
   D48       -3.09404   0.00085  -0.02560  -0.04129  -0.06690   3.12224
   D49       -3.04291  -0.00235  -0.05129  -0.00468  -0.05624  -3.09914
   D50        0.02235   0.00166  -0.00835  -0.04735  -0.05578  -0.03342
   D51       -0.60156  -0.00727  -0.03424  -0.00967  -0.04435  -0.64591
   D52        1.71642   0.00366  -0.05309   0.02727  -0.02626   1.69016
         Item               Value     Threshold  Converged?
 Maximum Force            0.096056     0.000450     NO 
 RMS     Force            0.020598     0.000300     NO 
 Maximum Displacement     0.186688     0.001800     NO 
 RMS     Displacement     0.047329     0.001200     NO 
 Predicted change in Energy=-3.110129D-03
 GradGradGradGradGradGradGradGradGradGradGradGradGradGradGradGradGradGrad

                          Input orientation:                          
 ---------------------------------------------------------------------
 Center     Atomic      Atomic             Coordinates (Angstroms)
 Number     Number       Type             X           Y           Z
 ---------------------------------------------------------------------
      1          8           0        1.420143    1.871954    0.241431
      2          6           0        2.565146    1.524181    0.209229
      3          6           0        3.295358    0.455382    1.015924
      4          6           0        4.536256    0.378223    0.518280
      5          6           0        5.899413    0.978956    0.400358
      6          7           0        6.016870    2.240284    1.052285
      7          6           0        6.765384    3.111524    0.490474
      8          6           0        6.226342    4.423834    0.154346
      9          6           0        7.052584    5.547337    0.016782
     10          6           0        6.562235    6.765534   -0.425777
     11          6           0        5.210621    6.875877   -0.755625
     12          6           0        4.373687    5.777879   -0.643779
     13          6           0        4.845455    4.526920   -0.227458
     14          7           0        3.837962    3.564426   -0.158746
     15          6           0        3.794033    2.311562   -0.400233
     16          6           0        4.818078    1.209174   -0.668204
     17          1           0        2.960114    0.134410    1.993676
     18          1           0        6.763777    0.362737    0.143426
     19          1           0        7.723730    2.831185    0.015667
     20          1           0        8.101076    5.443828    0.280620
     21          1           0        7.217799    7.624285   -0.505771
     22          1           0        4.803755    7.818545   -1.104587
     23          1           0        3.321138    5.851548   -0.890286
     24          1           0        4.919092    0.764766   -1.650642
 ---------------------------------------------------------------------
                    Distance matrix (angstroms):
                    1          2          3          4          5
     1  O    0.000000
     2  C    1.197086   0.000000
     3  C    2.474459   1.525220   0.000000
     4  C    3.466704   2.300871   1.339191   0.000000
     5  C    4.570182   3.383953   2.726565   1.494317   0.000000
     6  N    4.682205   3.624630   3.254815   2.438165   1.424694
     7  C    5.492737   4.498973   4.401394   3.527141   2.303448
     8  C    5.442354   4.670691   5.008153   4.399524   3.469091
     9  C    6.729286   6.029919   6.406484   5.770888   4.727265
    10  C    7.129754   6.622065   7.250449   6.767096   5.882714
    11  C    6.356185   6.047325   6.930323   6.655608   6.048505
    12  C    4.976270   4.700254   5.678589   5.525676   5.142735
    13  C    4.359066   3.795648   4.530587   4.226513   3.754068
    14  N    2.978330   2.432708   3.367554   3.331346   3.353630
    15  C    2.498067   1.581637   2.387379   2.265471   2.617138
    16  C    3.579479   2.438200   2.392313   1.475685   1.537567
    17  H    2.908769   2.296021   1.082317   2.172662   3.448391
    18  H    5.553536   4.356808   3.577676   2.258894   1.092183
    19  H    6.380149   5.325102   5.124005   4.053348   2.628092
    20  H    7.575927   6.783454   6.965643   6.198772   4.979632
    21  H    8.201246   7.705173   8.312297   7.793894   6.835175
    22  H    6.972986   6.808561   7.809481   7.619951   7.088392
    23  H    4.553211   4.528418   5.723016   5.780819   5.661751
    24  H    4.128976   3.094655   3.137324   2.236113   2.283311
                    6          7          8          9         10
     6  N    0.000000
     7  C    1.278658   0.000000
     8  C    2.370245   1.457980   0.000000
     9  C    3.616845   2.498009   1.401377   0.000000
    10  C    4.791657   3.772609   2.435760   1.385751   0.000000
    11  C    5.040565   4.259155   2.805753   2.398846   1.395648
    12  C    4.253382   3.757152   2.429562   2.768751   2.410961
    13  C    2.870306   2.490964   1.436402   2.443834   2.828084
    14  N    2.822691   3.032558   2.557531   3.781077   4.211895
    15  C    2.656293   3.203471   3.268849   4.611106   5.244184
    16  C    2.336744   2.958627   3.604696   4.927665   5.828721
    17  H    3.829449   5.059931   5.696537   7.067970   7.924698
    18  H    2.215644   2.770609   4.096519   5.194182   6.431207
    19  H    2.082573   1.105648   2.190419   2.797842   4.125900
    20  H    3.898983   2.695876   2.137980   1.086121   2.148008
    21  H    5.732123   4.643511   3.414913   2.148039   1.083336
    22  H    6.102519   5.343056   3.890081   3.387195   2.159135
    23  H    4.907319   4.612706   3.401446   3.852143   3.399389
    24  H    3.269264   3.674295   4.284351   5.495914   6.341091
                   11         12         13         14         15
    11  C    0.000000
    12  C    1.385125   0.000000
    13  C    2.435140   1.400281   0.000000
    14  N    3.634029   2.328440   1.395048   0.000000
    15  C    4.792286   3.522878   2.458282   1.276681   0.000000
    16  C    5.680956   4.590331   3.347005   2.601420   1.528311
    17  H    7.620422   6.387730   5.270872   4.143494   3.341588
    18  H    6.755855   5.971263   4.599775   4.347702   3.593447
    19  H    4.823914   4.510063   3.349492   3.958188   3.985661
    20  H    3.388111   3.854807   3.420224   4.679672   5.368916
    21  H    2.156688   3.393706   3.911413   5.293976   6.321261
    22  H    1.084406   2.135795   3.406742   4.463732   5.642918
    23  H    2.153493   1.083536   2.125447   2.456255   3.604898
    24  H    6.183181   5.142231   4.023018   3.351521   2.285138
                   16         17         18         19         20
    16  C    0.000000
    17  H    3.419466   0.000000
    18  H    2.271771   4.235965   0.000000
    19  H    3.397266   5.820408   2.651616   0.000000
    20  H    5.441565   7.586433   5.255918   2.653016   0.000000
    21  H    6.851182   8.970694   7.304634   4.847853   2.480521
    22  H    6.623777   8.487884   7.809500   5.886849   4.293065
    23  H    4.882805   6.413521   6.561050   5.415364   4.938123
    24  H    1.082999   4.185211   2.604452   3.861692   5.978997
                   21         22         23         24
    21  H    0.000000
    22  H    2.494780   0.000000
    23  H    4.298188   2.472480   0.000000
    24  H    7.324465   7.075823   5.385810   0.000000
 Stoichiometry    C13H8N2O
 Framework group  C1[X(C13H8N2O)]
 Deg. of freedom    66
 Full point group                 C1      NOp   1
 Largest Abelian subgroup         C1      NOp   1
 Largest concise Abelian subgroup C1      NOp   1
                         Standard orientation:                         
 ---------------------------------------------------------------------
 Center     Atomic      Atomic             Coordinates (Angstroms)
 Number     Number       Type             X           Y           Z
 ---------------------------------------------------------------------
      1          8           0        2.758914   -2.419845    0.280195
      2          6           0        2.551430   -1.261034    0.063116
      3          6           0        3.276007   -0.017066    0.566929
      4          6           0        2.725925    1.029826   -0.061447
      5          6           0        1.570150    1.966796   -0.200205
      6          7           0        0.485225    1.654747    0.668885
      7          6           0       -0.693016    1.852138    0.213088
      8          6           0       -1.657710    0.759079    0.195944
      9          6           0       -3.039153    0.994604    0.195029
     10          6           0       -3.956023   -0.034395    0.050744
     11          6           0       -3.492881   -1.341080   -0.110215
     12          6           0       -2.132570   -1.601457   -0.128326
     13          6           0       -1.181789   -0.579814   -0.014091
     14          7           0        0.129123   -1.056683   -0.030345
     15          6           0        1.226793   -0.609756   -0.504994
     16          6           0        1.710963    0.718164   -1.086321
     17          1           0        3.836301   -0.005384    1.492858
     18          1           0        1.696593    2.949485   -0.659769
     19          1           0       -0.934092    2.737743   -0.403389
     20          1           0       -3.381538    2.017224    0.324176
     21          1           0       -5.019406    0.171463    0.072105
     22          1           0       -4.190971   -2.162873   -0.225379
     23          1           0       -1.759712   -2.611998   -0.245951
     24          1           0        1.932310    0.820614   -2.141497
 ---------------------------------------------------------------------
 Rotational constants (GHZ):           1.1916366           0.4290633           0.3314791
 Standard basis: 6-31G(2df,p) (6D, 7F)
 There are   536 symmetry adapted cartesian basis functions of A   symmetry.
 There are   488 symmetry adapted basis functions of A   symmetry.
   488 basis functions,   760 primitive gaussians,   536 cartesian basis functions
    54 alpha electrons       54 beta electrons
       nuclear repulsion energy       991.7756244504 Hartrees.
 NAtoms=   24 NActive=   24 NUniq=   24 SFac= 1.00D+00 NAtFMM=   60 NAOKFM=F Big=F
 Integral buffers will be    131072 words long.
 Raffenetti 2 integral format.
 Two-electron integral symmetry is turned on.
 One-electron integrals computed using PRISM.
 PrsmSu:  requested number of processors reduced to:  12 ShMem   1 Linda.
 NBasis=   488 RedAO= T EigKep=  1.13D-04  NBF=   488
 NBsUse=   488 1.00D-06 EigRej= -1.00D+00 NBFU=   488
 Initial guess from the checkpoint file:  "OdC1CdC2CdNCdc3ccccc3dNC1dC2.chk"
 B after Tr=    -0.000000   -0.000000    0.000000
         Rot=    0.999991    0.003578   -0.000483   -0.002132 Ang=   0.48 deg.
slurmstepd: error: *** JOB 27446873 ON lewis4-r630-hpc4-node239 CANCELLED AT 2023-05-16T08:39:00 DUE TO TIME LIMIT ***
