### Starting Gaussian ###
 Entering Gaussian System, Link 0=g16
 Initial command:
 /cluster/software/gaussian/gaussian-16-A.03/avx2/g16/l1.exe "/local/scratch/ks29c/Gau-21902.inp" -scrdir="/local/scratch/ks29c/"
 Entering Link 1 = /cluster/software/gaussian/gaussian-16-A.03/avx2/g16/l1.exe PID=     21903.
  
 Copyright (c) 1988,1990,1992,1993,1995,1998,2003,2009,2016,
            Gaussian, Inc.  All Rights Reserved.
  
 This is part of the Gaussian(R) 16 program.  It is based on
 the Gaussian(R) 09 system (copyright 2009, Gaussian, Inc.),
 the Gaussian(R) 03 system (copyright 2003, Gaussian, Inc.),
 the Gaussian(R) 98 system (copyright 1998, Gaussian, Inc.),
 the Gaussian(R) 94 system (copyright 1995, Gaussian, Inc.),
 the Gaussian 92(TM) system (copyright 1992, Gaussian, Inc.),
 the Gaussian 90(TM) system (copyright 1990, Gaussian, Inc.),
 the Gaussian 88(TM) system (copyright 1988, Gaussian, Inc.),
 the Gaussian 86(TM) system (copyright 1986, Carnegie Mellon
 University), and the Gaussian 82(TM) system (copyright 1983,
 Carnegie Mellon University). Gaussian is a federally registered
 trademark of Gaussian, Inc.
  
 This software contains proprietary and confidential information,
 including trade secrets, belonging to Gaussian, Inc.
  
 This software is provided under written license and may be
 used, copied, transmitted, or stored only in accord with that
 written license.
  
 The following legend is applicable only to US Government
 contracts under FAR:
  
                    RESTRICTED RIGHTS LEGEND
  
 Use, reproduction and disclosure by the US Government is
 subject to restrictions as set forth in subparagraphs (a)
 and (c) of the Commercial Computer Software - Restricted
 Rights clause in FAR 52.227-19.
  
 Gaussian, Inc.
 340 Quinnipiac St., Bldg. 40, Wallingford CT 06492
  
  
 ---------------------------------------------------------------
 Warning -- This program may not be used in any manner that
 competes with the business of Gaussian, Inc. or will provide
 assistance to any competitor of Gaussian, Inc.  The licensee
 of this program is prohibited from giving any competitor of
 Gaussian, Inc. access to this program.  By using this program,
 the user acknowledges that Gaussian, Inc. is engaged in the
 business of creating and licensing software in the field of
 computational chemistry and represents and warrants to the
 licensee that it is not a competitor of Gaussian, Inc. and that
 it will not use this program in any manner prohibited above.
 ---------------------------------------------------------------
  

 Cite this work as:
 Gaussian 16, Revision A.03,
 M. J. Frisch, G. W. Trucks, H. B. Schlegel, G. E. Scuseria, 
 M. A. Robb, J. R. Cheeseman, G. Scalmani, V. Barone, 
 G. A. Petersson, H. Nakatsuji, X. Li, M. Caricato, A. V. Marenich, 
 J. Bloino, B. G. Janesko, R. Gomperts, B. Mennucci, H. P. Hratchian, 
 J. V. Ortiz, A. F. Izmaylov, J. L. Sonnenberg, D. Williams-Young, 
 F. Ding, F. Lipparini, F. Egidi, J. Goings, B. Peng, A. Petrone, 
 T. Henderson, D. Ranasinghe, V. G. Zakrzewski, J. Gao, N. Rega, 
 G. Zheng, W. Liang, M. Hada, M. Ehara, K. Toyota, R. Fukuda, 
 J. Hasegawa, M. Ishida, T. Nakajima, Y. Honda, O. Kitao, H. Nakai, 
 T. Vreven, K. Throssell, J. A. Montgomery, Jr., J. E. Peralta, 
 F. Ogliaro, M. J. Bearpark, J. J. Heyd, E. N. Brothers, K. N. Kudin, 
 V. N. Staroverov, T. A. Keith, R. Kobayashi, J. Normand, 
 K. Raghavachari, A. P. Rendell, J. C. Burant, S. S. Iyengar, 
 J. Tomasi, M. Cossi, J. M. Millam, M. Klene, C. Adamo, R. Cammi, 
 J. W. Ochterski, R. L. Martin, K. Morokuma, O. Farkas, 
 J. B. Foresman, and D. J. Fox, Gaussian, Inc., Wallingford CT, 2016.
 
 ******************************************
 Gaussian 16:  ES64L-G16RevA.03 25-Dec-2016
                18-May-2023 
 ******************************************
 %chk=OdC1CNNC2dCCdCCdC3CdC2CdCCdC3O1.chk
 %NProcShared=20
 Will use up to   20 processors via shared memory.
 -----------------------------
 # opt freq b3lyp/6-31g(2df,p)
 -----------------------------
 1/18=20,19=15,26=3,38=1/1,3;
 2/9=110,12=2,17=6,18=5,40=1/2;
 3/5=1,6=6,7=104,11=2,25=1,30=1,71=1,74=-5/1,2,3;
 4//1;
 5/5=2,38=5/2;
 6/7=2,8=2,9=2,10=2,28=1/1;
 7//1,2,3,16;
 1/18=20,19=15,26=3/3(2);
 2/9=110/2;
 99//99;
 2/9=110/2;
 3/5=1,6=6,7=104,11=2,25=1,30=1,71=1,74=-5/1,2,3;
 4/5=5,16=3,69=1/1;
 5/5=2,38=5/2;
 7//1,2,3,16;
 1/18=20,19=15,26=3/3(-5);
 2/9=110/2;
 6/7=2,8=2,9=2,10=2,19=2,28=1/1;
 99/9=1/99;
 -------------------
 Title Card Required
 -------------------
 Symbolic Z-matrix:
 Charge =  0 Multiplicity = 1
 O                     2.25837   0.49559   0.90483 
 C                     3.29421   0.67644   0.22856 
 C                     3.13869   0.43653  -1.28947 
 N                     4.37563  -0.12439  -1.73144 
 N                     4.98834   1.04692  -2.11563 
 C                     6.22431   1.29192  -1.61333 
 C                     7.12915   0.20684  -1.74518 
 C                     8.60063  -0.02408  -1.70498 
 C                     9.46457   0.55606  -0.85285 
 C                     8.90281   1.16869   0.32967 
 C                     7.72236   1.76787   0.20804 
 C                     7.64333   2.91222  -0.79801 
 C                     6.38169   2.90039  -0.93187 
 C                     6.0082    3.78039   0.53803 
 C                     6.74351   3.8304    1.69901 
 C                     6.70301   2.29965   2.2384 
 C                     6.43539   1.39184   1.24684 
 O                     4.74474   0.97225   0.80388 
 H                     2.83517   1.404    -1.73907 
 H                     2.41386  -0.28007  -1.70428 
 H                     4.80217  -0.5892   -0.90774 
 H                     4.98213   1.13452  -3.13261 
 H                     6.69807  -0.80639  -1.8452 
 H                     9.00708  -0.80323  -2.36758 
 H                     10.53777   0.39038  -0.89718 
 H                     9.08371   0.64306   1.24496 
 H                     8.27946   3.04114  -1.70803 
 H                     5.15113   3.48989   1.17701 
 H                     6.28671   4.68726   2.29312 
 H                     7.79469   2.20416   2.46767 
 

 GradGradGradGradGradGradGradGradGradGradGradGradGradGradGradGradGradGrad
 Berny optimization.
 Initialization pass.
                           ----------------------------
                           !    Initial Parameters    !
                           ! (Angstroms and Degrees)  !
 --------------------------                            --------------------------
 ! Name  Definition              Value          Derivative Info.                !
 --------------------------------------------------------------------------------
 ! R1    R(1,2)                  1.2502         estimate D2E/DX2                !
 ! R2    R(2,3)                  1.5447         estimate D2E/DX2                !
 ! R3    R(2,18)                 1.5882         estimate D2E/DX2                !
 ! R4    R(3,4)                  1.4283         estimate D2E/DX2                !
 ! R5    R(3,19)                 1.1092         estimate D2E/DX2                !
 ! R6    R(3,20)                 1.1004         estimate D2E/DX2                !
 ! R7    R(4,5)                  1.3766         estimate D2E/DX2                !
 ! R8    R(4,21)                 1.0375         estimate D2E/DX2                !
 ! R9    R(5,6)                  1.3564         estimate D2E/DX2                !
 ! R10   R(5,22)                 1.0208         estimate D2E/DX2                !
 ! R11   R(6,7)                  1.419          estimate D2E/DX2                !
 ! R12   R(6,13)                 1.7539         estimate D2E/DX2                !
 ! R13   R(7,8)                  1.49           estimate D2E/DX2                !
 ! R14   R(7,23)                 1.1057         estimate D2E/DX2                !
 ! R15   R(8,9)                  1.345          estimate D2E/DX2                !
 ! R16   R(8,24)                 1.1006         estimate D2E/DX2                !
 ! R17   R(9,10)                 1.4454         estimate D2E/DX2                !
 ! R18   R(9,25)                 1.0868         estimate D2E/DX2                !
 ! R19   R(10,11)                1.3294         estimate D2E/DX2                !
 ! R20   R(10,26)                1.0709         estimate D2E/DX2                !
 ! R21   R(11,12)                1.5258         estimate D2E/DX2                !
 ! R22   R(11,17)                1.6961         estimate D2E/DX2                !
 ! R23   R(12,13)                1.2688         estimate D2E/DX2                !
 ! R24   R(12,27)                1.1178         estimate D2E/DX2                !
 ! R25   R(13,14)                1.7534         estimate D2E/DX2                !
 ! R26   R(14,15)                1.3752         estimate D2E/DX2                !
 ! R27   R(14,28)                1.1078         estimate D2E/DX2                !
 ! R28   R(15,16)                1.6235         estimate D2E/DX2                !
 ! R29   R(15,29)                1.1384         estimate D2E/DX2                !
 ! R30   R(16,17)                1.3707         estimate D2E/DX2                !
 ! R31   R(16,30)                1.1196         estimate D2E/DX2                !
 ! A1    A(1,2,3)              115.1949         estimate D2E/DX2                !
 ! A2    A(1,2,18)             125.9934         estimate D2E/DX2                !
 ! A3    A(3,2,18)             118.48           estimate D2E/DX2                !
 ! A4    A(2,3,4)              106.1348         estimate D2E/DX2                !
 ! A5    A(2,3,19)             106.8835         estimate D2E/DX2                !
 ! A6    A(2,3,20)             122.54           estimate D2E/DX2                !
 ! A7    A(4,3,19)             117.0074         estimate D2E/DX2                !
 ! A8    A(4,3,20)             101.423          estimate D2E/DX2                !
 ! A9    A(19,3,20)            103.5895         estimate D2E/DX2                !
 ! A10   A(3,4,5)               97.9129         estimate D2E/DX2                !
 ! A11   A(3,4,21)             106.637          estimate D2E/DX2                !
 ! A12   A(5,4,21)             114.8207         estimate D2E/DX2                !
 ! A13   A(4,5,6)              117.1228         estimate D2E/DX2                !
 ! A14   A(4,5,22)             110.3875         estimate D2E/DX2                !
 ! A15   A(6,5,22)             111.0373         estimate D2E/DX2                !
 ! A16   A(5,6,7)              114.111          estimate D2E/DX2                !
 ! A17   A(5,6,13)             113.0336         estimate D2E/DX2                !
 ! A18   A(7,6,13)             132.8551         estimate D2E/DX2                !
 ! A19   A(6,7,8)              138.2218         estimate D2E/DX2                !
 ! A20   A(6,7,23)             117.4228         estimate D2E/DX2                !
 ! A21   A(8,7,23)             104.2085         estimate D2E/DX2                !
 ! A22   A(7,8,9)              125.773          estimate D2E/DX2                !
 ! A23   A(7,8,24)             117.2692         estimate D2E/DX2                !
 ! A24   A(9,8,24)             116.7152         estimate D2E/DX2                !
 ! A25   A(8,9,10)             116.8391         estimate D2E/DX2                !
 ! A26   A(8,9,25)             122.8664         estimate D2E/DX2                !
 ! A27   A(10,9,25)            118.8004         estimate D2E/DX2                !
 ! A28   A(9,10,11)            117.4702         estimate D2E/DX2                !
 ! A29   A(9,10,26)            115.1862         estimate D2E/DX2                !
 ! A30   A(11,10,26)           116.7074         estimate D2E/DX2                !
 ! A31   A(10,11,12)           116.3832         estimate D2E/DX2                !
 ! A32   A(10,11,17)           121.1852         estimate D2E/DX2                !
 ! A33   A(12,11,17)           122.061          estimate D2E/DX2                !
 ! A34   A(11,12,13)            96.5505         estimate D2E/DX2                !
 ! A35   A(11,12,27)           126.4308         estimate D2E/DX2                !
 ! A36   A(13,12,27)           118.7563         estimate D2E/DX2                !
 ! A37   A(6,13,12)             97.9764         estimate D2E/DX2                !
 ! A38   A(6,13,14)            140.071          estimate D2E/DX2                !
 ! A39   A(12,13,14)            96.8162         estimate D2E/DX2                !
 ! A40   A(13,14,15)           127.7411         estimate D2E/DX2                !
 ! A41   A(13,14,28)           121.1121         estimate D2E/DX2                !
 ! A42   A(15,14,28)            86.3455         estimate D2E/DX2                !
 ! A43   A(14,15,16)           103.4658         estimate D2E/DX2                !
 ! A44   A(14,15,29)           104.6802         estimate D2E/DX2                !
 ! A45   A(16,15,29)           121.7563         estimate D2E/DX2                !
 ! A46   A(15,16,17)           112.8908         estimate D2E/DX2                !
 ! A47   A(15,16,30)            97.1305         estimate D2E/DX2                !
 ! A48   A(17,16,30)           106.3809         estimate D2E/DX2                !
 ! A49   A(11,17,16)            98.515          estimate D2E/DX2                !
 ! D1    D(1,2,3,4)           -144.7467         estimate D2E/DX2                !
 ! D2    D(1,2,3,19)            89.6744         estimate D2E/DX2                !
 ! D3    D(1,2,3,20)           -29.3332         estimate D2E/DX2                !
 ! D4    D(18,2,3,4)            29.0385         estimate D2E/DX2                !
 ! D5    D(18,2,3,19)          -96.5404         estimate D2E/DX2                !
 ! D6    D(18,2,3,20)          144.452          estimate D2E/DX2                !
 ! D7    D(2,3,4,5)            -93.5581         estimate D2E/DX2                !
 ! D8    D(2,3,4,21)            25.3801         estimate D2E/DX2                !
 ! D9    D(19,3,4,5)            25.5717         estimate D2E/DX2                !
 ! D10   D(19,3,4,21)          144.5099         estimate D2E/DX2                !
 ! D11   D(20,3,4,5)           137.413          estimate D2E/DX2                !
 ! D12   D(20,3,4,21)         -103.6489         estimate D2E/DX2                !
 ! D13   D(3,4,5,6)            127.8425         estimate D2E/DX2                !
 ! D14   D(3,4,5,22)          -103.7938         estimate D2E/DX2                !
 ! D15   D(21,4,5,6)            15.3376         estimate D2E/DX2                !
 ! D16   D(21,4,5,22)          143.7013         estimate D2E/DX2                !
 ! D17   D(4,5,6,7)             49.5426         estimate D2E/DX2                !
 ! D18   D(4,5,6,13)          -130.6367         estimate D2E/DX2                !
 ! D19   D(22,5,6,7)           -78.509          estimate D2E/DX2                !
 ! D20   D(22,5,6,13)          101.3117         estimate D2E/DX2                !
 ! D21   D(5,6,7,8)            161.6503         estimate D2E/DX2                !
 ! D22   D(5,6,7,23)           -23.6024         estimate D2E/DX2                !
 ! D23   D(13,6,7,8)           -18.1247         estimate D2E/DX2                !
 ! D24   D(13,6,7,23)          156.6226         estimate D2E/DX2                !
 ! D25   D(5,6,13,12)         -168.3239         estimate D2E/DX2                !
 ! D26   D(5,6,13,14)           80.9359         estimate D2E/DX2                !
 ! D27   D(7,6,13,12)           11.4529         estimate D2E/DX2                !
 ! D28   D(7,6,13,14)          -99.2873         estimate D2E/DX2                !
 ! D29   D(6,7,8,9)             39.8425         estimate D2E/DX2                !
 ! D30   D(6,7,8,24)          -146.0253         estimate D2E/DX2                !
 ! D31   D(23,7,8,9)          -135.349          estimate D2E/DX2                !
 ! D32   D(23,7,8,24)           38.7832         estimate D2E/DX2                !
 ! D33   D(7,8,9,10)            17.2573         estimate D2E/DX2                !
 ! D34   D(7,8,9,25)          -176.8756         estimate D2E/DX2                !
 ! D35   D(24,8,9,10)         -156.9038         estimate D2E/DX2                !
 ! D36   D(24,8,9,25)            8.9633         estimate D2E/DX2                !
 ! D37   D(8,9,10,11)          -35.7892         estimate D2E/DX2                !
 ! D38   D(8,9,10,26)          107.7497         estimate D2E/DX2                !
 ! D39   D(25,9,10,11)         157.7458         estimate D2E/DX2                !
 ! D40   D(25,9,10,26)         -58.7153         estimate D2E/DX2                !
 ! D41   D(9,10,11,12)         -59.2488         estimate D2E/DX2                !
 ! D42   D(9,10,11,17)         127.6009         estimate D2E/DX2                !
 ! D43   D(26,10,11,12)        157.7649         estimate D2E/DX2                !
 ! D44   D(26,10,11,17)        -15.3854         estimate D2E/DX2                !
 ! D45   D(10,11,12,13)        160.2664         estimate D2E/DX2                !
 ! D46   D(10,11,12,27)         26.9032         estimate D2E/DX2                !
 ! D47   D(17,11,12,13)        -26.6484         estimate D2E/DX2                !
 ! D48   D(17,11,12,27)       -160.0116         estimate D2E/DX2                !
 ! D49   D(10,11,17,16)         88.8            estimate D2E/DX2                !
 ! D50   D(12,11,17,16)        -83.9574         estimate D2E/DX2                !
 ! D51   D(11,12,13,6)         -63.2516         estimate D2E/DX2                !
 ! D52   D(11,12,13,14)         79.5542         estimate D2E/DX2                !
 ! D53   D(27,12,13,6)          74.8952         estimate D2E/DX2                !
 ! D54   D(27,12,13,14)       -142.2989         estimate D2E/DX2                !
 ! D55   D(6,13,14,15)          83.2074         estimate D2E/DX2                !
 ! D56   D(6,13,14,28)         -28.6937         estimate D2E/DX2                !
 ! D57   D(12,13,14,15)        -27.9265         estimate D2E/DX2                !
 ! D58   D(12,13,14,28)       -139.8275         estimate D2E/DX2                !
 ! D59   D(13,14,15,16)        -64.432          estimate D2E/DX2                !
 ! D60   D(13,14,15,29)        167.0927         estimate D2E/DX2                !
 ! D61   D(28,14,15,16)         62.8195         estimate D2E/DX2                !
 ! D62   D(28,14,15,29)        -65.6559         estimate D2E/DX2                !
 ! D63   D(14,15,16,17)         22.1555         estimate D2E/DX2                !
 ! D64   D(14,15,16,30)        133.3377         estimate D2E/DX2                !
 ! D65   D(29,15,16,17)        139.1997         estimate D2E/DX2                !
 ! D66   D(29,15,16,30)       -109.618          estimate D2E/DX2                !
 ! D67   D(15,16,17,11)         57.5365         estimate D2E/DX2                !
 ! D68   D(30,16,17,11)        -47.8042         estimate D2E/DX2                !
 --------------------------------------------------------------------------------
 Trust Radius=3.00D-01 FncErr=1.00D-07 GrdErr=1.00D-06 EigMax=2.50D+02 EigMin=1.00D-04
 Number of steps in this run=    158 maximum allowed number of steps=    180.
 GradGradGradGradGradGradGradGradGradGradGradGradGradGradGradGradGradGrad

                          Input orientation:                          
 ---------------------------------------------------------------------
 Center     Atomic      Atomic             Coordinates (Angstroms)
 Number     Number       Type             X           Y           Z
 ---------------------------------------------------------------------
      1          8           0        2.258370    0.495590    0.904830
      2          6           0        3.294210    0.676440    0.228560
      3          6           0        3.138690    0.436530   -1.289470
      4          7           0        4.375630   -0.124390   -1.731440
      5          7           0        4.988340    1.046920   -2.115630
      6          6           0        6.224310    1.291920   -1.613330
      7          6           0        7.129150    0.206840   -1.745180
      8          6           0        8.600630   -0.024080   -1.704980
      9          6           0        9.464570    0.556060   -0.852850
     10          6           0        8.902810    1.168690    0.329670
     11          6           0        7.722360    1.767870    0.208040
     12          6           0        7.643330    2.912220   -0.798010
     13          6           0        6.381690    2.900390   -0.931870
     14          6           0        6.008200    3.780390    0.538030
     15          6           0        6.743510    3.830400    1.699010
     16          6           0        6.703010    2.299650    2.238400
     17          6           0        6.435390    1.391840    1.246840
     18          8           0        4.744740    0.972250    0.803880
     19          1           0        2.835170    1.404000   -1.739070
     20          1           0        2.413860   -0.280070   -1.704280
     21          1           0        4.802170   -0.589200   -0.907740
     22          1           0        4.982130    1.134520   -3.132610
     23          1           0        6.698070   -0.806390   -1.845200
     24          1           0        9.007080   -0.803230   -2.367580
     25          1           0       10.537770    0.390380   -0.897180
     26          1           0        9.083710    0.643060    1.244960
     27          1           0        8.279460    3.041140   -1.708030
     28          1           0        5.151130    3.489890    1.177010
     29          1           0        6.286710    4.687260    2.293120
     30          1           0        7.794690    2.204160    2.467670
 ---------------------------------------------------------------------
                    Distance matrix (angstroms):
                    1          2          3          4          5
     1  O    0.000000
     2  C    1.250205   0.000000
     3  C    2.365038   1.544720   0.000000
     4  N    3.437599   2.377477   1.428282   0.000000
     5  N    4.108513   2.915915   2.115732   1.376584   0.000000
     6  C    4.764866   3.515233   3.218327   2.331845   1.356448
     7  C    5.552515   4.338541   4.022959   2.773405   2.329385
     8  C    6.877894   5.690993   5.497054   4.226273   3.790028
     9  C    7.417709   6.265563   6.342057   5.208862   4.676772
    10  C    6.703168   5.631068   6.031812   5.139610   4.617076
    11  C    5.653264   4.560718   5.002503   4.306139   3.659792
    12  C    6.143090   4.996739   5.163560   4.557429   3.502062
    13  C    5.114518   3.978075   4.088463   3.716569   2.603471
    14  C    4.998568   4.134733   4.770246   4.802404   3.943841
    15  C    5.645189   4.899730   5.783087   5.745886   5.037843
    16  C    4.978741   4.277170   5.349903   5.201182   4.844275
    17  C    4.285759   3.378713   4.267753   3.925776   3.676837
    18  O    2.533660   1.588249   2.692305   2.786882   2.930607
    19  H    2.854490   2.147470   1.109172   2.170035   2.214824
    20  H    2.726404   2.329334   1.100437   1.968125   2.925416
    21  H    3.306524   2.273096   1.991232   1.037529   2.042192
    22  H    4.912028   3.788981   2.698634   1.978882   1.020765
    23  H    5.382263   4.252708   3.810889   2.423178   2.535955
    24  H    7.611878   6.447189   6.094040   4.723963   4.431343
    25  H    8.473888   7.336094   7.409616   6.239627   5.719426
    26  H    6.835401   5.878137   6.466007   5.622629   5.313071
    27  H    7.039914   5.847641   5.778123   5.026034   3.869693
    28  H    4.172287   3.501887   4.410946   4.703563   4.103179
    29  H    5.977037   5.413330   6.388559   6.557537   5.863013
    30  H    6.001043   5.253747   6.238506   5.894459   5.497403
                    6          7          8          9         10
     6  C    0.000000
     7  C    1.418985   0.000000
     8  C    2.717932   1.490031   0.000000
     9  C    3.408681   2.524360   1.345021   0.000000
    10  C    3.311313   2.894137   2.377775   1.445422   0.000000
    11  C    2.405841   2.569782   2.764433   2.372608   1.329388
    12  C    2.302984   2.912146   3.218831   2.978492   2.428549
    13  C    1.753948   2.911251   3.751522   3.873794   3.308521
    14  C    3.296595   4.386324   5.121111   4.927205   3.904249
    15  C    4.205359   5.014115   5.467454   4.963614   3.690849
    16  C    4.010050   4.519995   4.954889   4.496904   3.124330
    17  C    2.869688   3.292068   3.925090   3.779307   2.641810
    18  O    2.852055   3.573370   4.706903   5.019439   4.189631
    19  H    3.393323   4.457745   5.939790   6.741909   6.414929
    20  H    4.122979   4.740539   6.192064   7.150983   6.952865
    21  H    2.461494   2.598042   3.922149   4.801313   4.629969
    22  H    1.968755   2.719420   4.058820   5.062034   5.230706
    23  H    2.163589   1.105653   2.061894   3.239529   3.673129
    24  H    3.564036   2.221316   1.100598   2.085995   3.342828
    25  H    4.464480   3.517312   2.139353   1.086818   2.187241
    26  H    4.094754   3.598823   3.062775   2.133877   1.070872
    27  H    2.700441   3.059060   3.082001   2.882957   2.836698
    28  H    3.710631   4.819769   5.705515   5.597629   4.492333
    29  H    5.176155   6.090298   6.598163   6.087917   4.804108
    30  H    4.466860   4.709600   4.798500   4.065782   2.621292
                   11         12         13         14         15
    11  C    0.000000
    12  C    1.525752   0.000000
    13  C    2.092700   1.268777   0.000000
    14  C    2.664109   2.283062   1.753425   0.000000
    15  C    2.726751   2.808530   2.813781   1.375157   0.000000
    16  C    2.333287   3.237164   3.242645   2.359366   1.623508
    17  C    1.696112   2.819944   2.650544   2.527860   2.499194
    18  O    3.139149   3.838145   3.067598   3.090737   3.600744
    19  H    5.273354   5.126278   3.933009   4.571710   5.743077
    20  H    6.002599   6.193496   5.143502   5.868098   6.871988
    21  H    3.915131   4.510452   3.830497   4.757949   5.486056
    22  H    4.366914   3.961384   3.149654   4.639725   5.806443
    23  H    3.448446   3.977208   3.830729   5.214811   5.836378
    24  H    3.859388   4.257691   4.761380   6.200437   6.567452
    25  H    3.323481   3.840221   4.855343   5.836866   5.741981
    26  H    2.047846   3.376020   4.139449   4.449871   3.980180
    27  H    2.367045   1.117774   2.055180   3.278704   3.819685
    28  H    3.242758   3.231945   2.511805   1.107815   1.710001
    29  H    3.864128   3.813957   3.688155   1.995074   1.138351
    30  H    2.302500   3.344985   3.746756   3.065870   2.083380
                   16         17         18         19         20
    16  C    0.000000
    17  C    1.370741   0.000000
    18  O    2.766706   1.797378   0.000000
    19  H    5.619844   4.677327   3.209277   0.000000
    20  H    6.371537   5.260903   3.645843   1.736319   0.000000
    21  H    4.675130   3.351737   2.317556   2.921138   2.536545
    22  H    5.759054   4.621446   3.946978   2.573715   3.261472
    23  H    5.130624   3.802884   3.741214   4.451863   4.318718
    24  H    6.012625   4.949339   5.601610   6.584783   6.647121
    25  H    5.308725   4.735955   6.065589   7.814490   8.191387
    26  H    3.065770   2.752140   4.373737   6.966184   7.350992
    27  H    4.313851   3.853835   4.804606   5.685199   6.740602
    28  H    2.225208   2.460897   2.577380   4.268270   5.477872
    29  H    2.424249   3.460723   4.289150   6.241112   7.460063
    30  H    1.119575   1.999496   3.686190   6.552386   7.247751
                   21         22         23         24         25
    21  H    0.000000
    22  H    2.820220   0.000000
    23  H    2.126133   2.892923   0.000000
    24  H    4.456255   4.532148   2.367365   0.000000
    25  H    5.818659   6.034569   4.132106   2.435117   0.000000
    26  H    4.948148   6.018938   4.164285   3.892052   2.601327
    27  H    5.090322   4.066573   4.162102   3.967823   3.575468
    28  H    4.594228   4.914179   5.475838   6.772248   6.551726
    29  H    6.347471   6.615318   6.890218   7.698572   6.834669
    30  H    5.305792   6.357496   5.372786   5.821849   4.704944
                   26         27         28         29         30
    26  H    0.000000
    27  H    3.888156   0.000000
    28  H    4.855331   4.279168   0.000000
    29  H    5.027664   4.763398   1.992219   0.000000
    30  H    2.365085   4.286258   3.210501   2.910371   0.000000
 Stoichiometry    C14H12N2O2
 Framework group  C1[X(C14H12N2O2)]
 Deg. of freedom    84
 Full point group                 C1      NOp   1
 Largest Abelian subgroup         C1      NOp   1
 Largest concise Abelian subgroup C1      NOp   1
                         Standard orientation:                         
 ---------------------------------------------------------------------
 Center     Atomic      Atomic             Coordinates (Angstroms)
 Number     Number       Type             X           Y           Z
 ---------------------------------------------------------------------
      1          8           0        3.883504    0.908442   -0.913739
      2          6           0        2.849392    0.352065   -0.484705
      3          6           0        3.084955   -0.954608    0.304771
      4          7           0        1.985921   -1.811297   -0.008595
      5          7           0        1.175178   -1.475074    1.051892
      6          6           0       -0.096995   -1.102727    0.763992
      7          6           0       -0.779809   -1.994486   -0.103215
      8          6           0       -2.182866   -2.305685   -0.496637
      9          6           0       -3.160987   -1.404859   -0.698804
     10          6           0       -2.753264   -0.032587   -0.898485
     11          6           0       -1.702725    0.401508   -0.209136
     12          6           0       -1.813488    0.331907    1.310997
     13          6           0       -0.568860    0.392689    1.549745
     14          6           0       -0.403145    2.126834    1.350293
     15          6           0       -1.163730    2.960174    0.564092
     16          6           0       -0.851758    2.446053   -0.943930
     17          6           0       -0.394632    1.154372   -0.983014
     18          8           0        1.355185    0.783103   -0.807327
     19          1           0        3.213734   -0.669302    1.368857
     20          1           0        3.940965   -1.617999    0.109527
     21          1           0        1.633126   -1.514018   -0.937911
     22          1           0        1.190415   -2.211471    1.758607
     23          1           0       -0.164816   -2.635115   -0.761885
     24          1           0       -2.420007   -3.354546   -0.731091
     25          1           0       -4.182949   -1.687431   -0.937385
     26          1           0       -2.855758    0.332132   -1.900106
     27          1           0       -2.439490   -0.383596    1.898869
     28          1           0        0.476796    2.562539    0.837341
     29          1           0       -0.889927    4.010314    0.907722
     30          1           0       -1.911827    2.416825   -1.302883
 ---------------------------------------------------------------------
 Rotational constants (GHZ):           0.6655386           0.4221973           0.3185618
 Standard basis: 6-31G(2df,p) (6D, 7F)
 There are   618 symmetry adapted cartesian basis functions of A   symmetry.
 There are   564 symmetry adapted basis functions of A   symmetry.
   564 basis functions,   876 primitive gaussians,   618 cartesian basis functions
    63 alpha electrons       63 beta electrons
       nuclear repulsion energy      1297.4458979601 Hartrees.
 NAtoms=   30 NActive=   30 NUniq=   30 SFac= 1.00D+00 NAtFMM=   60 NAOKFM=F Big=F
 Integral buffers will be    131072 words long.
 Raffenetti 2 integral format.
 Two-electron integral symmetry is turned on.
 One-electron integrals computed using PRISM.
 PrsmSu:  requested number of processors reduced to:  12 ShMem   1 Linda.
 NBasis=   564 RedAO= T EigKep=  2.11D-04  NBF=   564
 NBsUse=   564 1.00D-06 EigRej= -1.00D+00 NBFU=   564
 ExpMin= 1.61D-01 ExpMax= 5.48D+03 ExpMxC= 8.25D+02 IAcc=3 IRadAn=         5 AccDes= 0.00D+00
 Harris functional with IExCor=  402 and IRadAn=       5 diagonalized for initial guess.
 HarFok:  IExCor=  402 AccDes= 0.00D+00 IRadAn=         5 IDoV= 1 UseB2=F ITyADJ=14
 ICtDFT=  3500011 ScaDFX=  1.000000  1.000000  1.000000  1.000000
 FoFCou: FMM=F IPFlag=           0 FMFlag=      100000 FMFlg1=           0
         NFxFlg=           0 DoJE=T BraDBF=F KetDBF=T FulRan=T
         wScrn=  0.000000 ICntrl=       500 IOpCl=  0 I1Cent=   200000004 NGrid=           0
         NMat0=    1 NMatS0=      1 NMatT0=    0 NMatD0=    1 NMtDS0=    0 NMtDT0=    0
 Petite list used in FoFCou.
 Requested convergence on RMS density matrix=1.00D-08 within 128 cycles.
 Requested convergence on MAX density matrix=1.00D-06.
 Requested convergence on             energy=1.00D-06.
 No special actions if energy rises.
 Integral accuracy reduced to 1.0D-05 until final iterations.
 EnCoef did     3 forward-backward iterations
 Problem detected with inexpensive integrals.
 Switching to full accuracy and repeating last cycle.
 EnCoef did     3 forward-backward iterations
 EnCoef did     2 forward-backward iterations
 Restarting incremental Fock formation.
 SCF Done:  E(RB3LYP) =  -799.737790965     A.U. after   29 cycles
            NFock= 29  Conv=0.86D-08     -V/T= 2.0076

 **********************************************************************

            Population analysis using the SCF density.

 **********************************************************************

 Orbital symmetries:
       Occupied  (A) (A) (A) (A) (A) (A) (A) (A) (A) (A) (A) (A)
                 (A) (A) (A) (A) (A) (A) (A) (A) (A) (A) (A) (A)
                 (A) (A) (A) (A) (A) (A) (A) (A) (A) (A) (A) (A)
                 (A) (A) (A) (A) (A) (A) (A) (A) (A) (A) (A) (A)
                 (A) (A) (A) (A) (A) (A) (A) (A) (A) (A) (A) (A)
                 (A) (A) (A)
       Virtual   (A) (A) (A) (A) (A) (A) (A) (A) (A) (A) (A) (A)
                 (A) (A) (A) (A) (A) (A) (A) (A) (A) (A) (A) (A)
                 (A) (A) (A) (A) (A) (A) (A) (A) (A) (A) (A) (A)
                 (A) (A) (A) (A) (A) (A) (A) (A) (A) (A) (A) (A)
                 (A) (A) (A) (A) (A) (A) (A) (A) (A) (A) (A) (A)
                 (A) (A) (A) (A) (A) (A) (A) (A) (A) (A) (A) (A)
                 (A) (A) (A) (A) (A) (A) (A) (A) (A) (A) (A) (A)
                 (A) (A) (A) (A) (A) (A) (A) (A) (A) (A) (A) (A)
                 (A) (A) (A) (A) (A) (A) (A) (A) (A) (A) (A) (A)
                 (A) (A) (A) (A) (A) (A) (A) (A) (A) (A) (A) (A)
                 (A) (A) (A) (A) (A) (A) (A) (A) (A) (A) (A) (A)
                 (A) (A) (A) (A) (A) (A) (A) (A) (A) (A) (A) (A)
                 (A) (A) (A) (A) (A) (A) (A) (A) (A) (A) (A) (A)
                 (A) (A) (A) (A) (A) (A) (A) (A) (A) (A) (A) (A)
                 (A) (A) (A) (A) (A) (A) (A) (A) (A) (A) (A) (A)
                 (A) (A) (A) (A) (A) (A) (A) (A) (A) (A) (A) (A)
                 (A) (A) (A) (A) (A) (A) (A) (A) (A) (A) (A) (A)
                 (A) (A) (A) (A) (A) (A) (A) (A) (A) (A) (A) (A)
                 (A) (A) (A) (A) (A) (A) (A) (A) (A) (A) (A) (A)
                 (A) (A) (A) (A) (A) (A) (A) (A) (A) (A) (A) (A)
                 (A) (A) (A) (A) (A) (A) (A) (A) (A) (A) (A) (A)
                 (A) (A) (A) (A) (A) (A) (A) (A) (A) (A) (A) (A)
                 (A) (A) (A) (A) (A) (A) (A) (A) (A) (A) (A) (A)
                 (A) (A) (A) (A) (A) (A) (A) (A) (A) (A) (A) (A)
                 (A) (A) (A) (A) (A) (A) (A) (A) (A) (A) (A) (A)
                 (A) (A) (A) (A) (A) (A) (A) (A) (A) (A) (A) (A)
                 (A) (A) (A) (A) (A) (A) (A) (A) (A) (A) (A) (A)
                 (A) (A) (A) (A) (A) (A) (A) (A) (A) (A) (A) (A)
                 (A) (A) (A) (A) (A) (A) (A) (A) (A) (A) (A) (A)
                 (A) (A) (A) (A) (A) (A) (A) (A) (A) (A) (A) (A)
                 (A) (A) (A) (A) (A) (A) (A) (A) (A) (A) (A) (A)
                 (A) (A) (A) (A) (A) (A) (A) (A) (A) (A) (A) (A)
                 (A) (A) (A) (A) (A) (A) (A) (A) (A) (A) (A) (A)
                 (A) (A) (A) (A) (A) (A) (A) (A) (A) (A) (A) (A)
                 (A) (A) (A) (A) (A) (A) (A) (A) (A) (A) (A) (A)
                 (A) (A) (A) (A) (A) (A) (A) (A) (A) (A) (A) (A)
                 (A) (A) (A) (A) (A) (A) (A) (A) (A) (A) (A) (A)
                 (A) (A) (A) (A) (A) (A) (A) (A) (A) (A) (A) (A)
                 (A) (A) (A) (A) (A) (A) (A) (A) (A) (A) (A) (A)
                 (A) (A) (A) (A) (A) (A) (A) (A) (A) (A) (A) (A)
                 (A) (A) (A) (A) (A) (A) (A) (A) (A) (A) (A) (A)
                 (A) (A) (A) (A) (A) (A) (A) (A) (A)
 The electronic state is 1-A.
 Alpha  occ. eigenvalues --  -19.12832 -19.11317 -14.37467 -14.35964 -10.30240
 Alpha  occ. eigenvalues --  -10.29642 -10.25899 -10.25212 -10.24066 -10.23529
 Alpha  occ. eigenvalues --  -10.23077 -10.22985 -10.22476 -10.22027 -10.21965
 Alpha  occ. eigenvalues --  -10.21442 -10.20798 -10.20796  -1.03926  -1.01175
 Alpha  occ. eigenvalues --   -0.90925  -0.88938  -0.85634  -0.84576  -0.81535
 Alpha  occ. eigenvalues --   -0.77935  -0.74394  -0.70931  -0.68658  -0.64914
 Alpha  occ. eigenvalues --   -0.59366  -0.58908  -0.57098  -0.54836  -0.53912
 Alpha  occ. eigenvalues --   -0.52738  -0.51796  -0.50022  -0.49233  -0.47988
 Alpha  occ. eigenvalues --   -0.45515  -0.44803  -0.43984  -0.43173  -0.42000
 Alpha  occ. eigenvalues --   -0.41666  -0.40715  -0.39635  -0.39198  -0.38332
 Alpha  occ. eigenvalues --   -0.36701  -0.36005  -0.33623  -0.30876  -0.28741
 Alpha  occ. eigenvalues --   -0.26934  -0.26393  -0.25921  -0.24369  -0.22407
 Alpha  occ. eigenvalues --   -0.20079  -0.19271  -0.16837
 Alpha virt. eigenvalues --   -0.13001  -0.11393  -0.07648  -0.06268  -0.05231
 Alpha virt. eigenvalues --   -0.00639   0.00391   0.01211   0.05310   0.08231
 Alpha virt. eigenvalues --    0.08995   0.09422   0.10258   0.11731   0.12288
 Alpha virt. eigenvalues --    0.12789   0.13285   0.13532   0.15629   0.16057
 Alpha virt. eigenvalues --    0.16810   0.18136   0.20115   0.21456   0.22034
 Alpha virt. eigenvalues --    0.23190   0.23512   0.24462   0.26281   0.26984
 Alpha virt. eigenvalues --    0.28379   0.30417   0.32536   0.33398   0.34780
 Alpha virt. eigenvalues --    0.35582   0.36293   0.38761   0.39384   0.41169
 Alpha virt. eigenvalues --    0.41919   0.44072   0.44568   0.45446   0.45925
 Alpha virt. eigenvalues --    0.47649   0.48023   0.48455   0.48959   0.49332
 Alpha virt. eigenvalues --    0.50627   0.51462   0.52230   0.52737   0.53421
 Alpha virt. eigenvalues --    0.53674   0.54339   0.55080   0.55602   0.56482
 Alpha virt. eigenvalues --    0.56949   0.57561   0.58285   0.59259   0.59413
 Alpha virt. eigenvalues --    0.60561   0.61140   0.61498   0.63727   0.64075
 Alpha virt. eigenvalues --    0.64661   0.66274   0.66981   0.67295   0.68292
 Alpha virt. eigenvalues --    0.69014   0.69510   0.70175   0.71017   0.71589
 Alpha virt. eigenvalues --    0.72278   0.72620   0.73748   0.74680   0.75019
 Alpha virt. eigenvalues --    0.75219   0.76557   0.76990   0.78156   0.78380
 Alpha virt. eigenvalues --    0.79020   0.79781   0.80338   0.81054   0.81664
 Alpha virt. eigenvalues --    0.81947   0.82914   0.83615   0.85170   0.86784
 Alpha virt. eigenvalues --    0.87565   0.87867   0.89211   0.90476   0.92015
 Alpha virt. eigenvalues --    0.92745   0.93667   0.94478   0.96321   0.96625
 Alpha virt. eigenvalues --    0.97202   0.97659   0.98379   0.99674   1.00512
 Alpha virt. eigenvalues --    1.02272   1.03412   1.04602   1.05247   1.05679
 Alpha virt. eigenvalues --    1.07471   1.08550   1.10935   1.12470   1.12895
 Alpha virt. eigenvalues --    1.14328   1.14734   1.16763   1.18112   1.19055
 Alpha virt. eigenvalues --    1.21588   1.22611   1.24385   1.25539   1.25757
 Alpha virt. eigenvalues --    1.27261   1.27591   1.28724   1.29314   1.31535
 Alpha virt. eigenvalues --    1.32379   1.32696   1.33673   1.35904   1.36480
 Alpha virt. eigenvalues --    1.37501   1.37932   1.39513   1.39806   1.40776
 Alpha virt. eigenvalues --    1.41192   1.42122   1.44285   1.45396   1.45675
 Alpha virt. eigenvalues --    1.47176   1.47798   1.49626   1.50455   1.51226
 Alpha virt. eigenvalues --    1.51765   1.52844   1.53530   1.54599   1.56007
 Alpha virt. eigenvalues --    1.56366   1.57107   1.57937   1.59389   1.59741
 Alpha virt. eigenvalues --    1.61523   1.62277   1.63847   1.64710   1.66419
 Alpha virt. eigenvalues --    1.67054   1.67633   1.70893   1.71200   1.71506
 Alpha virt. eigenvalues --    1.73140   1.74044   1.75638   1.76961   1.78229
 Alpha virt. eigenvalues --    1.79084   1.80034   1.81401   1.82228   1.83036
 Alpha virt. eigenvalues --    1.84974   1.86521   1.88250   1.88478   1.90208
 Alpha virt. eigenvalues --    1.91290   1.92065   1.94133   1.95783   1.96609
 Alpha virt. eigenvalues --    1.99094   2.00733   2.02033   2.02506   2.05264
 Alpha virt. eigenvalues --    2.07663   2.08121   2.09946   2.13251   2.13755
 Alpha virt. eigenvalues --    2.16525   2.18848   2.20038   2.22159   2.25204
 Alpha virt. eigenvalues --    2.26374   2.30517   2.32621   2.32899   2.33318
 Alpha virt. eigenvalues --    2.35726   2.37862   2.40224   2.42736   2.44386
 Alpha virt. eigenvalues --    2.46190   2.47173   2.48553   2.52520   2.53797
 Alpha virt. eigenvalues --    2.54757   2.56875   2.59479   2.60704   2.64049
 Alpha virt. eigenvalues --    2.65972   2.68372   2.70217   2.70744   2.71812
 Alpha virt. eigenvalues --    2.74346   2.74947   2.75829   2.77498   2.78179
 Alpha virt. eigenvalues --    2.78691   2.79994   2.81743   2.81919   2.84804
 Alpha virt. eigenvalues --    2.85775   2.86259   2.86601   2.88723   2.89057
 Alpha virt. eigenvalues --    2.89949   2.91225   2.91773   2.93594   2.93887
 Alpha virt. eigenvalues --    2.95284   2.96217   2.97394   2.98787   3.01453
 Alpha virt. eigenvalues --    3.01680   3.04361   3.05574   3.06291   3.07382
 Alpha virt. eigenvalues --    3.08258   3.08970   3.09542   3.10987   3.11274
 Alpha virt. eigenvalues --    3.12994   3.13671   3.14477   3.15343   3.16094
 Alpha virt. eigenvalues --    3.17750   3.18813   3.19409   3.20796   3.22594
 Alpha virt. eigenvalues --    3.23006   3.24191   3.24798   3.25245   3.26589
 Alpha virt. eigenvalues --    3.27086   3.28616   3.29809   3.31129   3.31870
 Alpha virt. eigenvalues --    3.34236   3.34361   3.36436   3.38402   3.39282
 Alpha virt. eigenvalues --    3.40643   3.41209   3.42347   3.43536   3.45926
 Alpha virt. eigenvalues --    3.46490   3.47465   3.49146   3.52215   3.52305
 Alpha virt. eigenvalues --    3.53693   3.54202   3.56013   3.57884   3.59057
 Alpha virt. eigenvalues --    3.59251   3.61374   3.63972   3.65089   3.65941
 Alpha virt. eigenvalues --    3.67446   3.68526   3.69875   3.71964   3.74452
 Alpha virt. eigenvalues --    3.76400   3.78016   3.79553   3.80518   3.81754
 Alpha virt. eigenvalues --    3.82313   3.84896   3.86808   3.88016   3.89261
 Alpha virt. eigenvalues --    3.91065   3.92832   3.94019   3.95044   3.95688
 Alpha virt. eigenvalues --    3.98366   3.99463   4.01749   4.04625   4.05400
 Alpha virt. eigenvalues --    4.07502   4.10392   4.11818   4.14417   4.15660
 Alpha virt. eigenvalues --    4.17830   4.19108   4.20850   4.21706   4.22590
 Alpha virt. eigenvalues --    4.24090   4.25664   4.26145   4.26894   4.29628
 Alpha virt. eigenvalues --    4.30877   4.32587   4.33188   4.34830   4.37164
 Alpha virt. eigenvalues --    4.37518   4.38905   4.39987   4.40814   4.42717
 Alpha virt. eigenvalues --    4.42913   4.44264   4.45140   4.46133   4.48102
 Alpha virt. eigenvalues --    4.48820   4.50112   4.50883   4.51283   4.52576
 Alpha virt. eigenvalues --    4.53393   4.54725   4.55109   4.56927   4.57227
 Alpha virt. eigenvalues --    4.57525   4.58554   4.59856   4.61313   4.61984
 Alpha virt. eigenvalues --    4.63156   4.63460   4.64219   4.65369   4.66922
 Alpha virt. eigenvalues --    4.68177   4.68553   4.69142   4.70379   4.71702
 Alpha virt. eigenvalues --    4.72785   4.73971   4.75156   4.75919   4.76637
 Alpha virt. eigenvalues --    4.78158   4.78977   4.81611   4.82805   4.84146
 Alpha virt. eigenvalues --    4.84435   4.85808   4.86491   4.87659   4.90686
 Alpha virt. eigenvalues --    4.91667   4.92060   4.92914   4.94095   4.95862
 Alpha virt. eigenvalues --    4.96297   4.98595   5.00743   5.01042   5.01125
 Alpha virt. eigenvalues --    5.03176   5.03744   5.04887   5.06957   5.08685
 Alpha virt. eigenvalues --    5.09095   5.09860   5.10820   5.11491   5.13023
 Alpha virt. eigenvalues --    5.14147   5.14569   5.15762   5.17062   5.18833
 Alpha virt. eigenvalues --    5.19371   5.20667   5.22102   5.23443   5.25112
 Alpha virt. eigenvalues --    5.27742   5.28536   5.29157   5.30655   5.33088
 Alpha virt. eigenvalues --    5.36426   5.38059   5.40908   5.41422   5.42233
 Alpha virt. eigenvalues --    5.44841   5.46417   5.52003   5.52171   5.54708
 Alpha virt. eigenvalues --    5.57408   5.59546   5.60319   5.64071   5.70987
 Alpha virt. eigenvalues --    5.73557   5.74545   5.77070   5.78873   5.85403
 Alpha virt. eigenvalues --    5.97333   5.98156   6.10906   6.20232   6.26686
 Alpha virt. eigenvalues --    6.35465   6.47636   6.51781   6.54793   6.74456
 Alpha virt. eigenvalues --    7.09672  10.08374  10.55249  10.82852  10.92379
 Alpha virt. eigenvalues --   11.19155  11.21119  11.30610  11.38610  11.49591
 Alpha virt. eigenvalues --   11.69089  11.76392  11.87484  12.10420  12.41106
 Alpha virt. eigenvalues --   12.52248  12.75262  12.98154  13.25968  13.87522
 Alpha virt. eigenvalues --   20.86264
          Condensed to atoms (all electrons):
               1          2          3          4          5          6
     1  O    7.735605   0.671373  -0.064487   0.002581  -0.000130   0.000048
     2  C    0.671373   4.436864   0.269935  -0.050439   0.001712   0.000161
     3  C   -0.064487   0.269935   5.196899   0.315756  -0.088043   0.001174
     4  N    0.002581  -0.050439   0.315756   6.575306   0.258599  -0.074078
     5  N   -0.000130   0.001712  -0.088043   0.258599   6.469489   0.420051
     6  C    0.000048   0.000161   0.001174  -0.074078   0.420051   4.802736
     7  C   -0.000004  -0.000472   0.001848  -0.006401  -0.056016   0.532296
     8  C   -0.000000   0.000007  -0.000032   0.000095   0.002932  -0.007207
     9  C    0.000000  -0.000001   0.000001   0.000007   0.000012  -0.010024
    10  C    0.000000  -0.000009   0.000005  -0.000032  -0.000147  -0.011006
    11  C   -0.000004  -0.000562   0.000179  -0.000036   0.000468  -0.008959
    12  C    0.000000   0.000057  -0.000034  -0.000105   0.000956  -0.047104
    13  C    0.000001   0.000289  -0.000653   0.004954  -0.039614   0.320183
    14  C   -0.000005   0.000970  -0.000185  -0.000027   0.000546  -0.008416
    15  C    0.000001  -0.000141  -0.000003   0.000008  -0.000057   0.001247
    16  C   -0.000021  -0.000007  -0.000041  -0.000012   0.000011   0.000749
    17  C    0.000259   0.003797   0.000712  -0.000192  -0.000594  -0.004906
    18  O   -0.029996   0.296846  -0.060298  -0.007114  -0.003895   0.012143
    19  H   -0.000472  -0.009341   0.356660  -0.012833  -0.006826   0.001482
    20  H   -0.003987  -0.011660   0.348852  -0.046715   0.010182  -0.000400
    21  H   -0.000345  -0.000762  -0.065948   0.342619  -0.038452   0.002810
    22  H    0.000003   0.000179   0.000543  -0.033271   0.332387  -0.034143
    23  H   -0.000000  -0.000042   0.000513   0.009328  -0.016548  -0.046297
    24  H   -0.000000  -0.000000   0.000000  -0.000001  -0.000101   0.002367
    25  H    0.000000  -0.000000  -0.000000  -0.000000   0.000001   0.000032
    26  H   -0.000000  -0.000000   0.000000  -0.000000   0.000004  -0.000055
    27  H   -0.000000   0.000000  -0.000001   0.000003   0.000103  -0.002523
    28  H   -0.000144   0.002447   0.000109  -0.000063   0.000500  -0.001140
    29  H    0.000000  -0.000010   0.000000  -0.000000  -0.000000  -0.000003
    30  H    0.000000  -0.000010   0.000001  -0.000000  -0.000001   0.000140
               7          8          9         10         11         12
     1  O   -0.000004  -0.000000   0.000000   0.000000  -0.000004   0.000000
     2  C   -0.000472   0.000007  -0.000001  -0.000009  -0.000562   0.000057
     3  C    0.001848  -0.000032   0.000001   0.000005   0.000179  -0.000034
     4  N   -0.006401   0.000095   0.000007  -0.000032  -0.000036  -0.000105
     5  N   -0.056016   0.002932   0.000012  -0.000147   0.000468   0.000956
     6  C    0.532296  -0.007207  -0.010024  -0.011006  -0.008959  -0.047104
     7  C    4.941544   0.441146  -0.009991  -0.035232   0.009317  -0.009300
     8  C    0.441146   4.831222   0.605555  -0.040822  -0.007066  -0.004766
     9  C   -0.009991   0.605555   4.826550   0.438870  -0.013904  -0.009830
    10  C   -0.035232  -0.040822   0.438870   5.116531   0.527330  -0.035237
    11  C    0.009317  -0.007066  -0.013904   0.527330   4.904168   0.421292
    12  C   -0.009300  -0.004766  -0.009830  -0.035237   0.421292   5.088317
    13  C   -0.037808  -0.001958   0.002870   0.004930  -0.157550   0.316074
    14  C   -0.000532  -0.000040  -0.000067   0.004563  -0.081640  -0.008101
    15  C    0.000021   0.000019   0.000045   0.002919  -0.001952  -0.016717
    16  C    0.000528  -0.000166   0.001106  -0.009314  -0.016472  -0.009885
    17  C   -0.007724   0.003905  -0.000579  -0.040608   0.263578  -0.022169
    18  O   -0.000894  -0.000040   0.000017   0.000360  -0.009935   0.000705
    19  H    0.000051   0.000000  -0.000000   0.000000   0.000002   0.000010
    20  H    0.000007  -0.000001   0.000000   0.000000  -0.000001   0.000001
    21  H    0.001466  -0.000248  -0.000016  -0.000005  -0.000319   0.000027
    22  H   -0.008275  -0.000201  -0.000005  -0.000015  -0.000038  -0.000674
    23  H    0.366271  -0.044289   0.004434   0.002446  -0.000524   0.001257
    24  H   -0.040673   0.368077  -0.043257   0.005769   0.001130   0.000008
    25  H    0.005347  -0.041399   0.364259  -0.043722   0.002378   0.000326
    26  H    0.000182  -0.003185  -0.045248   0.340740  -0.012344   0.006539
    27  H   -0.000789   0.002194   0.005104  -0.000942  -0.049577   0.358575
    28  H    0.000027  -0.000001   0.000003  -0.000048   0.001314   0.001169
    29  H   -0.000001  -0.000000   0.000001  -0.000046   0.000198   0.000518
    30  H   -0.000012  -0.000027   0.000565   0.002479   0.003629   0.000378
              13         14         15         16         17         18
     1  O    0.000001  -0.000005   0.000001  -0.000021   0.000259  -0.029996
     2  C    0.000289   0.000970  -0.000141  -0.000007   0.003797   0.296846
     3  C   -0.000653  -0.000185  -0.000003  -0.000041   0.000712  -0.060298
     4  N    0.004954  -0.000027   0.000008  -0.000012  -0.000192  -0.007114
     5  N   -0.039614   0.000546  -0.000057   0.000011  -0.000594  -0.003895
     6  C    0.320183  -0.008416   0.001247   0.000749  -0.004906   0.012143
     7  C   -0.037808  -0.000532   0.000021   0.000528  -0.007724  -0.000894
     8  C   -0.001958  -0.000040   0.000019  -0.000166   0.003905  -0.000040
     9  C    0.002870  -0.000067   0.000045   0.001106  -0.000579   0.000017
    10  C    0.004930   0.004563   0.002919  -0.009314  -0.040608   0.000360
    11  C   -0.157550  -0.081640  -0.001952  -0.016472   0.263578  -0.009935
    12  C    0.316074  -0.008101  -0.016717  -0.009885  -0.022169   0.000705
    13  C    5.425041   0.395952  -0.031214  -0.016443  -0.015721  -0.002873
    14  C    0.395952   5.348558   0.409585  -0.071183  -0.046653  -0.008761
    15  C   -0.031214   0.409585   5.259925   0.339263  -0.035970  -0.002169
    16  C   -0.016443  -0.071183   0.339263   5.224501   0.466389  -0.009430
    17  C   -0.015721  -0.046653  -0.035970   0.466389   5.269497   0.121004
    18  O   -0.002873  -0.008761  -0.002169  -0.009430   0.121004   8.172386
    19  H   -0.000220   0.000050  -0.000001   0.000001  -0.000034   0.000252
    20  H    0.000005   0.000001  -0.000000  -0.000000   0.000006   0.000506
    21  H   -0.000122   0.000013   0.000003   0.000097   0.001596   0.022335
    22  H    0.004877  -0.000024   0.000003  -0.000001   0.000068   0.000238
    23  H    0.000958   0.000001   0.000000  -0.000008   0.000002  -0.000276
    24  H   -0.000078  -0.000000  -0.000000   0.000001  -0.000023  -0.000000
    25  H   -0.000047   0.000002  -0.000002   0.000014  -0.000157   0.000000
    26  H   -0.000575  -0.000182   0.000149  -0.001700  -0.004964  -0.000006
    27  H   -0.046254   0.003447  -0.000258   0.000008   0.000750  -0.000016
    28  H   -0.018461   0.336167  -0.044592  -0.014569  -0.001399   0.010809
    29  H    0.003791  -0.052698   0.345299  -0.031903   0.003548   0.000023
    30  H    0.002633   0.005386  -0.037008   0.331388  -0.040823   0.001269
              19         20         21         22         23         24
     1  O   -0.000472  -0.003987  -0.000345   0.000003  -0.000000  -0.000000
     2  C   -0.009341  -0.011660  -0.000762   0.000179  -0.000042  -0.000000
     3  C    0.356660   0.348852  -0.065948   0.000543   0.000513   0.000000
     4  N   -0.012833  -0.046715   0.342619  -0.033271   0.009328  -0.000001
     5  N   -0.006826   0.010182  -0.038452   0.332387  -0.016548  -0.000101
     6  C    0.001482  -0.000400   0.002810  -0.034143  -0.046297   0.002367
     7  C    0.000051   0.000007   0.001466  -0.008275   0.366271  -0.040673
     8  C    0.000000  -0.000001  -0.000248  -0.000201  -0.044289   0.368077
     9  C   -0.000000   0.000000  -0.000016  -0.000005   0.004434  -0.043257
    10  C    0.000000   0.000000  -0.000005  -0.000015   0.002446   0.005769
    11  C    0.000002  -0.000001  -0.000319  -0.000038  -0.000524   0.001130
    12  C    0.000010   0.000001   0.000027  -0.000674   0.001257   0.000008
    13  C   -0.000220   0.000005  -0.000122   0.004877   0.000958  -0.000078
    14  C    0.000050   0.000001   0.000013  -0.000024   0.000001  -0.000000
    15  C   -0.000001  -0.000000   0.000003   0.000003   0.000000  -0.000000
    16  C    0.000001  -0.000000   0.000097  -0.000001  -0.000008   0.000001
    17  C   -0.000034   0.000006   0.001596   0.000068   0.000002  -0.000023
    18  O    0.000252   0.000506   0.022335   0.000238  -0.000276  -0.000000
    19  H    0.556206  -0.042017   0.004038   0.001433   0.000009   0.000000
    20  H   -0.042017   0.619901   0.004614  -0.000942   0.000050  -0.000000
    21  H    0.004038   0.004614   0.462464   0.003963  -0.000189   0.000014
    22  H    0.001433  -0.000942   0.003963   0.473206  -0.000995   0.000012
    23  H    0.000009   0.000050  -0.000189  -0.000995   0.591130  -0.003912
    24  H    0.000000  -0.000000   0.000014   0.000012  -0.003912   0.590612
    25  H    0.000000  -0.000000  -0.000000  -0.000000  -0.000200  -0.006276
    26  H    0.000000  -0.000000   0.000001  -0.000000   0.000107  -0.000279
    27  H    0.000000  -0.000000  -0.000001   0.000136   0.000065  -0.000005
    28  H    0.000005   0.000003  -0.000028  -0.000018   0.000000  -0.000000
    29  H    0.000000  -0.000000  -0.000000   0.000000  -0.000000  -0.000000
    30  H   -0.000000  -0.000000  -0.000003   0.000000  -0.000000  -0.000000
              25         26         27         28         29         30
     1  O    0.000000  -0.000000  -0.000000  -0.000144   0.000000   0.000000
     2  C   -0.000000  -0.000000   0.000000   0.002447  -0.000010  -0.000010
     3  C   -0.000000   0.000000  -0.000001   0.000109   0.000000   0.000001
     4  N   -0.000000  -0.000000   0.000003  -0.000063  -0.000000  -0.000000
     5  N    0.000001   0.000004   0.000103   0.000500  -0.000000  -0.000001
     6  C    0.000032  -0.000055  -0.002523  -0.001140  -0.000003   0.000140
     7  C    0.005347   0.000182  -0.000789   0.000027  -0.000001  -0.000012
     8  C   -0.041399  -0.003185   0.002194  -0.000001  -0.000000  -0.000027
     9  C    0.364259  -0.045248   0.005104   0.000003   0.000001   0.000565
    10  C   -0.043722   0.340740  -0.000942  -0.000048  -0.000046   0.002479
    11  C    0.002378  -0.012344  -0.049577   0.001314   0.000198   0.003629
    12  C    0.000326   0.006539   0.358575   0.001169   0.000518   0.000378
    13  C   -0.000047  -0.000575  -0.046254  -0.018461   0.003791   0.002633
    14  C    0.000002  -0.000182   0.003447   0.336167  -0.052698   0.005386
    15  C   -0.000002   0.000149  -0.000258  -0.044592   0.345299  -0.037008
    16  C    0.000014  -0.001700   0.000008  -0.014569  -0.031903   0.331388
    17  C   -0.000157  -0.004964   0.000750  -0.001399   0.003548  -0.040823
    18  O    0.000000  -0.000006  -0.000016   0.010809   0.000023   0.001269
    19  H    0.000000   0.000000   0.000000   0.000005   0.000000  -0.000000
    20  H   -0.000000  -0.000000  -0.000000   0.000003  -0.000000  -0.000000
    21  H   -0.000000   0.000001  -0.000001  -0.000028  -0.000000  -0.000003
    22  H   -0.000000  -0.000000   0.000136  -0.000018   0.000000   0.000000
    23  H   -0.000200   0.000107   0.000065   0.000000  -0.000000  -0.000000
    24  H   -0.006276  -0.000279  -0.000005  -0.000000  -0.000000  -0.000000
    25  H    0.605622   0.000428   0.000165  -0.000000   0.000000  -0.000003
    26  H    0.000428   0.586727   0.000221  -0.000015  -0.000007  -0.000844
    27  H    0.000165   0.000221   0.584266  -0.000161   0.000025   0.000071
    28  H   -0.000000  -0.000015  -0.000161   0.510173  -0.001884   0.001141
    29  H    0.000000  -0.000007   0.000025  -0.001884   0.595755   0.001527
    30  H   -0.000003  -0.000844   0.000071   0.001141   0.001527   0.563222
 Mulliken charges:
               1
     1  O   -0.310276
     2  C    0.388819
     3  C   -0.213464
     4  N   -0.277936
     5  N   -0.247529
     6  C    0.158643
     7  C   -0.085924
     8  C   -0.103705
     9  C   -0.116476
    10  C   -0.229757
    11  C    0.225899
    12  C   -0.032287
    13  C   -0.112964
    14  C   -0.226725
    15  C   -0.188404
    16  C   -0.182898
    17  C    0.087409
    18  O   -0.503186
    19  H    0.151546
    20  H    0.121596
    21  H    0.260379
    22  H    0.261555
    23  H    0.136709
    24  H    0.126617
    25  H    0.113233
    26  H    0.134306
    27  H    0.145395
    28  H    0.218654
    29  H    0.135868
    30  H    0.164902
 Sum of Mulliken charges =  -0.00000
 Mulliken charges with hydrogens summed into heavy atoms:
               1
     1  O   -0.310276
     2  C    0.388819
     3  C    0.059678
     4  N   -0.017557
     5  N    0.014026
     6  C    0.158643
     7  C    0.050785
     8  C    0.022911
     9  C   -0.003243
    10  C   -0.095451
    11  C    0.225899
    12  C    0.113108
    13  C   -0.112964
    14  C   -0.008071
    15  C   -0.052536
    16  C   -0.017996
    17  C    0.087409
    18  O   -0.503186
 Electronic spatial extent (au):  <R**2>=           3659.4744
 Charge=             -0.0000 electrons
 Dipole moment (field-independent basis, Debye):
    X=             -5.1376    Y=             -4.8793    Z=              2.0166  Tot=              7.3667
 Quadrupole moment (field-independent basis, Debye-Ang):
   XX=           -106.9470   YY=            -98.2487   ZZ=           -103.6813
   XY=             -3.3783   XZ=              9.8155   YZ=              1.5263
 Traceless Quadrupole moment (field-independent basis, Debye-Ang):
   XX=             -3.9880   YY=              4.7103   ZZ=             -0.7223
   XY=             -3.3783   XZ=              9.8155   YZ=              1.5263
 Octapole moment (field-independent basis, Debye-Ang**2):
  XXX=            -40.3292  YYY=            -17.8810  ZZZ=             -4.9385  XYY=             -1.5704
  XXY=            -43.7493  XXZ=             14.0257  XZZ=              3.4617  YZZ=            -22.3648
  YYZ=              4.5720  XYZ=              4.1451
 Hexadecapole moment (field-independent basis, Debye-Ang**3):
 XXXX=          -2785.7367 YYYY=          -1594.5946 ZZZZ=           -611.7166 XXXY=            -34.7375
 XXXZ=            121.2516 YYYX=             62.6927 YYYZ=             22.7480 ZZZX=              0.3808
 ZZZY=            -37.0219 XXYY=           -724.2973 XXZZ=           -522.3705 YYZZ=           -372.7721
 XXYZ=             18.2056 YYXZ=             30.0725 ZZXY=            -16.9066
 N-N= 1.297445897960D+03 E-N=-4.456991697145D+03  KE= 7.937393158176D+02
 PrsmSu:  requested number of processors reduced to:  13 ShMem   1 Linda.
 Calling FoFJK, ICntrl=      2127 FMM=F ISym2X=0 I1Cent= 0 IOpClX= 0 NMat=1 NMatS=1 NMatT=0.
 ***** Axes restored to original set *****
 -------------------------------------------------------------------
 Center     Atomic                   Forces (Hartrees/Bohr)
 Number     Number              X              Y              Z
 -------------------------------------------------------------------
      1        8           0.083099833    0.019310554   -0.023269645
      2        6          -0.048412676   -0.000182712    0.051644923
      3        6          -0.023198624   -0.017223349    0.013687247
      4        7          -0.013670950   -0.011807385   -0.015844126
      5        7           0.036263389    0.021015792   -0.013728214
      6        6           0.003893751    0.002932189   -0.011423463
      7        6           0.028991668    0.008123698    0.010459120
      8        6          -0.032188184    0.012221524   -0.011546623
      9        6           0.019672415    0.018368416    0.027795646
     10        6           0.037318498   -0.036977473   -0.008367277
     11        6          -0.019841585    0.026407161    0.013874744
     12        6           0.114835385   -0.069332028    0.004165890
     13        6          -0.135607459    0.025043167    0.034991551
     14        6          -0.044018714   -0.030668079   -0.099936941
     15        6          -0.029055145    0.000601688    0.062705080
     16        6           0.048979544    0.065104171   -0.017789326
     17        6           0.037125883   -0.026925923   -0.026142375
     18        8          -0.051866199   -0.006518957   -0.015702340
     19        1           0.013200130   -0.009919749    0.000457505
     20        1          -0.017563960    0.000588114    0.030229808
     21        1           0.004788316    0.017480468   -0.015209516
     22        1          -0.002295505    0.001294850    0.003444421
     23        1          -0.012799301    0.018172714   -0.017975401
     24        1          -0.008967273    0.007796417   -0.000558253
     25        1          -0.001287884   -0.008522557   -0.000069257
     26        1           0.015387714   -0.002318733    0.012302132
     27        1           0.016227428    0.002683002    0.029803631
     28        1          -0.028772538    0.003441210   -0.034519215
     29        1           0.026222773   -0.015834588    0.000410807
     30        1          -0.016460731   -0.014353604    0.016109466
 -------------------------------------------------------------------
 Cartesian Forces:  Max     0.135607459 RMS     0.033575002

 GradGradGradGradGradGradGradGradGradGradGradGradGradGradGradGradGradGrad
 Berny optimization.
 FormGI is forming the generalized inverse of G from B-inverse, IUseBI=4.
 Internal  Forces:  Max     0.159440614 RMS     0.029480632
 Search for a local minimum.
 Step number   1 out of a maximum of  158
 All quantities printed in internal units (Hartrees-Bohrs-Radians)
 Mixed Optimization -- RFO/linear search
 Second derivative matrix not updated -- first step.
 ITU=  0
     Eigenvalues ---    0.00230   0.00293   0.00700   0.00981   0.01318
     Eigenvalues ---    0.01345   0.01398   0.01439   0.01605   0.01762
     Eigenvalues ---    0.01890   0.02010   0.02209   0.02268   0.02298
     Eigenvalues ---    0.02704   0.03005   0.03496   0.03719   0.03796
     Eigenvalues ---    0.03989   0.05114   0.05375   0.05570   0.06151
     Eigenvalues ---    0.07011   0.07487   0.08863   0.09310   0.09751
     Eigenvalues ---    0.09758   0.10869   0.11967   0.12622   0.12687
     Eigenvalues ---    0.13365   0.13752   0.15054   0.15658   0.15837
     Eigenvalues ---    0.15943   0.15978   0.17044   0.18085   0.19349
     Eigenvalues ---    0.21309   0.21464   0.21726   0.22171   0.23061
     Eigenvalues ---    0.23138   0.23267   0.23485   0.23915   0.24639
     Eigenvalues ---    0.25000   0.25000   0.25000   0.27288   0.28105
     Eigenvalues ---    0.29774   0.31607   0.31791   0.32688   0.32727
     Eigenvalues ---    0.32832   0.33065   0.33616   0.33634   0.35183
     Eigenvalues ---    0.37120   0.37809   0.41237   0.41398   0.41655
     Eigenvalues ---    0.44216   0.46907   0.49732   0.49848   0.53672
     Eigenvalues ---    0.54188   0.57925   0.71365   0.83161
 RFO step:  Lambda=-2.64670150D-01 EMin= 2.30000000D-03
 Linear search not attempted -- first point.
 Maximum step size (   0.300) exceeded in Quadratic search.
    -- Step size scaled by   0.536
 Iteration  1 RMS(Cart)=  0.18399578 RMS(Int)=  0.00705119
 Iteration  2 RMS(Cart)=  0.01250002 RMS(Int)=  0.00064797
 Iteration  3 RMS(Cart)=  0.00004452 RMS(Int)=  0.00064761
 Iteration  4 RMS(Cart)=  0.00000004 RMS(Int)=  0.00064761
 Variable       Old X    -DE/DX   Delta X   Delta X   Delta X     New X
                                 (Linear)    (Quad)   (Total)
    R1        2.36254  -0.08423   0.00000  -0.04118  -0.04118   2.32136
    R2        2.91910   0.01268   0.00000   0.01246   0.01246   2.93156
    R3        3.00136  -0.05427   0.00000  -0.05692  -0.05692   2.94444
    R4        2.69906   0.05093   0.00000   0.04032   0.04032   2.73938
    R5        2.09603  -0.01245   0.00000  -0.01128  -0.01128   2.08475
    R6        2.07952  -0.00021   0.00000  -0.00019  -0.00019   2.07934
    R7        2.60137   0.03816   0.00000   0.02684   0.02684   2.62821
    R8        1.96065  -0.01794   0.00000  -0.01411  -0.01411   1.94653
    R9        2.56332   0.00956   0.00000   0.00639   0.00639   2.56971
   R10        1.92897  -0.00331   0.00000  -0.00251  -0.00251   1.92646
   R11        2.68149  -0.02075   0.00000  -0.01991  -0.02011   2.66138
   R12        3.31448  -0.05622   0.00000  -0.07463  -0.07487   3.23961
   R13        2.81575  -0.00221   0.00000  -0.00594  -0.00618   2.80958
   R14        2.08938  -0.01004   0.00000  -0.00904  -0.00904   2.08035
   R15        2.54172   0.04048   0.00000   0.02539   0.02570   2.56742
   R16        2.07983  -0.00849   0.00000  -0.00758  -0.00758   2.07225
   R17        2.73145  -0.01582   0.00000  -0.01079  -0.01002   2.72143
   R18        2.05379   0.00003   0.00000   0.00003   0.00003   2.05381
   R19        2.51218   0.03754   0.00000   0.02646   0.02660   2.53878
   R20        2.02366   0.01425   0.00000   0.01201   0.01201   2.03567
   R21        2.88325  -0.00601   0.00000  -0.00427  -0.00552   2.87773
   R22        3.20519  -0.02448   0.00000  -0.03637  -0.03643   3.16876
   R23        2.39764   0.15944   0.00000   0.08847   0.08856   2.48620
   R24        2.11229  -0.01472   0.00000  -0.01354  -0.01354   2.09874
   R25        3.31349  -0.07431   0.00000  -0.09341  -0.09423   3.21926
   R26        2.59867   0.07334   0.00000   0.04899   0.04873   2.64740
   R27        2.09347   0.00145   0.00000   0.00131   0.00131   2.09477
   R28        3.06798  -0.02238   0.00000  -0.02249  -0.02150   3.04649
   R29        2.15117  -0.02223   0.00000  -0.02118  -0.02118   2.12999
   R30        2.59032   0.02189   0.00000   0.01674   0.01773   2.60805
   R31        2.11569  -0.01153   0.00000  -0.01064  -0.01064   2.10505
    A1        2.01053   0.03790   0.00000   0.03965   0.03962   2.05015
    A2        2.19900  -0.02587   0.00000  -0.02676  -0.02679   2.17221
    A3        2.06787  -0.01129   0.00000  -0.01158  -0.01161   2.05626
    A4        1.85240   0.00356   0.00000   0.00404   0.00399   1.85639
    A5        1.86547  -0.00544   0.00000  -0.01076  -0.01097   1.85450
    A6        2.13873  -0.01559   0.00000  -0.02034  -0.02059   2.11813
    A7        2.04216  -0.01411   0.00000  -0.02073  -0.02073   2.02144
    A8        1.77016   0.02368   0.00000   0.03647   0.03666   1.80682
    A9        1.80798   0.00627   0.00000   0.00931   0.00934   1.81732
   A10        1.70890   0.03911   0.00000   0.03819   0.03835   1.74725
   A11        1.86117  -0.02532   0.00000  -0.03469  -0.03441   1.82676
   A12        2.00400  -0.03573   0.00000  -0.05260  -0.05235   1.95165
   A13        2.04418  -0.05158   0.00000  -0.05223  -0.05201   1.99217
   A14        1.92663   0.02830   0.00000   0.03764   0.03794   1.96456
   A15        1.93797   0.03512   0.00000   0.04725   0.04753   1.98550
   A16        1.99161   0.05699   0.00000   0.06179   0.06172   2.05334
   A17        1.97281  -0.06413   0.00000  -0.06436  -0.06431   1.90850
   A18        2.31876   0.00721   0.00000   0.00271   0.00182   2.32058
   A19        2.41243   0.00595   0.00000   0.00264   0.00257   2.41500
   A20        2.04941  -0.02081   0.00000  -0.02382  -0.02387   2.02554
   A21        1.81878   0.01574   0.00000   0.02254   0.02246   1.84124
   A22        2.19515   0.03658   0.00000   0.03434   0.03423   2.22938
   A23        2.04673  -0.02446   0.00000  -0.02545  -0.02540   2.02133
   A24        2.03706  -0.01176   0.00000  -0.00854  -0.00850   2.02856
   A25        2.03923  -0.00328   0.00000  -0.00208  -0.00109   2.03813
   A26        2.14442   0.00021   0.00000  -0.00185  -0.00230   2.14212
   A27        2.07346   0.00253   0.00000   0.00354   0.00305   2.07650
   A28        2.05024  -0.04707   0.00000  -0.04639  -0.04590   2.00434
   A29        2.01038   0.01586   0.00000   0.01403   0.01416   2.02454
   A30        2.03693   0.02047   0.00000   0.02194   0.02160   2.05853
   A31        2.03127   0.00423   0.00000   0.00324   0.00311   2.03438
   A32        2.11508  -0.00014   0.00000   0.00464   0.00630   2.12138
   A33        2.13037  -0.00259   0.00000  -0.00538  -0.00717   2.12320
   A34        1.68512   0.03798   0.00000   0.06541   0.06484   1.74997
   A35        2.20663  -0.02583   0.00000  -0.03960  -0.04013   2.16650
   A36        2.07269   0.00930   0.00000   0.01085   0.01111   2.08380
   A37        1.71001  -0.02447   0.00000  -0.02529  -0.02395   1.68606
   A38        2.44470  -0.01586   0.00000  -0.02610  -0.02824   2.41646
   A39        1.68976   0.03158   0.00000   0.04670   0.04686   1.73662
   A40        2.22950   0.00261   0.00000   0.00657   0.00391   2.23342
   A41        2.11381  -0.04241   0.00000  -0.05189  -0.05198   2.06183
   A42        1.50701   0.04905   0.00000   0.06559   0.06672   1.57373
   A43        1.80582   0.03409   0.00000   0.04638   0.04560   1.85142
   A44        1.82701  -0.00371   0.00000   0.00663   0.00600   1.83302
   A45        2.12505   0.00726   0.00000   0.01014   0.00958   2.13463
   A46        1.97032   0.00072   0.00000   0.01518   0.01604   1.98635
   A47        1.69525   0.03355   0.00000   0.03941   0.03875   1.73400
   A48        1.85670  -0.00694   0.00000  -0.00320  -0.00373   1.85296
   A49        1.71941   0.02460   0.00000   0.02366   0.02393   1.74334
    D1       -2.52631  -0.01571   0.00000  -0.02554  -0.02544  -2.55175
    D2        1.56511   0.00214   0.00000   0.00298   0.00302   1.56814
    D3       -0.51196   0.00931   0.00000   0.01406   0.01391  -0.49805
    D4        0.50682  -0.01048   0.00000  -0.01506  -0.01496   0.49186
    D5       -1.68495   0.00738   0.00000   0.01346   0.01351  -1.67144
    D6        2.52116   0.01455   0.00000   0.02454   0.02439   2.54556
    D7       -1.63290   0.03358   0.00000   0.06247   0.06261  -1.57029
    D8        0.44297   0.00269   0.00000   0.00971   0.00975   0.45271
    D9        0.44631   0.02060   0.00000   0.03895   0.03913   0.48544
   D10        2.52217  -0.01030   0.00000  -0.01380  -0.01373   2.50844
   D11        2.39831   0.03708   0.00000   0.06435   0.06421   2.46252
   D12       -1.80901   0.00619   0.00000   0.01160   0.01135  -1.79767
   D13        2.23127  -0.04931   0.00000  -0.09223  -0.09228   2.13899
   D14       -1.81154  -0.01774   0.00000  -0.03508  -0.03523  -1.84677
   D15        0.26769  -0.02971   0.00000  -0.05553  -0.05537   0.21232
   D16        2.50806   0.00186   0.00000   0.00162   0.00168   2.50974
   D17        0.86468   0.02131   0.00000   0.03780   0.03760   0.90229
   D18       -2.28004   0.04041   0.00000   0.07737   0.07743  -2.20261
   D19       -1.37024  -0.00679   0.00000  -0.01465  -0.01471  -1.38495
   D20        1.76822   0.01231   0.00000   0.02492   0.02511   1.79333
   D21        2.82133   0.01807   0.00000   0.03962   0.04135   2.86268
   D22       -0.41194   0.03416   0.00000   0.06458   0.06565  -0.34629
   D23       -0.31634  -0.00577   0.00000  -0.00993  -0.00989  -0.32623
   D24        2.73358   0.01032   0.00000   0.01503   0.01441   2.74799
   D25       -2.93781  -0.04859   0.00000  -0.08938  -0.08755  -3.02536
   D26        1.41260  -0.05923   0.00000  -0.11801  -0.11665   1.29595
   D27        0.19989  -0.02474   0.00000  -0.04002  -0.03924   0.16065
   D28       -1.73289  -0.03538   0.00000  -0.06865  -0.06833  -1.80122
   D29        0.69538   0.01629   0.00000   0.02599   0.02610   0.72148
   D30       -2.54862   0.01967   0.00000   0.02930   0.02927  -2.51936
   D31       -2.36228   0.00281   0.00000   0.00466   0.00498  -2.35730
   D32        0.67689   0.00619   0.00000   0.00798   0.00815   0.68504
   D33        0.30120   0.01207   0.00000   0.01232   0.01222   0.31341
   D34       -3.08706   0.00990   0.00000   0.01100   0.01105  -3.07601
   D35       -2.73849   0.00938   0.00000   0.00992   0.00991  -2.72858
   D36        0.15644   0.00722   0.00000   0.00860   0.00874   0.16518
   D37       -0.62464   0.01738   0.00000   0.02510   0.02508  -0.59956
   D38        1.88059   0.00931   0.00000   0.01803   0.01842   1.89901
   D39        2.75318   0.01976   0.00000   0.02712   0.02696   2.78014
   D40       -1.02478   0.01169   0.00000   0.02005   0.02030  -1.00447
   D41       -1.03409   0.00099   0.00000   0.00585   0.00642  -1.02767
   D42        2.22706  -0.01271   0.00000  -0.01674  -0.01594   2.21112
   D43        2.75352   0.01137   0.00000   0.01641   0.01657   2.77009
   D44       -0.26853  -0.00234   0.00000  -0.00619  -0.00578  -0.27431
   D45        2.79718   0.00825   0.00000   0.00803   0.00712   2.80429
   D46        0.46955  -0.02636   0.00000  -0.04798  -0.04758   0.42197
   D47       -0.46510   0.02228   0.00000   0.03159   0.03050  -0.43460
   D48       -2.79273  -0.01234   0.00000  -0.02442  -0.02420  -2.81692
   D49        1.54985   0.04402   0.00000   0.06890   0.06906   1.61891
   D50       -1.46533   0.02905   0.00000   0.04437   0.04480  -1.42053
   D51       -1.10395   0.00241   0.00000   0.00402   0.00370  -1.10025
   D52        1.38848  -0.01178   0.00000  -0.01565  -0.01803   1.37045
   D53        1.30717   0.01004   0.00000   0.01989   0.02131   1.32848
   D54       -2.48359  -0.00415   0.00000   0.00022  -0.00043  -2.48401
   D55        1.45224   0.02160   0.00000   0.04108   0.03997   1.49221
   D56       -0.50080  -0.01315   0.00000  -0.01356  -0.01284  -0.51364
   D57       -0.48741   0.02982   0.00000   0.03664   0.03555  -0.45186
   D58       -2.44045  -0.00494   0.00000  -0.01800  -0.01726  -2.45771
   D59       -1.12455   0.03848   0.00000   0.05544   0.05585  -1.06870
   D60        2.91632   0.01411   0.00000   0.01598   0.01553   2.93185
   D61        1.09641   0.02731   0.00000   0.04865   0.04969   1.14610
   D62       -1.14591   0.00294   0.00000   0.00920   0.00937  -1.13654
   D63        0.38669  -0.00804   0.00000  -0.02328  -0.02413   0.36256
   D64        2.32718   0.00118   0.00000  -0.00261  -0.00284   2.32434
   D65        2.42949   0.01920   0.00000   0.02925   0.02911   2.45860
   D66       -1.91320   0.02841   0.00000   0.04992   0.05039  -1.86280
   D67        1.00420   0.02766   0.00000   0.02712   0.02648   1.03068
   D68       -0.83434  -0.00809   0.00000  -0.02349  -0.02394  -0.85828
         Item               Value     Threshold  Converged?
 Maximum Force            0.159441     0.000450     NO 
 RMS     Force            0.029481     0.000300     NO 
 Maximum Displacement     0.744561     0.001800     NO 
 RMS     Displacement     0.190560     0.001200     NO 
 Predicted change in Energy=-1.284458D-01
 GradGradGradGradGradGradGradGradGradGradGradGradGradGradGradGradGradGrad

                          Input orientation:                          
 ---------------------------------------------------------------------
 Center     Atomic      Atomic             Coordinates (Angstroms)
 Number     Number       Type             X           Y           Z
 ---------------------------------------------------------------------
      1          8           0        2.652374    0.749267    1.183981
      2          6           0        3.545586    0.858993    0.347842
      3          6           0        3.188662    0.536213   -1.126942
      4          7           0        4.377694   -0.046669   -1.716723
      5          7           0        5.002957    1.101544   -2.191004
      6          6           0        6.258350    1.292546   -1.704540
      7          6           0        7.168930    0.223142   -1.807750
      8          6           0        8.635655   -0.000647   -1.712340
      9          6           0        9.502350    0.538134   -0.815454
     10          6           0        8.931777    1.097635    0.382606
     11          6           0        7.731141    1.677631    0.218348
     12          6           0        7.661245    2.828501   -0.776452
     13          6           0        6.367108    2.856837   -1.011660
     14          6           0        5.843988    3.668929    0.391541
     15          6           0        6.468912    3.714327    1.644560
     16          6           0        6.529568    2.190985    2.168695
     17          6           0        6.414068    1.251259    1.164549
     18          8           0        5.035231    1.167842    0.684497
     19          1           0        2.844559    1.483409   -1.575796
     20          1           0        2.396351   -0.184218   -1.379857
     21          1           0        4.887109   -0.459760   -0.922445
     22          1           0        4.936754    1.192849   -3.204184
     23          1           0        6.728078   -0.774866   -1.954539
     24          1           0        9.048844   -0.754984   -2.392601
     25          1           0       10.574335    0.363853   -0.856398
     26          1           0        9.105504    0.545185    1.290924
     27          1           0        8.371525    2.968128   -1.618744
     28          1           0        4.902251    3.332460    0.869775
     29          1           0        5.928816    4.525277    2.211219
     30          1           0        7.591169    2.157245    2.504460
 ---------------------------------------------------------------------
                    Distance matrix (angstroms):
                    1          2          3          4          5
     1  O    0.000000
     2  C    1.228412   0.000000
     3  C    2.381882   1.551312   0.000000
     4  N    3.467611   2.403134   1.449617   0.000000
     5  N    4.127937   2.937431   2.177957   1.390788   0.000000
     6  C    4.652071   3.429187   3.213821   2.308790   1.359831
     7  C    5.443027   4.263743   4.050191   2.805724   2.368525
     8  C    6.689596   5.558069   5.504602   4.258212   3.826282
     9  C    7.138941   6.077766   6.321367   5.236065   4.738576
    10  C    6.339910   5.391587   5.964671   5.143568   4.696713
    11  C    5.252445   4.266826   4.873065   4.238315   3.685084
    12  C    5.766740   4.699111   5.037998   4.464573   3.471286
    13  C    4.802285   3.714918   3.937145   3.589601   2.516509
    14  C    4.397589   3.630469   4.378408   4.516688   3.737424
    15  C    4.854861   4.287218   5.342441   5.460449   4.866951
    16  C    4.252157   3.740836   4.976058   4.973342   4.745988
[...]
 .00025669,0.00005976,-0.00043937,0.00021380,0.00033503,0.00008369,0.00
 005728,-0.00008237,-0.00003330,-0.00001754,0.00001861,0.00000783,0.000
 02469,-0.00004416,-0.00025080,0.00016313,-0.00012933,-0.00008504,0.000
 03407,-0.00000705,-0.00355684,-0.00407862,0.00247666,-0.08078476,0.139
 31503,0.00012151,0.00002147,-0.00002332,-0.00030838,-0.00003898,-0.000
 00126,0.00004408,-0.00000905,-0.00005848,0.00008374,0.00019737,-0.0000
 3101,-0.00069294,0.00030290,0.00019145,-0.00246914,-0.00097836,0.00136
 135,-0.00699693,0.00681456,0.00550070,0.07249621,-0.11706662,-0.194750
 96,0.00891875,-0.01716707,-0.02323683,-0.00328848,0.00188093,-0.003078
 03,-0.00045918,0.00078296,0.00055153,-0.00029332,-0.00041993,-0.000097
 97,-0.00001680,0.00018664,-0.00019709,0.00004682,0.00015852,-0.0000938
 6,-0.00002965,-0.00003469,0.00003647,0.00008812,0.00019491,-0.00009992
 ,0.00005558,-0.00019201,0.00006743,0.00028593,0.00001196,0.00002878,0.
 00000807,0.00000483,0.00000653,0.00001152,-0.00000279,0.00001419,0.000
 09471,-0.00012474,-0.00003463,0.00009588,-0.00003689,-0.00001456,-0.00
 007388,0.00325679,0.00130311,-0.06770887,0.12248778,0.21333592,-0.0001
 0264,-0.00001345,0.00011794,0.00017220,0.00002095,-0.00008225,0.000048
 06,-0.00002275,-0.00003332,-0.00010078,0.00000640,-0.00005729,0.000032
 97,-0.00000013,-0.00001918,-0.00052056,-0.00010255,-0.00027372,0.00148
 703,0.00038315,-0.00183784,-0.00849312,0.01298109,0.00008495,-0.157283
 09,0.13858604,0.01240634,0.00200153,0.00244171,-0.00081929,0.00660845,
 0.00752073,-0.00291834,-0.00013950,0.00111449,0.00141695,0.00028663,-0
 .00070090,-0.00023553,0.00014846,-0.00011273,-0.00002991,0.00004411,0.
 00002411,-0.00017111,0.00043361,-0.00026835,0.00020960,0.00015930,-0.0
 0152197,-0.00039455,-0.00037261,-0.00018341,-0.00003739,0.00000863,0.0
 0000525,0.00000194,-0.00002600,-0.00000961,0.00001929,0.00006869,0.000
 05261,0.00002811,-0.00001269,-0.00003671,-0.00003282,-0.00055710,0.000
 12497,-0.00022275,0.00017116,-0.00110327,-0.00007402,0.15909848,0.0001
 0415,0.00000945,-0.00007917,-0.00031291,-0.00002401,0.00010536,0.00001
 156,-0.00001338,-0.00001898,-0.00000162,0.00000059,0.00002861,0.000106
 89,-0.00012227,-0.00003346,-0.00058478,-0.00003672,-0.00035974,0.00013
 767,0.00208731,0.00121786,0.00473802,-0.00331067,-0.00346185,0.1374142
 1,-0.20702117,-0.01817463,0.01214580,-0.00905579,0.00072597,0.00532082
 ,0.00535701,-0.00498028,-0.00029456,0.00128593,-0.00000873,0.00039377,
 -0.00056613,-0.00024054,0.00003988,-0.00002785,-0.00000245,0.00004305,
 -0.00003681,-0.00023018,0.00082731,-0.00023235,0.00022296,-0.00040819,
 -0.00191962,-0.00070545,0.00023523,0.00010501,0.00008112,0.00000070,-0
 .00000247,0.00000103,0.00000661,0.00000841,0.00001219,-0.00002880,-0.0
 0003073,0.00001311,-0.00006033,0.00003681,-0.00001610,0.00036576,-0.00
 025953,0.00019461,-0.00095591,0.00050953,0.00045160,-0.15568313,0.2150
 5593,0.00011104,0.00002737,-0.00004931,-0.00025313,-0.00003198,0.00008
 759,0.00002881,0.00000830,-0.00008339,0.00003105,0.00010125,0.00007136
 ,-0.00040902,0.00024015,0.00029222,0.00074248,-0.00065174,-0.00022834,
 -0.00139715,-0.00033985,-0.00323538,-0.02022211,0.02124973,-0.00185467
 ,0.01247923,-0.01834989,-0.05480412,0.01826423,-0.02476508,-0.00252020
 ,-0.00227369,-0.00423621,-0.00215698,0.00000745,-0.00048591,-0.0010231
 2,-0.00042069,0.00090636,0.00001408,0.00001113,-0.00001829,0.00001682,
 -0.00009760,-0.00001803,0.00000185,0.00028522,0.00026574,-0.00016897,0
 .00036902,-0.00033795,0.00015901,0.00043804,0.00014617,0.00010202,-0.0
 0000034,0.00000240,0.00001202,0.00001197,-0.00000132,0.00001757,0.0000
 5508,0.00000117,-0.00006206,0.00016362,-0.00003554,0.00006144,-0.00084
 549,0.00021563,-0.00045730,-0.00043422,0.00103467,0.00033676,-0.008132
 15,0.02422830,0.06474523,-0.00008707,0.00000006,0.00015494,0.00022393,
 0.00002260,-0.00019262,0.00006046,0.00000273,-0.00002151,-0.00013388,-
 0.00007069,-0.00001232,0.00017476,-0.00016252,0.00001444,-0.00069478,0
 .00156238,0.00100897,0.00072148,-0.00131129,-0.00020320,0.00516588,0.0
 0517692,-0.00268052,0.00520997,0.00174820,0.00341428,-0.12384872,0.063
 83659,-0.11620793,-0.00311760,0.00432263,-0.01417247,-0.00161919,0.001
 76313,0.00164529,-0.00048139,0.00013500,-0.00087912,-0.00002709,0.0003
 2782,-0.00080412,0.00043926,-0.00000797,0.00001560,-0.00023705,0.00038
 077,0.00015727,0.00133527,0.00021995,0.00036981,-0.00028693,-0.0002194
 9,-0.00013432,0.00000468,0.00001048,-0.00000643,-0.00001638,-0.0000061
 8,0.00000436,-0.00000321,0.00000123,0.00001331,-0.00004263,-0.00006747
 ,-0.00002281,-0.00047450,-0.00087244,0.00036770,-0.00007056,0.00011165
 ,-0.00001466,-0.00299040,-0.00366985,0.00138820,0.12099587,0.00011501,
 0.00001916,-0.00006454,-0.00028188,0.00005125,0.00003699,0.00003818,-0
 .00002612,-0.00003632,0.00002977,0.00003661,0.00012213,-0.00005308,0.0
 0006136,0.00023285,-0.00019522,0.00082785,0.00097163,0.00099913,-0.001
 75038,-0.00105462,0.00371408,0.00397271,-0.00423402,-0.00608023,0.0073
 3332,-0.01325001,0.06312007,-0.07951372,0.07768084,0.01210418,-0.00781
 335,0.01575832,0.00361655,-0.00212303,-0.00011110,-0.00081804,-0.00119
 538,-0.00133972,0.00046270,0.00009222,-0.00017250,-0.00010576,-0.00000
 866,0.00028720,0.00001069,-0.00010945,-0.00042720,-0.00074138,-0.00039
 837,0.00129743,0.00073080,0.00039784,-0.00000037,-0.00000036,0.0000061
 4,0.00000958,0.00000789,0.00000478,0.00000277,0.00004499,-0.00002464,-
 0.00007536,0.00010688,-0.00004102,0.00002483,-0.00054661,-0.00044719,0
 .00027351,-0.00027680,0.00004023,-0.00071737,-0.00343662,-0.00189783,0
 .00093047,-0.07305403,0.08169825,-0.00004802,-0.00002072,0.00003824,0.
 00009093,-0.00000032,-0.00002792,-0.00000185,0.00001262,-0.00000962,0.
 00001576,0.00000837,-0.00002172,-0.00012475,0.00009090,-0.00004254,0.0
 0016136,-0.00047534,-0.00036473,-0.00031367,0.00034527,-0.00007498,0.0
 0079102,-0.00385431,-0.00009543,-0.01739131,0.01080627,-0.01925266,-0.
 11259958,0.07051462,-0.21593488,0.00264561,-0.00040700,0.00752977,-0.0
 0004003,-0.00136241,0.00044442,0.00020741,0.00000252,0.00033151,-0.000
 04456,-0.00007236,0.00015273,-0.00004965,0.00002772,-0.00005603,-0.000
 01400,-0.00010545,-0.00007494,-0.00021589,0.00019919,-0.00028457,-0.00
 028933,-0.00011800,-0.00001902,0.00000036,0.00000041,0.00000263,-0.000
 00634,-0.00000631,0.00000126,0.00002935,0.00001876,0.00000027,0.000011
 24,0.00000052,0.00001731,-0.00007927,0.00037128,-0.00017237,-0.0003475
 5,0.00018253,-0.00104590,0.00110028,0.00082881,0.00055059,0.12662910,-
 0.07690183,0.22848997,0.00014420,-0.00024473,-0.00026348,-0.00032275,0
 .00035898,0.00028719,0.00010645,-0.00003221,-0.00005958,0.00001689,0.0
 0014708,-0.00009147,0.00005546,-0.00013723,-0.00075396,0.00012959,0.00
 177747,-0.00009615,-0.00014803,0.00002026,0.00015017,0.00053733,-0.000
 42307,0.00003255,-0.00048490,-0.00013981,-0.00003280,0.00072916,-0.000
 36257,-0.00135906,0.00269589,0.00514874,-0.00455177,-0.22083299,-0.035
 44382,0.13270304,-0.01893806,0.00032367,0.01360909,-0.00053272,-0.0027
 9140,-0.00250355,0.00038876,0.00014463,0.00074986,-0.00054698,-0.00094
 495,0.00054077,-0.00082607,0.00265312,0.00333345,0.00182664,0.00012016
 ,-0.00050884,0.00003682,0.00001509,0.00002039,-0.00000728,-0.00000967,
 0.00002568,-0.00006263,-0.00001537,0.00007021,-0.00015614,-0.00017816,
 -0.00012051,0.00014013,0.00006028,-0.00005734,0.00014200,0.00014000,0.
 00007240,-0.00009483,0.00008077,0.00003785,0.00017145,0.00032166,-0.00
 013679,0.23582958,0.00031159,-0.00040723,-0.00061609,-0.00071807,0.000
 73577,0.00045599,0.00003444,-0.00001090,-0.00005557,-0.00024924,-0.000
 19548,-0.00017708,0.00052175,-0.00058663,0.00101895,-0.00030111,0.0009
 8310,-0.00138745,-0.00016034,-0.00008151,-0.00048811,-0.00067437,-0.00
 105657,-0.00141865,-0.00008279,-0.00114355,0.00155921,-0.00154673,-0.0
 0157949,-0.00243253,-0.01659480,0.00404341,0.01162380,-0.01982525,-0.0
 4672799,0.02746225,0.00638433,0.00283527,-0.00602265,0.00051070,-0.000
 35911,0.00203057,0.00148895,0.00042571,-0.00143105,-0.00023644,-0.0015
 4817,0.00212410,-0.00076890,0.00375964,0.00722586,0.00311136,0.0006201
 9,-0.00072687,0.00002498,-0.00000223,0.00003595,0.00000122,0.00000533,
 -0.00000548,-0.00011828,0.00001319,0.00005932,0.00008850,0.00014362,-0
 .00000044,0.00016721,0.00006127,0.00007150,-0.00005279,0.00001332,0.00
 007856,-0.00001270,0.00017226,-0.00002774,-0.00011252,0.00084383,-0.00
 006572,0.02884301,0.03971235,0.00033303,-0.00016197,-0.00027761,-0.000
 61804,0.00040528,0.00028108,0.00015760,-0.00003971,-0.00025179,-0.0002
 1216,0.00007272,-0.00001237,0.00033233,-0.00002316,0.00011141,0.000041
 42,0.00068889,-0.00131936,-0.00062008,-0.00063562,-0.00019932,-0.00009
 349,-0.00043712,-0.00100252,-0.00040697,-0.00064344,0.00181919,0.00036
 650,-0.00344940,-0.00275004,0.01603963,0.00495939,-0.01081703,0.132272
 89,0.03168780,-0.14759207,-0.01133993,0.00067120,0.00739207,-0.0004889
 2,-0.00154025,-0.00116471,0.00023473,0.00036029,0.00003686,0.00083958,
 0.00156531,0.00024645,0.00282892,0.00493701,0.00013028,0.00268096,0.00
 035748,-0.00063327,0.00002448,0.00001250,0.00005500,0.00000174,-0.0000
 0226,0.00005410,-0.00004656,0.00004896,0.00001197,-0.00001053,-0.00015
 816,-0.00010365,-0.00014138,-0.00016050,-0.00006824,-0.00002079,-0.000
 15470,-0.00002970,-0.00012621,0.00005200,0.00011613,0.00002341,0.00061
 654,-0.00004486,-0.14195236,-0.03896285,0.15507941,0.00019296,-0.00020
 581,-0.00014031,-0.00077492,0.00027303,0.00035647,0.00009750,0.0000107
 9,-0.00011099,0.00023568,0.00003747,0.00012078,0.00067641,-0.00082924,
 -0.00098317,-0.00128781,-0.00267212,-0.00163119,-0.00058035,0.00054156
 ,0.00042307,0.00047055,-0.00019757,0.00008044,-0.00014931,0.00007122,-
 0.00028933,0.00009724,0.00001082,-0.00014377,-0.00163056,-0.00075887,0
 .00076882,-0.00131674,0.00316859,-0.00032591,-0.01307228,0.01178201,-0
 .00830048,-0.15121677,0.09256711,-0.11217015,0.00626867,-0.00267706,0.
 00872815,0.00252365,0.00645000,0.00097520,-0.00003061,-0.00096459,-0.0
 0182797,0.00143259,0.00042395,0.00061796,-0.00001506,-0.00006281,0.000
 01732,0.00001993,0.00000303,0.00002580,-0.00010862,-0.00012347,0.00001
 690,0.00009421,-0.00006251,-0.00002806,-0.00016017,-0.00000658,0.00010
 128,0.00001591,0.00004008,0.00002234,-0.00004507,0.00001060,0.00002927
 ,-0.00019797,0.00011147,0.00000836,-0.00016960,0.00030969,-0.00004341,
 0.15951039,0.00007785,-0.00032463,-0.00016277,-0.00067307,0.00049538,0
 .00029396,0.00017132,-0.00011835,-0.00012217,-0.00078746,-0.00005299,0
 .00008670,0.00014981,-0.00021578,-0.00040042,0.00093382,-0.00037090,-0
 .00234593,-0.00057140,0.00051360,-0.00013104,0.00019714,-0.00021984,0.
 00001008,-0.00008364,0.00008992,-0.00007608,0.00024633,-0.00011198,0.0
 0011920,-0.00016344,-0.00057361,0.00187222,-0.00143993,0.00018453,-0.0
 0247439,0.00702431,-0.00014469,0.01308806,0.09328308,-0.11042254,0.079
 26791,0.00359781,0.00350820,0.00273371,0.00319978,0.00964664,0.0017138
 3,-0.00023991,-0.00033649,-0.00373266,0.00147253,0.00103554,0.00108291
 ,-0.00020914,-0.00012101,0.00000448,-0.00003093,0.00004200,0.00004748,
 0.00011872,0.00023069,-0.00004290,0.00002431,-0.00017958,0.00000050,-0
 .00003550,-0.00019942,-0.00009026,0.00002120,0.00003242,0.00000205,0.0
 0000712,0.00000416,0.00000539,-0.00002264,-0.00000300,-0.00000980,0.00
 034640,-0.00059434,0.00011731,-0.10378525,0.10277803,0.00037917,-0.000
 14379,-0.00021316,-0.00115480,0.00005473,0.00006898,-0.00014078,0.0001
 1381,-0.00009215,-0.00055197,0.00025563,0.00028853,0.00073636,-0.00129
 572,-0.00080662,0.00049356,-0.00003557,-0.00081310,-0.00002119,0.00081
 679,-0.00050432,-0.00005073,-0.00018713,-0.00002975,-0.00007220,0.0000
 5633,0.00003716,0.00013547,-0.00009843,-0.00003163,0.00018626,-0.00006
 065,0.00133697,0.00070741,-0.00082254,-0.00149841,0.00830996,-0.005846
 55,0.01008848,-0.10403929,0.08348935,-0.16141669,-0.01913138,0.0163162
 4,-0.01323804,-0.00032594,0.00223060,-0.00391738,-0.00033298,-0.001882
 22,-0.00269573,0.00126300,0.00053620,0.00073753,0.00004652,0.00000017,
 0.00006540,0.00003428,-0.00001662,0.00003144,0.00007981,0.00013371,-0.
 00000427,0.00024466,-0.00044702,-0.00013422,-0.00002586,-0.00011576,-0
 .00007406,-0.00005066,-0.00003374,0.00002819,0.00000699,0.00001109,0.0
 0001497,0.00005495,0.00005466,-0.00002165,0.00025595,-0.00043256,0.000
 10428,0.11324542,-0.09263378,0.17157483,0.00021982,0.00024694,0.000000
 68,-0.00066174,0.00022741,-0.00002917,-0.00001638,-0.00014657,0.000049
 32,0.00030557,0.00012962,0.00002121,-0.00016644,0.00006383,-0.00047613
 ,-0.00120131,0.00087114,0.00095259,0.00022898,-0.00043041,0.00082102,-
 0.00010480,-0.00004340,-0.00025513,0.00003247,0.00021862,0.00011686,-0
 .00014992,-0.00017347,0.00008752,-0.00042114,0.00044542,0.00021940,0.0
 0022026,0.00030293,-0.00167039,0.00684099,0.00344830,-0.00017140,-0.00
 104613,0.00462021,0.00268523,-0.18451047,0.12062402,0.08056564,-0.0029
 2340,0.00716614,0.00972764,-0.00332985,-0.00023117,-0.00054771,0.00118
 449,0.00071205,0.00049760,0.00000840,-0.00000032,0.00001186,-0.0000339
 0,0.00000807,-0.00001588,-0.00003215,-0.00005136,-0.00000656,-0.000117
 44,0.00009168,0.00003709,-0.00003233,0.00018966,0.00007352,0.00003172,
 0.00003783,0.00000054,0.00003041,0.00007201,0.00002825,-0.00003573,0.0
 0005469,-0.00000583,0.00028923,-0.00000858,0.00025756,-0.00165874,-0.0
 0332034,0.00020392,0.18686856,-0.00108519,0.00087870,0.00100711,0.0026
 0399,0.00005276,-0.00119241,-0.00008560,-0.00032333,0.00014586,0.00017
 946,0.00009493,-0.00000421,-0.00027276,0.00014821,-0.00037596,-0.00123
 170,0.00136794,0.00091392,0.00033411,-0.00050949,0.00083562,-0.0001713
 4,0.00007078,-0.00013052,0.00029962,-0.00003986,0.00023786,0.00015037,
 0.00011311,-0.00071230,0.00026788,-0.00158919,0.00020316,0.00107876,0.
 00015316,-0.00053948,0.00535742,0.00423445,0.00036620,-0.00196975,0.00
 446431,0.00588427,0.11831650,-0.13206994,-0.07583474,0.01089448,-0.011
 94457,-0.00323507,0.00382840,0.00321733,0.00321430,-0.00198008,0.00046
 338,-0.00109500,-0.00008830,-0.00004561,-0.00009282,-0.00010919,0.0000
 0829,-0.00006072,-0.00000032,0.00000256,0.00005190,-0.00008680,0.00003
 797,0.00002398,-0.00009739,0.00019001,0.00007298,0.00002211,0.00002007
 ,-0.00003748,-0.00001949,-0.00006080,-0.00004837,-0.00000248,-0.000002
 74,0.00001679,0.00027762,0.00000533,0.00000240,-0.00248557,-0.00300144
 ,-0.00027818,-0.13505875,0.13430662,0.00003924,0.00004016,-0.00008294,
 -0.00000266,-0.00007071,0.00005697,0.00010870,-0.00005170,-0.00006684,
 0.00002131,0.00003196,-0.00001494,-0.00010318,0.00024088,-0.00018617,0
 .00113120,0.00008154,0.00025568,-0.00021961,-0.00050663,0.00037021,-0.
 00004126,-0.00007577,-0.00019911,0.00000537,0.00013622,-0.00000491,-0.
 00043201,-0.00015694,0.00008017,-0.00040864,0.00038421,0.00033286,-0.0
 0041559,0.00042605,-0.00087884,0.00059567,0.00027200,-0.00432321,0.022
 63499,-0.01742557,-0.00854574,0.08074541,-0.06570533,-0.10699175,-0.00
 872154,0.01057910,0.01102469,-0.00273100,0.00103793,-0.00050320,-0.000
 05288,-0.00027798,0.00036115,-0.00002715,-0.00002319,-0.00002590,-0.00
 002139,0.00001214,0.00002446,0.00000130,-0.00000469,0.00001868,-0.0000
 7818,-0.00003428,-0.00001035,0.00003743,0.00001048,-0.00005172,0.00007
 788,0.00003017,-0.00000388,0.00007058,0.00005994,-0.00000287,0.0000023
 7,0.00002510,0.00000656,0.00022583,0.00009936,0.00018223,-0.00049644,0
 .00002942,0.00118969,-0.09213156,0.07134831,0.10880483,0.00002315,-0.0
 0038579,-0.00017340,-0.00087786,0.00033898,0.00037003,0.00006839,0.000
 08709,-0.00027862,-0.00033105,-0.00004233,-0.00010563,-0.00001196,-0.0
 0026949,0.00039044,0.00098581,-0.00065472,-0.00066576,-0.00035851,0.00
 026984,-0.00017777,0.00025488,-0.00009154,0.00007573,-0.00017649,-0.00
 000971,-0.00019398,0.00041724,-0.00005536,-0.00001296,0.00045581,-0.00
 048223,0.00425575,-0.00152017,0.00138200,0.00085767,-0.00142707,0.0017
 3037,0.00167602,-0.00091313,0.00090335,-0.00250376,-0.00914785,-0.0129
 1435,-0.00938398,-0.18402536,-0.08871628,-0.11590829,0.00993725,-0.001
 16695,0.00150246,0.00117312,0.00384457,-0.00185579,0.00000739,0.000024
 30,-0.00000361,0.00003122,-0.00001837,0.00006523,0.00002369,0.00002218
 ,0.00000410,0.00006724,-0.00002543,0.00000409,0.00000952,-0.00014465,-
 0.00006074,0.00006966,0.00004404,-0.00001997,-0.00006134,-0.00005475,0
 .00000367,-0.00013792,0.00000126,0.00001765,-0.00011660,-0.00033479,-0
 .00031398,0.00077891,0.00049109,-0.00048591,0.00018096,0.00113401,0.00
 018580,0.18462107,-0.00073398,-0.00028487,0.00028130,0.00294567,0.0002
 7201,-0.00005539,-0.00028072,0.00027733,0.00017997,-0.00014383,-0.0000
 5414,-0.00011376,-0.00000575,-0.00006690,0.00015372,-0.00020879,-0.000
 24402,0.00018005,0.00013113,-0.00012260,-0.00005089,-0.00004157,0.0001
 1320,0.00002429,0.00006657,-0.00009224,0.00004675,0.00015678,-0.000079
 66,-0.00036407,0.00033778,-0.00109812,0.00217224,-0.00056876,0.0004318
 2,0.00035376,0.00049036,0.00173959,0.00046088,0.00155009,-0.00101716,0
 .00002302,0.01251489,0.00944091,0.01148739,-0.08988471,-0.11209417,-0.
 07940629,-0.02032095,-0.01826780,-0.01315553,0.00009001,-0.00349915,-0
 .00655408,-0.00010881,-0.00005885,-0.00012583,0.00001336,0.00000735,-0
 .00004582,0.00002119,0.00008861,0.00012930,0.00008762,0.00001496,-0.00
 000158,-0.00002457,0.00003810,0.00002755,0.00000883,0.00003167,-0.0000
 0785,-0.00004084,-0.00001424,-0.00001521,-0.00004257,-0.00003065,-0.00
 002702,-0.00005595,-0.00008035,-0.00018594,-0.00097998,-0.00157051,0.0
 0026094,-0.00006618,-0.00024292,-0.00051215,0.09509369,0.12646281,0.00
 035806,0.00041057,0.00029490,0.00026405,0.00030720,-0.00050041,0.00000
 400,-0.00011865,0.00025753,0.00048105,0.00016126,0.00011277,0.00010994
 ,0.00013230,-0.00043349,-0.00027768,0.00082570,0.00093001,0.00021894,-
 0.00012178,0.00007880,-0.00020127,-0.00000039,-0.00015203,0.00008377,0
 .00020738,0.00009042,-0.00035455,0.00012039,0.00016441,-0.00090343,0.0
 0098767,-0.00274396,0.00119202,0.00000193,-0.00156181,0.00040440,-0.00
 405633,-0.00248032,-0.00356004,0.00220814,0.00562060,-0.01440404,0.001
 18519,-0.01358405,-0.09510395,-0.09144961,-0.10637877,-0.01258341,0.00
 559508,-0.00095356,0.00115269,-0.00280217,0.00675283,0.00010424,-0.000
 01251,0.00005944,-0.00000896,-0.00001428,-0.00003654,-0.00006438,-0.00
 007809,-0.00002719,-0.00008169,0.00002703,-0.00000090,0.00007024,0.000
 08413,0.00001698,-0.00003741,-0.00004248,0.00003497,0.00003471,0.00007
 699,0.00004706,0.00008804,0.00006009,-0.00002144,0.00037323,0.00040540
 ,0.00064610,0.00095361,0.00174698,-0.00007526,-0.00104770,-0.00068740,
 -0.00081580,0.12273551,0.08484025,0.11465868\\0.00002518,-0.00000277,-
 0.00002429,-0.00011278,0.00001811,0.00005365,0.00005801,-0.00003443,0.
 00000970,-0.00005848,-0.00003979,0.00001225,0.00002187,0.00005445,-0.0
 0002592,0.00005428,0.00000231,-0.00002180,-0.00001259,0.00001635,-0.00
 001694,0.00002146,-0.00001629,0.00002403,0.00001087,0.00001794,-0.0000
 0713,0.00000814,-0.00002335,-0.00001474,-0.00001254,-0.00001182,0.0000
 2424,-0.00004071,-0.00002475,0.00000927,-0.00000203,0.00001011,0.00003
 331,-0.00000203,0.00000893,-0.00001520,0.00002882,-0.00003133,0.000023
 87,-0.00001979,0.00001419,0.00000792,-0.00000136,0.00001951,-0.0000227
 2,0.00004428,0.00000896,-0.00003611,-0.00000547,0.00000461,0.00000256,
 -0.00000099,0.00000533,0.00000176,0.00000046,0.00000544,-0.00000536,-0
 .00000816,-0.00000858,-0.00000276,-0.00000674,0.00000045,0.00000318,-0
 .00001461,-0.00001236,0.00000236,0.00000713,0.00000779,-0.00000225,0.0
 0000584,0.00000616,-0.00000037,0.00000406,0.00000517,-0.00000231,0.000
 00650,-0.00000396,-0.00000289,-0.00000004,0.00000170,0.00000063,0.0000
 0141,0.00000192,-0.00000792\\\@


 SIC AS THE CAWSE OF EWERY THING IS, SIC WILBE THE EFFECT.
 -- PROVERBS AND REASONS OF THE YEAR 1585
           AS REPRINTED IN PAISLEY MAGAZINE 1828.
 Job cpu time:       0 days 18 hours 13 minutes 24.5 seconds.
 Elapsed time:       0 days  4 hours 33 minutes 25.0 seconds.
 File lengths (MBytes):  RWF=    688 Int=      0 D2E=      0 Chk=     26 Scr=      1
 Normal termination of Gaussian 16 at Fri May 19 02:06:25 2023.
### All Done ###
