### Starting Gaussian ###
 Entering Gaussian System, Link 0=g16
 Initial command:
 /cluster/software/gaussian/gaussian-16-A.03/avx2/g16/l1.exe "/local/scratch/linjian/Gau-14738.inp" -scrdir="/local/scratch/linjian/"
 Entering Link 1 = /cluster/software/gaussian/gaussian-16-A.03/avx2/g16/l1.exe PID=     14739.
  
 Copyright (c) 1988,1990,1992,1993,1995,1998,2003,2009,2016,
            Gaussian, Inc.  All Rights Reserved.
  
 This is part of the Gaussian(R) 16 program.  It is based on
 the Gaussian(R) 09 system (copyright 2009, Gaussian, Inc.),
 the Gaussian(R) 03 system (copyright 2003, Gaussian, Inc.),
 the Gaussian(R) 98 system (copyright 1998, Gaussian, Inc.),
 the Gaussian(R) 94 system (copyright 1995, Gaussian, Inc.),
 the Gaussian 92(TM) system (copyright 1992, Gaussian, Inc.),
 the Gaussian 90(TM) system (copyright 1990, Gaussian, Inc.),
 the Gaussian 88(TM) system (copyright 1988, Gaussian, Inc.),
 the Gaussian 86(TM) system (copyright 1986, Carnegie Mellon
 University), and the Gaussian 82(TM) system (copyright 1983,
 Carnegie Mellon University). Gaussian is a federally registered
 trademark of Gaussian, Inc.
  
 This software contains proprietary and confidential information,
 including trade secrets, belonging to Gaussian, Inc.
  
 This software is provided under written license and may be
 used, copied, transmitted, or stored only in accord with that
 written license.
  
 The following legend is applicable only to US Government
 contracts under FAR:
  
                    RESTRICTED RIGHTS LEGEND
  
 Use, reproduction and disclosure by the US Government is
 subject to restrictions as set forth in subparagraphs (a)
 and (c) of the Commercial Computer Software - Restricted
 Rights clause in FAR 52.227-19.
  
 Gaussian, Inc.
 340 Quinnipiac St., Bldg. 40, Wallingford CT 06492
  
  
 ---------------------------------------------------------------
 Warning -- This program may not be used in any manner that
 competes with the business of Gaussian, Inc. or will provide
 assistance to any competitor of Gaussian, Inc.  The licensee
 of this program is prohibited from giving any competitor of
 Gaussian, Inc. access to this program.  By using this program,
 the user acknowledges that Gaussian, Inc. is engaged in the
 business of creating and licensing software in the field of
 computational chemistry and represents and warrants to the
 licensee that it is not a competitor of Gaussian, Inc. and that
 it will not use this program in any manner prohibited above.
 ---------------------------------------------------------------
  

 Cite this work as:
 Gaussian 16, Revision A.03,
 M. J. Frisch, G. W. Trucks, H. B. Schlegel, G. E. Scuseria, 
 M. A. Robb, J. R. Cheeseman, G. Scalmani, V. Barone, 
 G. A. Petersson, H. Nakatsuji, X. Li, M. Caricato, A. V. Marenich, 
 J. Bloino, B. G. Janesko, R. Gomperts, B. Mennucci, H. P. Hratchian, 
 J. V. Ortiz, A. F. Izmaylov, J. L. Sonnenberg, D. Williams-Young, 
 F. Ding, F. Lipparini, F. Egidi, J. Goings, B. Peng, A. Petrone, 
 T. Henderson, D. Ranasinghe, V. G. Zakrzewski, J. Gao, N. Rega, 
 G. Zheng, W. Liang, M. Hada, M. Ehara, K. Toyota, R. Fukuda, 
 J. Hasegawa, M. Ishida, T. Nakajima, Y. Honda, O. Kitao, H. Nakai, 
 T. Vreven, K. Throssell, J. A. Montgomery, Jr., J. E. Peralta, 
 F. Ogliaro, M. J. Bearpark, J. J. Heyd, E. N. Brothers, K. N. Kudin, 
 V. N. Staroverov, T. A. Keith, R. Kobayashi, J. Normand, 
 K. Raghavachari, A. P. Rendell, J. C. Burant, S. S. Iyengar, 
 J. Tomasi, M. Cossi, J. M. Millam, M. Klene, C. Adamo, R. Cammi, 
 J. W. Ochterski, R. L. Martin, K. Morokuma, O. Farkas, 
 J. B. Foresman, and D. J. Fox, Gaussian, Inc., Wallingford CT, 2016.
 
 ******************************************
 Gaussian 16:  ES64L-G16RevA.03 25-Dec-2016
                19-May-2023 
 ******************************************
 %chk=OdC1CdCCdCCdC2CdCNdCCdC12.chk
 %NProcShared=20
 Will use up to   20 processors via shared memory.
 -----------------------------
 # opt freq b3lyp/6-31g(2df,p)
 -----------------------------
 1/18=20,19=15,26=3,38=1/1,3;
 2/9=110,12=2,17=6,18=5,40=1/2;
 3/5=1,6=6,7=104,11=2,25=1,30=1,71=1,74=-5/1,2,3;
 4//1;
 5/5=2,38=5/2;
 6/7=2,8=2,9=2,10=2,28=1/1;
 7//1,2,3,16;
 1/18=20,19=15,26=3/3(2);
 2/9=110/2;
 99//99;
 2/9=110/2;
 3/5=1,6=6,7=104,11=2,25=1,30=1,71=1,74=-5/1,2,3;
 4/5=5,16=3,69=1/1;
 5/5=2,38=5/2;
 7//1,2,3,16;
 1/18=20,19=15,26=3/3(-5);
 2/9=110/2;
 6/7=2,8=2,9=2,10=2,19=2,28=1/1;
 99/9=1/99;
 -------------------
 Title Card Required
 -------------------
 Symbolic Z-matrix:
 Charge =  0 Multiplicity = 1
 O                     4.44194   0.09999  -0.45285 
 C                     5.44215   1.22466  -0.77726 
 C                     3.72197   1.62564  -0.11787 
 C                     4.92852   1.74499   0.27301 
 C                     4.9064    3.2255    0.14969 
 C                     6.15309   3.18833   0.33877 
 C                     6.98447   4.19229   0.06142 
 C                     8.12948   3.61189  -0.00751 
 C                     9.15703   5.04277  -0.01658 
 C                     10.46814   5.38023   0.01626 
 N                     11.36324   4.39022   0.02192 
 C                     10.91815   3.13064  -0.01743 
 C                     9.28484   2.00419  -0.16236 
 C                     7.66227   1.85925  -0.4404 
 H                     2.84264   2.40532  -0.04174 
 H                     5.64929   0.3204    0.44255 
 H                     4.2857    4.09582  -0.01654 
 H                     6.49403   1.96139   0.86505 
 H                     6.7423    5.19946   0.03154 
 H                     8.62188   6.02159   0.03056 
 H                     10.87322   6.45914   0.03953 
 H                     11.99411   2.60544  -0.00023 
 H                     10.1428   1.27124  -0.01681 
 
 Add virtual bond connecting atoms H18        and C6         Dist= 2.60D+00.
 Add virtual bond connecting atoms H16        and O1         Dist= 2.87D+00.
 Add virtual bond connecting atoms H16        and C2         Dist= 2.90D+00.
 Add virtual bond connecting atoms H16        and C4         Dist= 3.03D+00.
 Add virtual bond connecting atoms C8         and C14        Dist= 3.52D+00.
 Add virtual bond connecting atoms H18        and C14        Dist= 3.32D+00.

 GradGradGradGradGradGradGradGradGradGradGradGradGradGradGradGradGradGrad
 Berny optimization.
 Initialization pass.
                           ----------------------------
                           !    Initial Parameters    !
                           ! (Angstroms and Degrees)  !
 --------------------------                            --------------------------
 ! Name  Definition              Value          Derivative Info.                !
 --------------------------------------------------------------------------------
 ! R1    R(1,2)                  1.5397         estimate D2E/DX2                !
 ! R2    R(1,16)                 1.5192         estimate D2E/DX2                !
 ! R3    R(2,4)                  1.2797         estimate D2E/DX2                !
 ! R4    R(2,16)                 1.5325         estimate D2E/DX2                !
 ! R5    R(3,4)                  1.2739         estimate D2E/DX2                !
 ! R6    R(3,15)                 1.1777         estimate D2E/DX2                !
 ! R7    R(4,5)                  1.4858         estimate D2E/DX2                !
 ! R8    R(4,16)                 1.6055         estimate D2E/DX2                !
 ! R9    R(5,6)                  1.2615         estimate D2E/DX2                !
 ! R10   R(5,17)                 1.0818         estimate D2E/DX2                !
 ! R11   R(6,7)                  1.3327         estimate D2E/DX2                !
 ! R12   R(6,18)                 1.3779         estimate D2E/DX2                !
 ! R13   R(7,8)                  1.2856         estimate D2E/DX2                !
 ! R14   R(7,19)                 1.0363         estimate D2E/DX2                !
 ! R15   R(8,9)                  1.7616         estimate D2E/DX2                !
 ! R16   R(8,14)                 1.8648         estimate D2E/DX2                !
 ! R17   R(9,10)                 1.3542         estimate D2E/DX2                !
 ! R18   R(9,20)                 1.1166         estimate D2E/DX2                !
 ! R19   R(10,11)                1.3347         estimate D2E/DX2                !
 ! R20   R(10,21)                1.1527         estimate D2E/DX2                !
 ! R21   R(11,12)                1.3365         estimate D2E/DX2                !
 ! R22   R(12,22)                1.1974         estimate D2E/DX2                !
 ! R23   R(13,14)                1.6526         estimate D2E/DX2                !
 ! R24   R(13,23)                1.1378         estimate D2E/DX2                !
 ! R25   R(14,18)                1.7548         estimate D2E/DX2                !
 ! A1    A(1,2,4)               82.1455         estimate D2E/DX2                !
 ! A2    A(4,3,15)             128.7067         estimate D2E/DX2                !
 ! A3    A(2,4,3)               95.1767         estimate D2E/DX2                !
 ! A4    A(2,4,5)              110.0605         estimate D2E/DX2                !
 ! A5    A(3,4,5)               93.0833         estimate D2E/DX2                !
 ! A6    A(3,4,16)             111.9916         estimate D2E/DX2                !
 ! A7    A(5,4,16)             154.1046         estimate D2E/DX2                !
 ! A8    A(4,5,6)               86.7603         estimate D2E/DX2                !
 ! A9    A(4,5,17)             145.378          estimate D2E/DX2                !
 ! A10   A(6,5,17)             127.8612         estimate D2E/DX2                !
 ! A11   A(5,6,7)              124.2723         estimate D2E/DX2                !
 ! A12   A(5,6,18)             109.1484         estimate D2E/DX2                !
 ! A13   A(7,6,18)             126.5792         estimate D2E/DX2                !
 ! A14   A(6,7,8)              103.1017         estimate D2E/DX2                !
 ! A15   A(6,7,19)             126.3257         estimate D2E/DX2                !
 ! A16   A(8,7,19)             130.1937         estimate D2E/DX2                !
 ! A17   A(7,8,9)               98.806          estimate D2E/DX2                !
 ! A18   A(7,8,14)             102.3346         estimate D2E/DX2                !
 ! A19   A(9,8,14)             155.2774         estimate D2E/DX2                !
 ! A20   A(8,9,10)             140.0846         estimate D2E/DX2                !
 ! A21   A(8,9,20)             115.6115         estimate D2E/DX2                !
 ! A22   A(10,9,20)            104.1552         estimate D2E/DX2                !
 ! A23   A(9,10,11)            117.6815         estimate D2E/DX2                !
 ! A24   A(9,10,21)            125.0268         estimate D2E/DX2                !
 ! A25   A(11,10,21)           117.2916         estimate D2E/DX2                !
 ! A26   A(10,11,12)           118.3988         estimate D2E/DX2                !
 ! A27   A(11,12,22)            96.5285         estimate D2E/DX2                !
 ! A28   A(14,13,23)           134.8622         estimate D2E/DX2                !
 ! A29   A(8,14,13)             68.4398         estimate D2E/DX2                !
 ! A30   A(8,14,18)             86.5255         estimate D2E/DX2                !
 ! A31   A(13,14,18)           121.5587         estimate D2E/DX2                !
 ! A32   A(1,16,4)              73.1253         estimate D2E/DX2                !
 ! A33   A(6,18,14)             86.1248         estimate D2E/DX2                !
 ! D1    D(1,2,4,3)            -52.048          estimate D2E/DX2                !
 ! D2    D(1,2,4,5)           -147.245          estimate D2E/DX2                !
 ! D3    D(1,2,4,16)            60.0302         estimate D2E/DX2                !
 ! D4    D(15,3,4,2)          -136.6899         estimate D2E/DX2                !
 ! D5    D(15,3,4,5)           -26.215          estimate D2E/DX2                !
 ! D6    D(15,3,4,16)          160.3988         estimate D2E/DX2                !
 ! D7    D(2,4,5,6)            -73.5075         estimate D2E/DX2                !
 ! D8    D(2,4,5,17)           106.2133         estimate D2E/DX2                !
 ! D9    D(3,4,5,6)           -170.161          estimate D2E/DX2                !
 ! D10   D(3,4,5,17)             9.5597         estimate D2E/DX2                !
 ! D11   D(16,4,5,6)            -4.3156         estimate D2E/DX2                !
 ! D12   D(16,4,5,17)          175.4052         estimate D2E/DX2                !
 ! D13   D(3,4,16,1)            19.1038         estimate D2E/DX2                !
 ! D14   D(5,4,16,1)          -145.6276         estimate D2E/DX2                !
 ! D15   D(4,5,6,7)            163.3511         estimate D2E/DX2                !
 ! D16   D(4,5,6,18)           -16.5429         estimate D2E/DX2                !
 ! D17   D(17,5,6,7)           -16.448          estimate D2E/DX2                !
 ! D18   D(17,5,6,18)          163.6581         estimate D2E/DX2                !
 ! D19   D(5,6,7,8)           -160.3175         estimate D2E/DX2                !
 ! D20   D(5,6,7,19)            26.1786         estimate D2E/DX2                !
 ! D21   D(18,6,7,8)            19.5578         estimate D2E/DX2                !
 ! D22   D(18,6,7,19)         -153.9461         estimate D2E/DX2                !
 ! D23   D(5,6,18,14)          127.2347         estimate D2E/DX2                !
 ! D24   D(7,6,18,14)          -52.6562         estimate D2E/DX2                !
 ! D25   D(6,7,8,9)           -168.1984         estimate D2E/DX2                !
 ! D26   D(6,7,8,14)            24.6988         estimate D2E/DX2                !
 ! D27   D(19,7,8,9)             4.9483         estimate D2E/DX2                !
 ! D28   D(19,7,8,14)         -162.1544         estimate D2E/DX2                !
 ! D29   D(7,8,9,10)           174.4166         estimate D2E/DX2                !
 ! D30   D(7,8,9,20)            -0.2394         estimate D2E/DX2                !
 ! D31   D(14,8,9,10)          -37.0077         estimate D2E/DX2                !
 ! D32   D(14,8,9,20)          148.3362         estimate D2E/DX2                !
 ! D33   D(7,8,14,13)         -174.4966         estimate D2E/DX2                !
 ! D34   D(7,8,14,18)          -48.4976         estimate D2E/DX2                !
 ! D35   D(9,8,14,13)           37.3334         estimate D2E/DX2                !
 ! D36   D(9,8,14,18)          163.3325         estimate D2E/DX2                !
 ! D37   D(8,9,10,11)            2.5763         estimate D2E/DX2                !
 ! D38   D(8,9,10,21)         -177.4396         estimate D2E/DX2                !
 ! D39   D(20,9,10,11)         177.6075         estimate D2E/DX2                !
 ! D40   D(20,9,10,21)          -2.4084         estimate D2E/DX2                !
 ! D41   D(9,10,11,12)           0.6079         estimate D2E/DX2                !
 ! D42   D(21,10,11,12)       -179.3775         estimate D2E/DX2                !
 ! D43   D(10,11,12,22)        179.833          estimate D2E/DX2                !
 ! D44   D(23,13,14,8)         168.5355         estimate D2E/DX2                !
 ! D45   D(23,13,14,18)         97.1478         estimate D2E/DX2                !
 ! D46   D(8,14,18,6)           46.1169         estimate D2E/DX2                !
 ! D47   D(13,14,18,6)         108.125          estimate D2E/DX2                !
 --------------------------------------------------------------------------------
 Trust Radius=3.00D-01 FncErr=1.00D-07 GrdErr=1.00D-06 EigMax=2.50D+02 EigMin=1.00D-04
 Number of steps in this run=    115 maximum allowed number of steps=    138.
 GradGradGradGradGradGradGradGradGradGradGradGradGradGradGradGradGradGrad

                          Input orientation:                          
 ---------------------------------------------------------------------
 Center     Atomic      Atomic             Coordinates (Angstroms)
 Number     Number       Type             X           Y           Z
 ---------------------------------------------------------------------
      1          8           0        4.441940    0.099990   -0.452850
      2          6           0        5.442150    1.224660   -0.777260
      3          6           0        3.721970    1.625640   -0.117870
      4          6           0        4.928520    1.744990    0.273010
      5          6           0        4.906400    3.225500    0.149690
      6          6           0        6.153090    3.188330    0.338770
      7          6           0        6.984470    4.192290    0.061420
      8          6           0        8.129480    3.611890   -0.007510
      9          6           0        9.157030    5.042770   -0.016580
     10          6           0       10.468140    5.380230    0.016260
     11          7           0       11.363240    4.390220    0.021920
     12          6           0       10.918150    3.130640   -0.017430
     13          6           0        9.284840    2.004190   -0.162360
     14          6           0        7.662270    1.859250   -0.440400
     15          1           0        2.842640    2.405320   -0.041740
     16          1           0        5.649290    0.320400    0.442550
     17          1           0        4.285700    4.095820   -0.016540
     18          1           0        6.494030    1.961390    0.865050
     19          1           0        6.742300    5.199460    0.031540
     20          1           0        8.621880    6.021590    0.030560
     21          1           0       10.873220    6.459140    0.039530
     22          1           0       11.994110    2.605440   -0.000230
     23          1           0       10.142800    1.271240   -0.016810
 ---------------------------------------------------------------------
                    Distance matrix (angstroms):
                    1          2          3          4          5
     1  O    0.000000
     2  C    1.539657   0.000000
     3  C    1.719935   1.885365   0.000000
     4  C    1.862702   1.279698   1.273890   0.000000
     5  C    3.216767   2.269279   2.008486   1.485802   0.000000
     6  C    3.618362   2.367902   2.925896   1.893971   1.261495
     7  C    4.845189   3.448038   4.154966   3.203276   2.293654
     8  C    5.111724   3.676020   4.835650   3.716201   3.249962
     9  C    6.844960   5.381165   6.420819   5.370243   4.625794
    10  C    8.025963   6.569552   7.721771   6.630858   5.966039
    11  N    8.156952   6.761565   8.127204   6.961746   6.562292
    12  C    7.163500   5.847793   7.352559   6.154677   6.014820
    13  C    5.211914   3.968883   5.575913   4.385688   4.556282
    14  C    3.669561   2.333476   3.960374   2.827614   3.132038
    15  H    2.835722   2.948288   1.177675   2.210430   2.229001
    16  H    1.519216   1.532491   2.394219   1.605525   3.012849
    17  H    4.022615   3.187418   2.535715   2.454274   1.081831
    18  H    3.068020   2.084803   2.960266   1.687650   2.151809
    19  H    5.615237   4.259528   4.681550   3.909152   2.698334
    20  H    7.264360   5.811522   6.584491   5.655882   4.651570
    21  H    9.057736   7.587058   8.632953   7.590598   6.787599
    22  H    7.969781   6.740809   8.330795   7.123033   7.116360
    23  H    5.836246   4.761992   6.431397   5.243773   5.591667
                    6          7          8          9         10
     6  C    0.000000
     7  C    1.332686   0.000000
     8  C    2.050715   1.285560   0.000000
     9  C    3.548081   2.334399   1.761635   0.000000
    10  C    4.850577   3.680923   2.932051   1.354240   0.000000
    11  N    5.356360   4.383419   3.326239   2.301014   1.334674
    12  C    4.778703   4.075188   2.829908   2.599574   2.294406
    13  C    3.385436   3.182697   1.985833   3.044759   3.581864
    14  C    2.156660   2.480789   1.864786   3.542419   4.525345
    15  H    3.423006   4.512057   5.422883   6.843120   8.185457
    16  H    2.913693   4.113332   4.145818   5.900493   7.000351
    17  H    2.106402   2.701619   3.874134   4.962517   6.314535
    18  H    1.377894   2.421418   2.481977   4.166983   5.310599
    19  H    2.118066   1.036306   2.108595   2.420287   3.730254
    20  H    3.770581   2.455281   2.459789   1.116556   1.954539
    21  H    5.750423   4.501274   3.954384   2.225884   1.152683
    22  H    5.879813   5.255320   3.993540   3.740303   3.166752
    23  H    4.440660   4.302755   3.087424   3.898228   4.121982
                   11         12         13         14         15
    11  N    0.000000
    12  C    1.336486   0.000000
    13  C    3.169676   1.989371   0.000000
    14  C    4.507408   3.520808   1.652588   0.000000
    15  H    8.748972   8.108054   6.455803   4.866822   0.000000
    16  H    7.027773   5.989150   4.051949   2.683235   3.529690
    17  H    7.083765   6.702311   5.421031   4.072239   2.222802
    18  H    5.506295   4.660338   2.974227   1.754827   3.788402
    19  H    4.691274   4.660487   4.088014   3.496580   4.797910
    20  H    3.190062   3.692256   4.076302   4.297410   6.817789
    21  H    2.126231   3.329291   4.733951   5.630233   8.996126
    22  H    1.893126   1.197423   2.779916   4.417622   9.153752
    23  H    3.349479   2.014581   1.137759   2.584224   7.387767
                   16         17         18         19         20
    16  H    0.000000
    17  H    4.040289   0.000000
    18  H    1.893394   3.195264   0.000000
    19  H    5.016854   2.693551   3.352831   0.000000
    20  H    6.442794   4.744815   4.659329   2.051516   0.000000
    21  H    8.070688   6.998846   6.331551   4.318722   2.293483
    22  H    6.758269   7.851184   5.604854   5.857598   4.800309
    23  H    4.615922   6.502605   3.816740   5.195830   4.988113
                   21         22         23
    21  H    0.000000
    22  H    4.013599   0.000000
    23  H    5.239370   2.282041   0.000000
 Stoichiometry    C12H9NO
 Framework group  C1[X(C12H9NO)]
 Deg. of freedom    63
 Full point group                 C1      NOp   1
 Largest Abelian subgroup         C1      NOp   1
 Largest concise Abelian subgroup C1      NOp   1
                         Standard orientation:                         
 ---------------------------------------------------------------------
 Center     Atomic      Atomic             Coordinates (Angstroms)
 Number     Number       Type             X           Y           Z
 ---------------------------------------------------------------------
      1          8           0        3.886412    1.262852   -0.144145
      2          6           0        2.503471    0.734861   -0.567515
      3          6           0        3.858285   -0.451568   -0.009424
      4          6           0        2.711756   -0.076481    0.399938
      5          6           0        2.087324   -1.392087    0.105195
      6          6           0        0.978135   -0.836267    0.333522
      7          6           0       -0.201410   -1.335886   -0.034044
      8          6           0       -0.975283   -0.309851   -0.001850
      9          6           0       -2.524486   -1.135866   -0.146851
     10          6           0       -3.851538   -0.867727   -0.115206
     11          7           0       -4.223480    0.405679    0.031262
     12          6           0       -3.271612    1.339115    0.125284
     13          6           0       -1.307142    1.646934    0.064456
     14          6           0        0.221788    1.099676   -0.242020
     15          1           0        4.305997   -1.540070   -0.049842
     16          1           0        2.682511    1.489147    0.754425
     17          1           0        2.268884   -2.420059   -0.178825
     18          1           0        1.195119    0.345384    1.008216
     19          1           0       -0.423355   -2.336441   -0.187541
     20          1           0       -2.472550   -2.248175   -0.229121
     21          1           0       -4.688041   -1.655639   -0.205409
     22          1           0       -4.009674    2.275672    0.234580
     23          1           0       -1.761553    2.658494    0.318924
 ---------------------------------------------------------------------
 Rotational constants (GHZ):           2.1855103           0.3598744           0.3131207
 Standard basis: 6-31G(2df,p) (6D, 7F)
 There are   479 symmetry adapted cartesian basis functions of A   symmetry.
 There are   437 symmetry adapted basis functions of A   symmetry.
   437 basis functions,   679 primitive gaussians,   479 cartesian basis functions
    48 alpha electrons       48 beta electrons
       nuclear repulsion energy       767.8178082456 Hartrees.
 NAtoms=   23 NActive=   23 NUniq=   23 SFac= 1.00D+00 NAtFMM=   60 NAOKFM=F Big=F
 Integral buffers will be    131072 words long.
 Raffenetti 2 integral format.
 Two-electron integral symmetry is turned on.
 One-electron integrals computed using PRISM.
 PrsmSu:  requested number of processors reduced to:  13 ShMem   1 Linda.
 NBasis=   437 RedAO= T EigKep=  2.06D-04  NBF=   437
 NBsUse=   437 1.00D-06 EigRej= -1.00D+00 NBFU=   437
 ExpMin= 1.61D-01 ExpMax= 5.48D+03 ExpMxC= 8.25D+02 IAcc=3 IRadAn=         5 AccDes= 0.00D+00
 Harris functional with IExCor=  402 and IRadAn=       5 diagonalized for initial guess.
 HarFok:  IExCor=  402 AccDes= 0.00D+00 IRadAn=         5 IDoV= 1 UseB2=F ITyADJ=14
 ICtDFT=  3500011 ScaDFX=  1.000000  1.000000  1.000000  1.000000
 FoFCou: FMM=F IPFlag=           0 FMFlag=      100000 FMFlg1=           0
         NFxFlg=           0 DoJE=T BraDBF=F KetDBF=T FulRan=T
         wScrn=  0.000000 ICntrl=       500 IOpCl=  0 I1Cent=   200000004 NGrid=           0
         NMat0=    1 NMatS0=      1 NMatT0=    0 NMatD0=    1 NMtDS0=    0 NMtDT0=    0
 Petite list used in FoFCou.
 Requested convergence on RMS density matrix=1.00D-08 within 128 cycles.
 Requested convergence on MAX density matrix=1.00D-06.
 Requested convergence on             energy=1.00D-06.
 No special actions if energy rises.
 Integral accuracy reduced to 1.0D-05 until final iterations.
 EnCoef did     3 forward-backward iterations
 EnCoef did   100 forward-backward iterations
 EnCoef did   100 forward-backward iterations
 EnCoef did     8 forward-backward iterations
 EnCoef did     3 forward-backward iterations
 EnCoef did     4 forward-backward iterations
 EnCoef did     1 forward-backward iterations
 Initial convergence to 1.0D-05 achieved.  Increase integral accuracy.
 SCF Done:  E(RB3LYP) =  -591.383994213     A.U. after   29 cycles
            NFock= 29  Conv=0.63D-08     -V/T= 2.0053

 **********************************************************************

            Population analysis using the SCF density.

 **********************************************************************

 Orbital symmetries:
       Occupied  (A) (A) (A) (A) (A) (A) (A) (A) (A) (A) (A) (A)
                 (A) (A) (A) (A) (A) (A) (A) (A) (A) (A) (A) (A)
                 (A) (A) (A) (A) (A) (A) (A) (A) (A) (A) (A) (A)
                 (A) (A) (A) (A) (A) (A) (A) (A) (A) (A) (A) (A)
       Virtual   (A) (A) (A) (A) (A) (A) (A) (A) (A) (A) (A) (A)
                 (A) (A) (A) (A) (A) (A) (A) (A) (A) (A) (A) (A)
                 (A) (A) (A) (A) (A) (A) (A) (A) (A) (A) (A) (A)
                 (A) (A) (A) (A) (A) (A) (A) (A) (A) (A) (A) (A)
                 (A) (A) (A) (A) (A) (A) (A) (A) (A) (A) (A) (A)
                 (A) (A) (A) (A) (A) (A) (A) (A) (A) (A) (A) (A)
                 (A) (A) (A) (A) (A) (A) (A) (A) (A) (A) (A) (A)
                 (A) (A) (A) (A) (A) (A) (A) (A) (A) (A) (A) (A)
                 (A) (A) (A) (A) (A) (A) (A) (A) (A) (A) (A) (A)
                 (A) (A) (A) (A) (A) (A) (A) (A) (A) (A) (A) (A)
                 (A) (A) (A) (A) (A) (A) (A) (A) (A) (A) (A) (A)
                 (A) (A) (A) (A) (A) (A) (A) (A) (A) (A) (A) (A)
                 (A) (A) (A) (A) (A) (A) (A) (A) (A) (A) (A) (A)
                 (A) (A) (A) (A) (A) (A) (A) (A) (A) (A) (A) (A)
                 (A) (A) (A) (A) (A) (A) (A) (A) (A) (A) (A) (A)
                 (A) (A) (A) (A) (A) (A) (A) (A) (A) (A) (A) (A)
                 (A) (A) (A) (A) (A) (A) (A) (A) (A) (A) (A) (A)
                 (A) (A) (A) (A) (A) (A) (A) (A) (A) (A) (A) (A)
                 (A) (A) (A) (A) (A) (A) (A) (A) (A) (A) (A) (A)
                 (A) (A) (A) (A) (A) (A) (A) (A) (A) (A) (A) (A)
                 (A) (A) (A) (A) (A) (A) (A) (A) (A) (A) (A) (A)
                 (A) (A) (A) (A) (A) (A) (A) (A) (A) (A) (A) (A)
                 (A) (A) (A) (A) (A) (A) (A) (A) (A) (A) (A) (A)
                 (A) (A) (A) (A) (A) (A) (A) (A) (A) (A) (A) (A)
                 (A) (A) (A) (A) (A) (A) (A) (A) (A) (A) (A) (A)
                 (A) (A) (A) (A) (A) (A) (A) (A) (A) (A) (A) (A)
                 (A) (A) (A) (A) (A) (A) (A) (A) (A) (A) (A) (A)
                 (A) (A) (A) (A) (A) (A) (A) (A) (A) (A) (A) (A)
                 (A) (A) (A) (A) (A) (A) (A) (A) (A) (A) (A) (A)
                 (A) (A) (A) (A) (A) (A) (A) (A) (A) (A) (A) (A)
                 (A) (A) (A) (A) (A) (A) (A) (A) (A) (A) (A) (A)
                 (A) (A) (A) (A) (A) (A) (A) (A) (A) (A) (A) (A)
                 (A) (A) (A) (A) (A)
 The electronic state is 1-A.
 Alpha  occ. eigenvalues --  -19.18485 -14.33721 -10.28185 -10.27058 -10.26815
 Alpha  occ. eigenvalues --  -10.25409 -10.25258 -10.24852 -10.22893 -10.21837
 Alpha  occ. eigenvalues --  -10.21222 -10.20434 -10.19897 -10.18450  -1.07490
 Alpha  occ. eigenvalues --   -0.93318  -0.91948  -0.85849  -0.76338  -0.74058
 Alpha  occ. eigenvalues --   -0.71773  -0.69770  -0.64826  -0.59815  -0.57671
 Alpha  occ. eigenvalues --   -0.55065  -0.52933  -0.51984  -0.51050  -0.49856
 Alpha  occ. eigenvalues --   -0.46357  -0.44020  -0.43271  -0.41670  -0.39275
 Alpha  occ. eigenvalues --   -0.38728  -0.37635  -0.36231  -0.33989  -0.31558
 Alpha  occ. eigenvalues --   -0.30615  -0.27781  -0.25963  -0.25752  -0.24136
 Alpha  occ. eigenvalues --   -0.21529  -0.20926  -0.19602
 Alpha virt. eigenvalues --   -0.15165  -0.08269  -0.05505  -0.05127  -0.03371
 Alpha virt. eigenvalues --   -0.02846  -0.01406   0.01126   0.01304   0.05628
 Alpha virt. eigenvalues --    0.08333   0.08830   0.09343   0.09934   0.11913
 Alpha virt. eigenvalues --    0.13076   0.13660   0.14881   0.16369   0.16586
 Alpha virt. eigenvalues --    0.22734   0.23625   0.24124   0.28407   0.30232
 Alpha virt. eigenvalues --    0.30922   0.32345   0.37261   0.38930   0.40030
 Alpha virt. eigenvalues --    0.41270   0.42862   0.43672   0.44527   0.45619
 Alpha virt. eigenvalues --    0.46189   0.48085   0.48302   0.50265   0.50904
 Alpha virt. eigenvalues --    0.51594   0.52274   0.53033   0.53913   0.54163
 Alpha virt. eigenvalues --    0.56243   0.56955   0.58432   0.58717   0.58961
 Alpha virt. eigenvalues --    0.60312   0.60813   0.62208   0.62737   0.63357
 Alpha virt. eigenvalues --    0.64911   0.65725   0.66441   0.68147   0.68441
 Alpha virt. eigenvalues --    0.69132   0.69562   0.71010   0.71320   0.72374
 Alpha virt. eigenvalues --    0.72885   0.73098   0.74160   0.75347   0.76424
 Alpha virt. eigenvalues --    0.77661   0.78433   0.79215   0.80073   0.81039
 Alpha virt. eigenvalues --    0.83861   0.84100   0.84451   0.86001   0.86393
 Alpha virt. eigenvalues --    0.87598   0.88870   0.90641   0.91464   0.91524
 Alpha virt. eigenvalues --    0.93167   0.93868   0.95070   0.96671   0.97452
 Alpha virt. eigenvalues --    0.99667   0.99816   1.01146   1.01885   1.04168
 Alpha virt. eigenvalues --    1.05079   1.08019   1.08945   1.10417   1.10854
 Alpha virt. eigenvalues --    1.12023   1.12877   1.14089   1.15829   1.16916
 Alpha virt. eigenvalues --    1.17707   1.20205   1.21521   1.22011   1.24047
 Alpha virt. eigenvalues --    1.25723   1.27761   1.28406   1.30024   1.31358
 Alpha virt. eigenvalues --    1.32417   1.32962   1.34978   1.37000   1.39015
 Alpha virt. eigenvalues --    1.40339   1.40810   1.42324   1.44440   1.44973
 Alpha virt. eigenvalues --    1.46400   1.49313   1.50413   1.51020   1.52500
 Alpha virt. eigenvalues --    1.52875   1.55645   1.56503   1.56598   1.58337
 Alpha virt. eigenvalues --    1.60080   1.61608   1.62511   1.64455   1.66738
 Alpha virt. eigenvalues --    1.66908   1.68740   1.70402   1.71558   1.72790
 Alpha virt. eigenvalues --    1.74468   1.76549   1.77167   1.81064   1.81614
 Alpha virt. eigenvalues --    1.84883   1.86651   1.88220   1.94498   1.96061
 Alpha virt. eigenvalues --    1.97929   2.00338   2.03710   2.04121   2.06188
 Alpha virt. eigenvalues --    2.08609   2.10418   2.12333   2.13309   2.14723
 Alpha virt. eigenvalues --    2.17491   2.20575   2.21592   2.23496   2.26600
 Alpha virt. eigenvalues --    2.28442   2.31579   2.33507   2.34331   2.36287
 Alpha virt. eigenvalues --    2.39531   2.40999   2.44486   2.45019   2.46497
 Alpha virt. eigenvalues --    2.48730   2.50112   2.53531   2.55668   2.58085
 Alpha virt. eigenvalues --    2.61827   2.62302   2.63809   2.66214   2.67590
 Alpha virt. eigenvalues --    2.69144   2.70067   2.71113   2.72849   2.74236
 Alpha virt. eigenvalues --    2.77919   2.80006   2.81226   2.82467   2.85320
 Alpha virt. eigenvalues --    2.85597   2.86960   2.88488   2.89400   2.90054
 Alpha virt. eigenvalues --    2.92424   2.93805   2.95566   2.95939   2.97565
 Alpha virt. eigenvalues --    2.99709   3.00206   3.02656   3.04659   3.06540
 Alpha virt. eigenvalues --    3.07096   3.08297   3.09871   3.11066   3.13584
 Alpha virt. eigenvalues --    3.14063   3.15976   3.17744   3.19130   3.20208
 Alpha virt. eigenvalues --    3.21210   3.22275   3.22828   3.24110   3.25442
 Alpha virt. eigenvalues --    3.27001   3.27974   3.29484   3.30223   3.30573
 Alpha virt. eigenvalues --    3.32307   3.33251   3.34385   3.36004   3.36369
 Alpha virt. eigenvalues --    3.40204   3.40862   3.42512   3.43479   3.43931
 Alpha virt. eigenvalues --    3.45145   3.46224   3.48304   3.49906   3.50979
 Alpha virt. eigenvalues --    3.53280   3.54713   3.55397   3.58729   3.59761
 Alpha virt. eigenvalues --    3.63974   3.65841   3.66950   3.67796   3.68984
 Alpha virt. eigenvalues --    3.70215   3.74185   3.75528   3.78736   3.79229
 Alpha virt. eigenvalues --    3.80602   3.81292   3.83458   3.86752   3.87342
 Alpha virt. eigenvalues --    3.91420   3.93369   3.95544   3.97075   4.02492
 Alpha virt. eigenvalues --    4.04210   4.06303   4.09255   4.11711   4.13220
 Alpha virt. eigenvalues --    4.14499   4.17700   4.17759   4.19452   4.20878
 Alpha virt. eigenvalues --    4.22937   4.23687   4.24370   4.26788   4.27533
 Alpha virt. eigenvalues --    4.29121   4.33168   4.33626   4.36118   4.36658
 Alpha virt. eigenvalues --    4.39073   4.40138   4.41273   4.42186   4.43997
 Alpha virt. eigenvalues --    4.44777   4.47009   4.49395   4.50017   4.50584
 Alpha virt. eigenvalues --    4.50966   4.53196   4.53705   4.54808   4.55796
 Alpha virt. eigenvalues --    4.57676   4.61134   4.62473   4.63295   4.65027
 Alpha virt. eigenvalues --    4.66057   4.69144   4.70844   4.72195   4.73933
 Alpha virt. eigenvalues --    4.75452   4.77528   4.78289   4.81671   4.82164
 Alpha virt. eigenvalues --    4.84015   4.85466   4.87221   4.88556   4.89940
 Alpha virt. eigenvalues --    4.91117   4.91511   4.92849   4.98470   4.99149
 Alpha virt. eigenvalues --    5.02663   5.05344   5.06622   5.08581   5.11133
 Alpha virt. eigenvalues --    5.12930   5.14476   5.15099   5.16116   5.18249
 Alpha virt. eigenvalues --    5.22345   5.23510   5.25351   5.26629   5.29972
 Alpha virt. eigenvalues --    5.33128   5.35911   5.37456   5.42413   5.45620
 Alpha virt. eigenvalues --    5.47033   5.50271   5.53183   5.60005   5.62964
 Alpha virt. eigenvalues --    5.67285   5.71202   5.74140   5.75727   5.79504
 Alpha virt. eigenvalues --    5.83181   5.89003   5.89898   5.98389   6.10112
 Alpha virt. eigenvalues --    6.16153   6.32694   6.78616   6.83945   9.87748
 Alpha virt. eigenvalues --   10.16728  10.31925  10.54239  10.65427  10.79539
 Alpha virt. eigenvalues --   11.02541  11.32396  11.39556  11.60613  11.72486
 Alpha virt. eigenvalues --   12.23171  12.57241  13.16828  15.18784
          Condensed to atoms (all electrons):
               1          2          3          4          5          6
     1  O    8.231864   0.137741   0.051146  -0.098382   0.022730   0.006359
     2  C    0.137741   5.534435  -0.043302   0.488760  -0.021590  -0.038647
     3  C    0.051146  -0.043302   5.418069   0.533783  -0.132105  -0.026454
     4  C   -0.098382   0.488760   0.533783   4.717885   0.294813  -0.030756
     5  C    0.022730  -0.021590  -0.132105   0.294813   5.369790   0.572555
     6  C    0.006359  -0.038647  -0.026454  -0.030756   0.572555   4.771513
     7  C    0.000083   0.002376  -0.000585  -0.006464  -0.053865   0.472419
     8  C   -0.000024   0.005202  -0.000290   0.000841  -0.011803  -0.021053
     9  C    0.000000   0.000009  -0.000000  -0.000034  -0.000246  -0.000451
    10  C    0.000000   0.000000  -0.000000  -0.000001   0.000016  -0.000329
    11  N    0.000000  -0.000000  -0.000000  -0.000000   0.000000  -0.000004
    12  C   -0.000000  -0.000009   0.000000   0.000003  -0.000004   0.000005
    13  C   -0.000019  -0.000919  -0.000039   0.000207   0.000190  -0.002742
    14  C   -0.001394   0.014076   0.001203  -0.002649  -0.013058  -0.050794
    15  H   -0.002935   0.003726   0.316180  -0.033188  -0.012505   0.000295
    16  H    0.029048   0.002466   0.000178  -0.024861  -0.003033  -0.021391
    17  H   -0.000042   0.004783  -0.005873  -0.035840   0.354885  -0.024587
    18  H   -0.006671  -0.067826   0.009269  -0.000265  -0.055132   0.286641
    19  H    0.000002   0.000340  -0.000020  -0.000623   0.002769  -0.060760
    20  H   -0.000000   0.000002  -0.000000   0.000001  -0.000049   0.001055
    21  H    0.000000  -0.000000   0.000000   0.000000  -0.000000   0.000000
    22  H    0.000000   0.000000  -0.000000  -0.000000  -0.000000   0.000001
    23  H    0.000000   0.000057  -0.000000  -0.000011  -0.000004   0.000015
               7          8          9         10         11         12
     1  O    0.000083  -0.000024   0.000000   0.000000   0.000000  -0.000000
     2  C    0.002376   0.005202   0.000009   0.000000  -0.000000  -0.000009
     3  C   -0.000585  -0.000290  -0.000000  -0.000000  -0.000000   0.000000
     4  C   -0.006464   0.000841  -0.000034  -0.000001  -0.000000   0.000003
     5  C   -0.053865  -0.011803  -0.000246   0.000016   0.000000  -0.000004
     6  C    0.472419  -0.021053  -0.000451  -0.000329  -0.000004   0.000005
     7  C    4.969819   0.492785  -0.020810   0.001097   0.000338   0.002401
     8  C    0.492785   4.949169   0.318364  -0.011127  -0.011363  -0.010690
     9  C   -0.020810   0.318364   5.035933   0.589319  -0.042697  -0.034147
    10  C    0.001097  -0.011127   0.589319   4.796650   0.489003  -0.106774
    11  N    0.000338  -0.011363  -0.042697   0.489003   6.181400   0.608173
    12  C    0.002401  -0.010690  -0.034147  -0.106774   0.608173   5.213532
    13  C   -0.012834   0.095793  -0.014686  -0.000901  -0.023574   0.225710
    14  C   -0.038622   0.173447  -0.009167   0.000276  -0.000158  -0.002256
    15  H    0.000040  -0.000004   0.000000   0.000000   0.000000  -0.000000
    16  H   -0.000123   0.000162  -0.000002  -0.000000  -0.000000   0.000003
    17  H   -0.009211   0.000174  -0.000003   0.000000   0.000000  -0.000000
    18  H   -0.035741  -0.028005   0.000240   0.000001  -0.000004   0.000044
    19  H    0.365606  -0.023787  -0.009829   0.000915   0.000045  -0.000115
    20  H   -0.001772  -0.039879   0.342319  -0.049649   0.006498  -0.000863
    21  H   -0.000111   0.001478  -0.047658   0.367867  -0.033196   0.006227
    22  H   -0.000035   0.000031   0.001526   0.006104  -0.026008   0.293947
    23  H   -0.000842   0.003310   0.001248  -0.000104   0.002332  -0.081985
              13         14         15         16         17         18
     1  O   -0.000019  -0.001394  -0.002935   0.029048  -0.000042  -0.006671
     2  C   -0.000919   0.014076   0.003726   0.002466   0.004783  -0.067826
     3  C   -0.000039   0.001203   0.316180   0.000178  -0.005873   0.009269
     4  C    0.000207  -0.002649  -0.033188  -0.024861  -0.035840  -0.000265
     5  C    0.000190  -0.013058  -0.012505  -0.003033   0.354885  -0.055132
     6  C   -0.002742  -0.050794   0.000295  -0.021391  -0.024587   0.286641
     7  C   -0.012834  -0.038622   0.000040  -0.000123  -0.009211  -0.035741
     8  C    0.095793   0.173447  -0.000004   0.000162   0.000174  -0.028005
     9  C   -0.014686  -0.009167   0.000000  -0.000002  -0.000003   0.000240
    10  C   -0.000901   0.000276   0.000000  -0.000000   0.000000   0.000001
    11  N   -0.023574  -0.000158   0.000000  -0.000000   0.000000  -0.000004
    12  C    0.225710  -0.002256  -0.000000   0.000003  -0.000000   0.000044
    13  C    5.353846   0.264363  -0.000000   0.001043   0.000008   0.013403
    14  C    0.264363   5.834092   0.000025   0.020892  -0.000519  -0.015752
    15  H   -0.000000   0.000025   0.535102  -0.002724   0.004092  -0.000953
    16  H    0.001043   0.020892  -0.002724   0.759930  -0.000681   0.050787
    17  H    0.000008  -0.000519   0.004092  -0.000681   0.561009   0.003716
    18  H    0.013403  -0.015752  -0.000953   0.050787   0.003716   0.736818
    19  H    0.000043   0.005828   0.000025  -0.000045   0.002697   0.000283
    20  H    0.000433   0.000275   0.000000  -0.000000  -0.000005  -0.000044
    21  H   -0.000104  -0.000003   0.000000  -0.000000   0.000000   0.000000
    22  H   -0.031647  -0.000071   0.000000  -0.000000   0.000000  -0.000000
    23  H    0.281437  -0.032181   0.000000  -0.000156  -0.000000  -0.000992
              19         20         21         22         23
     1  O    0.000002  -0.000000   0.000000   0.000000   0.000000
     2  C    0.000340   0.000002  -0.000000   0.000000   0.000057
     3  C   -0.000020  -0.000000   0.000000  -0.000000  -0.000000
     4  C   -0.000623   0.000001   0.000000  -0.000000  -0.000011
     5  C    0.002769  -0.000049  -0.000000  -0.000000  -0.000004
     6  C   -0.060760   0.001055   0.000000   0.000001   0.000015
     7  C    0.365606  -0.001772  -0.000111  -0.000035  -0.000842
     8  C   -0.023787  -0.039879   0.001478   0.000031   0.003310
     9  C   -0.009829   0.342319  -0.047658   0.001526   0.001248
    10  C    0.000915  -0.049649   0.367867   0.006104  -0.000104
    11  N    0.000045   0.006498  -0.033196  -0.026008   0.002332
    12  C   -0.000115  -0.000863   0.006227   0.293947  -0.081985
    13  C    0.000043   0.000433  -0.000104  -0.031647   0.281437
    14  C    0.005828   0.000275  -0.000003  -0.000071  -0.032181
    15  H    0.000025   0.000000   0.000000   0.000000   0.000000
    16  H   -0.000045  -0.000000  -0.000000  -0.000000  -0.000156
    17  H    0.002697  -0.000005   0.000000   0.000000  -0.000000
    18  H    0.000283  -0.000044   0.000000  -0.000000  -0.000992
    19  H    0.588648   0.004045  -0.000038   0.000001   0.000015
    20  H    0.004045   0.652792  -0.004897  -0.000012   0.000002
    21  H   -0.000038  -0.004897   0.596644  -0.000300   0.000007
    22  H    0.000001  -0.000012  -0.000300   0.618988   0.011763
    23  H    0.000015   0.000002   0.000007   0.011763   0.682577
 Mulliken charges:
               1
     1  O   -0.369504
     2  C   -0.021679
     3  C   -0.121160
     4  C    0.196781
     5  C   -0.314353
     6  C    0.167110
     7  C   -0.125950
     8  C    0.117270
     9  C   -0.109227
    10  C   -0.082365
    11  N   -0.150784
    12  C   -0.113203
    13  C   -0.149013
    14  C   -0.147851
    15  H    0.192824
    16  H    0.188507
    17  H    0.145396
    18  H    0.110184
    19  H    0.123956
    20  H    0.089752
    21  H    0.114086
    22  H    0.125713
    23  H    0.133510
 Sum of Mulliken charges =  -0.00000
 Mulliken charges with hydrogens summed into heavy atoms:
               1
     1  O   -0.180997
     2  C   -0.021679
     3  C    0.071664
     4  C    0.196781
     5  C   -0.168957
     6  C    0.277294
     7  C   -0.001994
     8  C    0.117270
     9  C   -0.019475
    10  C    0.031721
    11  N   -0.150784
    12  C    0.012510
    13  C   -0.015503
    14  C   -0.147851
 Electronic spatial extent (au):  <R**2>=           3290.5673
 Charge=             -0.0000 electrons
 Dipole moment (field-independent basis, Debye):
    X=              1.5360    Y=             -4.4282    Z=              1.3773  Tot=              4.8852
 Quadrupole moment (field-independent basis, Debye-Ang):
   XX=            -84.1981   YY=            -73.1705   ZZ=            -85.5691
   XY=             -9.1200   XZ=              3.5035   YZ=              3.9009
 Traceless Quadrupole moment (field-independent basis, Debye-Ang):
   XX=             -3.2188   YY=              7.8087   ZZ=             -4.5899
   XY=             -9.1200   XZ=              3.5035   YZ=              3.9009
 Octapole moment (field-independent basis, Debye-Ang**2):
  XXX=             43.3936  YYY=            -19.5536  ZZZ=              2.1466  XYY=             -7.1537
  XXY=            -59.4743  XXZ=              4.6376  XZZ=              3.1427  YZZ=             -1.0990
  YYZ=              0.6182  XYZ=              4.7890
 Hexadecapole moment (field-independent basis, Debye-Ang**3):
 XXXX=          -3798.0969 YYYY=           -652.7044 ZZZZ=           -124.2886 XXXY=            -94.1058
 XXXZ=             31.2097 YYYX=            -33.8805 YYYZ=             12.0622 ZZZX=              3.3351
 ZZZY=              2.2118 XXYY=           -650.0069 XXZZ=           -656.7048 YYZZ=           -147.0660
 XXYZ=             27.4960 YYXZ=              2.7972 ZZXY=              4.8342
 N-N= 7.678178082456D+02 E-N=-2.911345156738D+03  KE= 5.882378665981D+02
 PrsmSu:  requested number of processors reduced to:  13 ShMem   1 Linda.
 Calling FoFJK, ICntrl=      2127 FMM=F ISym2X=0 I1Cent= 0 IOpClX= 0 NMat=1 NMatS=1 NMatT=0.
 ***** Axes restored to original set *****
 -------------------------------------------------------------------
 Center     Atomic                   Forces (Hartrees/Bohr)
 Number     Number              X              Y              Z
 -------------------------------------------------------------------
      1        8          -0.017288414   -0.062116032   -0.045401503
      2        6           0.021859620   -0.120862906   -0.125122618
      3        6          -0.106488570   -0.063149952    0.002261536
      4        6          -0.078344430    0.193950221    0.099077753
      5        6          -0.025580384    0.029485895    0.040978796
      6        6           0.028602944   -0.000616469    0.073482454
      7        6          -0.008689756    0.010962005    0.021339672
      8        6           0.130888992    0.065736832   -0.026453623
      9        6          -0.018663575    0.010117760   -0.005175335
     10        6          -0.028326172    0.019546610   -0.006117020
     11        7          -0.003319239   -0.076657786    0.004277143
     12        6           0.068313984    0.026792897   -0.010000927
     13        6           0.001048275   -0.006719419   -0.021593215
     14        6           0.154916756    0.033517648    0.014076984
     15        1           0.014470796   -0.054170745   -0.005955502
     16        1          -0.004945762   -0.022377154   -0.005268343
     17        1          -0.005971923   -0.008196610   -0.012621609
     18        1           0.017111598    0.074864823   -0.004192127
     19        1          -0.009397506    0.033694612    0.000254620
     20        1          -0.016602627   -0.025449135   -0.000317142
     21        1          -0.017449762   -0.033543883    0.000480105
     22        1          -0.055056165   -0.014032423   -0.003578467
     23        1          -0.041088682   -0.010776790    0.015568365
 -------------------------------------------------------------------
 Cartesian Forces:  Max     0.193950221 RMS     0.053268040

 GradGradGradGradGradGradGradGradGradGradGradGradGradGradGradGradGradGrad
 Berny optimization.
 FormGI is forming the generalized inverse of G from B-inverse, IUseBI=4.
 Internal  Forces:  Max     0.204550745 RMS     0.063820723
 Search for a local minimum.
 Step number   1 out of a maximum of  115
 All quantities printed in internal units (Hartrees-Bohrs-Radians)
 Mixed Optimization -- RFO/linear search
 Second derivative matrix not updated -- first step.
 ITU=  0
     Eigenvalues ---    0.00230   0.00230   0.00641   0.00954   0.01382
     Eigenvalues ---    0.01714   0.01715   0.01961   0.02323   0.02532
     Eigenvalues ---    0.02556   0.02653   0.02694   0.03079   0.03338
     Eigenvalues ---    0.03757   0.03921   0.04606   0.04853   0.07095
     Eigenvalues ---    0.07877   0.10056   0.10658   0.11003   0.12201
     Eigenvalues ---    0.13315   0.15129   0.15345   0.15801   0.15984
     Eigenvalues ---    0.16000   0.16000   0.16000   0.16000   0.16000
     Eigenvalues ---    0.16659   0.18207   0.20395   0.20487   0.20559
     Eigenvalues ---    0.21478   0.22000   0.22000   0.22012   0.22675
     Eigenvalues ---    0.24854   0.25000   0.26369   0.26601   0.28469
     Eigenvalues ---    0.29829   0.31916   0.33914   0.35774   0.41835
     Eigenvalues ---    0.53988   0.54129   0.58000   0.58415   0.67167
     Eigenvalues ---    0.69478   0.74999   0.79130
 RFO step:  Lambda=-5.25359388D-01 EMin= 2.30000000D-03
 Linear search not attempted -- first point.
 Maximum step size (   0.300) exceeded in Quadratic search.
    -- Step size scaled by   0.387
 Iteration  1 RMS(Cart)=  0.16013953 RMS(Int)=  0.00679254
 Iteration  2 RMS(Cart)=  0.01220667 RMS(Int)=  0.00025371
 Iteration  3 RMS(Cart)=  0.00009029 RMS(Int)=  0.00025244
 Iteration  4 RMS(Cart)=  0.00000001 RMS(Int)=  0.00025244
 Variable       Old X    -DE/DX   Delta X   Delta X   Delta X     New X
                                 (Linear)    (Quad)   (Total)
    R1        2.90953   0.01840   0.00000   0.00907   0.00882   2.91835
    R2        2.87090   0.03778   0.00000   0.02053   0.02089   2.89179
    R3        2.41828   0.18536   0.00000   0.05899   0.05904   2.47732
    R4        2.89599  -0.00904   0.00000  -0.00691  -0.00713   2.88886
    R5        2.40730   0.09928   0.00000   0.03012   0.03012   2.43743
    R6        2.22548  -0.04705   0.00000  -0.02308  -0.02308   2.20241
    R7        2.80776   0.11905   0.00000   0.05329   0.05329   2.86105
    R8        3.03400   0.04200   0.00000   0.02672   0.02678   3.06079
    R9        2.38388   0.20455   0.00000   0.06012   0.06012   2.44400
   R10        2.04436  -0.00123   0.00000  -0.00054  -0.00054   2.04383
   R11        2.51841   0.09120   0.00000   0.03445   0.03460   2.55301
   R12        2.60384  -0.05321   0.00000  -0.02980  -0.02960   2.57425
   R13        2.42936   0.11136   0.00000   0.03681   0.03668   2.46603
   R14        1.95833   0.03494   0.00000   0.01433   0.01433   1.97266
   R15        3.32901  -0.11709   0.00000  -0.06675  -0.06675   3.26226
   R16        3.52393  -0.03855   0.00000  -0.02592  -0.02613   3.49781
   R17        2.55914  -0.05447   0.00000  -0.01976  -0.01976   2.53938
   R18        2.10998  -0.01437   0.00000  -0.00658  -0.00658   2.10340
   R19        2.52217   0.05402   0.00000   0.01884   0.01884   2.54101
   R20        2.17826  -0.03752   0.00000  -0.01792  -0.01792   2.16033
   R21        2.52559  -0.01604   0.00000  -0.00562  -0.00562   2.51998
   R22        2.26280  -0.04337   0.00000  -0.02169  -0.02169   2.24112
   R23        3.12294  -0.04186   0.00000  -0.02218  -0.02218   3.10076
   R24        2.15005  -0.02205   0.00000  -0.01036  -0.01036   2.13969
   R25        3.31614   0.04823   0.00000   0.02713   0.02718   3.34332
    A1        1.43371   0.07055   0.00000   0.04333   0.04318   1.47689
    A2        2.24636   0.06451   0.00000   0.03643   0.03643   2.28278
    A3        1.66115  -0.06040   0.00000  -0.02960  -0.03056   1.63059
    A4        1.92092   0.05620   0.00000   0.02626   0.02639   1.94730
    A5        1.62461   0.13946   0.00000   0.07653   0.07644   1.70105
    A6        1.95462  -0.10102   0.00000  -0.05564  -0.05595   1.89867
    A7        2.68963  -0.03689   0.00000  -0.01944  -0.01900   2.67063
    A8        1.51425   0.20090   0.00000   0.10430   0.10430   1.61855
    A9        2.53732  -0.11140   0.00000  -0.05833  -0.05834   2.47899
   A10        2.23160  -0.08947   0.00000  -0.04595  -0.04595   2.18565
   A11        2.16896   0.02635   0.00000   0.01345   0.01345   2.18241
   A12        1.90500   0.04398   0.00000   0.02517   0.02516   1.93016
   A13        2.20922  -0.07034   0.00000  -0.03862  -0.03861   2.17061
   A14        1.79946   0.01369   0.00000   0.01395   0.01381   1.81327
   A15        2.20480  -0.00455   0.00000  -0.00603  -0.00599   2.19880
   A16        2.27231  -0.00747   0.00000  -0.00690  -0.00684   2.26547
   A17        1.72449   0.08748   0.00000   0.04559   0.04614   1.77062
   A18        1.78608   0.01171   0.00000   0.00780   0.00783   1.79391
   A19        2.71010  -0.10690   0.00000  -0.05695  -0.05704   2.65306
   A20        2.44494  -0.18955   0.00000  -0.09839  -0.09838   2.34656
   A21        2.01780   0.06525   0.00000   0.03255   0.03255   2.05036
   A22        1.81785   0.12377   0.00000   0.06558   0.06559   1.88344
   A23        2.05393  -0.09878   0.00000  -0.05128  -0.05129   2.00264
   A24        2.18213   0.04446   0.00000   0.02286   0.02286   2.20499
   A25        2.04713   0.05432   0.00000   0.02842   0.02842   2.07554
   A26        2.06645  -0.06326   0.00000  -0.03157  -0.03157   2.03488
   A27        1.68474   0.08335   0.00000   0.04706   0.04706   1.73180
   A28        2.35379  -0.07011   0.00000  -0.03959  -0.03959   2.31420
   A29        1.19450   0.02702   0.00000   0.02046   0.02057   1.21507
   A30        1.51016  -0.01157   0.00000  -0.00823  -0.00815   1.50200
   A31        2.12160   0.00214   0.00000  -0.00030  -0.00016   2.12143
   A32        1.27628   0.08952   0.00000   0.04138   0.04141   1.31769
   A33        1.50316   0.06669   0.00000   0.03308   0.03354   1.53670
    D1       -0.90841   0.06518   0.00000   0.03792   0.03733  -0.87108
    D2       -2.56991  -0.06863   0.00000  -0.03627  -0.03630  -2.60621
    D3        1.04773  -0.01272   0.00000  -0.00741  -0.00757   1.04015
    D4       -2.38569  -0.05021   0.00000  -0.02478  -0.02402  -2.40971
    D5       -0.45754   0.01723   0.00000   0.00793   0.00769  -0.44984
    D6        2.79949   0.01357   0.00000   0.00350   0.00298   2.80246
    D7       -1.28295  -0.03180   0.00000  -0.02053  -0.01980  -1.30274
    D8        1.85377  -0.02337   0.00000  -0.01455  -0.01389   1.83988
    D9       -2.96987  -0.02482   0.00000  -0.02005  -0.02054  -2.99041
   D10        0.16685  -0.01639   0.00000  -0.01407  -0.01463   0.15222
   D11       -0.07532  -0.00799   0.00000  -0.00599  -0.00612  -0.08144
   D12        3.06140   0.00043   0.00000  -0.00001  -0.00022   3.06118
   D13        0.33342   0.03046   0.00000   0.01799   0.01794   0.35136
   D14       -2.54168  -0.00094   0.00000  -0.00449  -0.00469  -2.54638
   D15        2.85101  -0.01349   0.00000  -0.00785  -0.00771   2.84331
   D16       -0.28873  -0.01046   0.00000  -0.00838  -0.00836  -0.29709
   D17       -0.28707  -0.01923   0.00000  -0.01198  -0.01199  -0.29906
   D18        2.85637  -0.01620   0.00000  -0.01251  -0.01264   2.84373
   D19       -2.79807  -0.00009   0.00000  -0.00025  -0.00038  -2.79845
   D20        0.45690  -0.01409   0.00000  -0.00879  -0.00878   0.44812
   D21        0.34135  -0.00351   0.00000   0.00045   0.00043   0.34178
   D22       -2.68687  -0.01751   0.00000  -0.00808  -0.00796  -2.69483
   D23        2.22067   0.02214   0.00000   0.01454   0.01429   2.23495
   D24       -0.91902   0.02512   0.00000   0.01393   0.01357  -0.90545
   D25       -2.93562  -0.05220   0.00000  -0.02827  -0.02760  -2.96322
   D26        0.43108  -0.00892   0.00000  -0.00610  -0.00632   0.42475
   D27        0.08636  -0.03706   0.00000  -0.01909  -0.01859   0.06778
   D28       -2.83013   0.00622   0.00000   0.00307   0.00269  -2.82744
   D29        3.04414   0.00312   0.00000   0.00389   0.00416   3.04830
   D30       -0.00418   0.00215   0.00000   0.00299   0.00318  -0.00099
   D31       -0.64591   0.03105   0.00000   0.02136   0.02117  -0.62474
   D32        2.58896   0.03008   0.00000   0.02046   0.02019   2.60915
   D33       -3.04554   0.03643   0.00000   0.02481   0.02492  -3.02062
   D34       -0.84644   0.03524   0.00000   0.02144   0.02162  -0.82482
   D35        0.65159   0.00123   0.00000   0.00373   0.00378   0.65537
   D36        2.85069   0.00004   0.00000   0.00037   0.00048   2.85117
   D37        0.04496   0.01708   0.00000   0.01191   0.01195   0.05691
   D38       -3.09690   0.00925   0.00000   0.00642   0.00646  -3.09045
   D39        3.09984   0.01799   0.00000   0.01267   0.01263   3.11246
   D40       -0.04203   0.01016   0.00000   0.00718   0.00714  -0.03490
   D41        0.01061   0.01133   0.00000   0.00796   0.00796   0.01857
   D42       -3.13073   0.01854   0.00000   0.01302   0.01302  -3.11771
   D43        3.13868  -0.00406   0.00000  -0.00285  -0.00285   3.13583
   D44        2.94150  -0.01480   0.00000  -0.00984  -0.00982   2.93168
   D45        1.69555  -0.01918   0.00000  -0.01508  -0.01510   1.68045
   D46        0.80489   0.03432   0.00000   0.01426   0.01397   0.81887
   D47        1.88714   0.05850   0.00000   0.03372   0.03357   1.92071
         Item               Value     Threshold  Converged?
 Maximum Force            0.204551     0.000450     NO 
 RMS     Force            0.063821     0.000300     NO 
 Maximum Displacement     0.822874     0.001800     NO 
 RMS     Displacement     0.166328     0.001200     NO 
 Predicted change in Energy=-1.905749D-01
 GradGradGradGradGradGradGradGradGradGradGradGradGradGradGradGradGradGrad

                          Input orientation:                          
 ---------------------------------------------------------------------
 Center     Atomic      Atomic             Coordinates (Angstroms)
 Number     Number       Type             X           Y           Z
 ---------------------------------------------------------------------
      1          8           0        4.355926   -0.005306   -0.518317
      2          6           0        5.365926    1.120956   -0.828761
      3          6           0        3.659154    1.535866   -0.122293
      4          6           0        4.884291    1.682608    0.253430
      5          6           0        4.936850    3.193235    0.167140
      6          6           0        6.214897    3.221841    0.363156
      7          6           0        7.017905    4.273936    0.092115
      8          6           0        8.210496    3.748532    0.024165
      9          6           0        9.204340    5.159303   -0.022260
     10          6           0       10.530186    5.377355   -0.003876
     11          7           0       11.283742    4.263701   -0.003255
     12          6           0       10.631182    3.101436   -0.042828
     13          6           0        9.454518    2.186062   -0.094297
     14          6           0        7.856541    1.983678   -0.407176
     15          1           0        2.749888    2.261813   -0.054906
     16          1           0        5.566767    0.220064    0.389862
     17          1           0        4.309212    4.061051    0.016450
     18          1           0        6.646536    2.038722    0.882382
     19          1           0        6.726158    5.275683    0.059161
     20          1           0        8.694286    6.148107    0.010034
     21          1           0       11.049071    6.395968    0.005415
     22          1           0       11.558664    2.362372   -0.037221
     23          1           0       10.301124    1.453406    0.074598
 ---------------------------------------------------------------------
                    Distance matrix (angstroms):
                    1          2          3          4          5
     1  O    0.000000
     2  C    1.544325   0.000000
     3  C    1.737105   1.893229   0.000000
     4  C    1.929719   1.310939   1.289830   0.000000
     5  C    3.322347   2.338860   2.112617   1.514002   0.000000
     6  C    3.827172   2.560300   3.099999   2.037594   1.293308
     7  C    5.076482   3.676728   4.338686   3.360552   2.346131
     8  C    5.407707   3.965251   5.062811   3.922275   3.323485
     9  C    7.101153   5.629575   6.624831   5.552137   4.702421
    10  C    8.207264   6.742919   7.872874   6.752295   6.007082
    11  N    8.153794   6.751212   8.098740   6.905136   6.438786
    12  C    7.018317   5.680045   7.146082   5.926854   5.698941
    13  C    5.565746   4.288412   5.831791   4.611004   4.635955
    14  C    4.027743   2.669304   4.230809   3.059626   3.212081
    15  H    2.816724   2.957035   1.165463   2.232986   2.387395
    16  H    1.530268   1.528720   2.373315   1.619698   3.047318
    17  H    4.101636   3.236539   2.611204   2.458428   1.081546
    18  H    3.374449   2.325998   3.191659   1.904706   2.183460
    19  H    5.817244   4.460986   4.840007   4.042326   2.747703
    20  H    7.547517   6.087184   6.829556   5.875030   4.782706
    21  H    9.276250   7.798702   8.845778   7.764135   6.902384
    22  H    7.597156   6.365348   7.943085   6.715192   6.676864
    23  H    6.150185   5.028197   6.645399   5.424629   5.640125
                    6          7          8          9         10
     6  C    0.000000
     7  C    1.350995   0.000000
     8  C    2.091586   1.304968   0.000000
     9  C    3.583165   2.361664   1.726313   0.000000
    10  C    4.837631   3.682780   2.834575   1.343783   0.000000
    11  N    5.187766   4.266916   3.116247   2.264151   1.344645
    12  C    4.436540   3.801149   2.506579   2.504220   2.278491
    13  C    3.431800   3.214196   2.000734   2.984617   3.368915
    14  C    2.195781   2.489555   1.850959   3.471213   4.339133
    15  H    3.619768   4.720828   5.659931   7.075059   8.381065
    16  H    3.071067   4.316054   4.424152   6.147996   7.168556
    17  H    2.110951   2.718099   3.913789   5.016965   6.358742
    18  H    1.362233   2.399712   2.471023   4.135065   5.197563
    19  H    2.138239   1.043887   2.129947   2.482248   3.805909
    20  H    3.851635   2.515852   2.447899   1.113072   1.991176
    21  H    5.794161   4.556407   3.881595   2.221068   1.143198
    22  H    5.427231   4.928417   3.624284   3.655939   3.185749
    23  H    4.461825   4.328420   3.104975   3.866004   3.931412
                   11         12         13         14         15
    11  N    0.000000
    12  C    1.333514   0.000000
    13  C    2.769645   1.491676   0.000000
    14  C    4.136105   3.013431   1.640849   0.000000
    15  H    8.765665   7.925901   6.705174   5.126339   0.000000
    16  H    7.013511   5.842758   4.383396   2.998110   3.507330
    17  H    6.977502   6.394660   5.477411   4.132612   2.381982
    18  H    5.219058   4.226438   2.976638   1.769209   4.013994
    19  H    4.669001   4.470678   4.124713   3.511771   4.990706
    20  H    3.202568   3.610617   4.035670   4.268296   7.102349
    21  H    2.145159   3.321280   4.502872   5.461757   9.272072
    22  H    1.921403   1.185947   2.112290   3.739785   8.809367
    23  H    2.978147   1.684853   1.132277   2.547407   7.595489
                   16         17         18         19         20
    16  H    0.000000
    17  H    4.058825   0.000000
    18  H    2.171633   3.209788   0.000000
    19  H    5.197387   2.705326   3.340950   0.000000
    20  H    6.713220   4.856411   4.673469   2.153385   0.000000
    21  H    8.267118   7.132858   6.255956   4.466039   2.367798
    22  H    6.377672   7.446002   5.007935   5.643561   4.747492
    23  H    4.902515   6.534999   3.788288   5.233586   4.962490
                   21         22         23
    21  H    0.000000
    22  H    4.065883   0.000000
    23  H    4.999313   1.555676   0.000000
 Stoichiometry    C12H9NO
 Framework group  C1[X(C12H9NO)]
 Deg. of freedom    63
 Full point group                 C1      NOp   1
 Largest Abelian subgroup         C1      NOp   1
 Largest concise Abelian subgroup C1      NOp   1
                         Standard orientation:                         
 ---------------------------------------------------------------------
 Center     Atomic      Atomic             Coordinates (Angstroms)
 Number     Number       Type             X           Y           Z
 ---------------------------------------------------------------------
      1          8           0        4.034851    1.261336   -0.182742
      2          6           0        2.633776    0.761418   -0.597484
      3          6           0        3.947642   -0.463971   -0.000412
      4          6           0        2.778640   -0.085933    0.392250
      5          6           0        2.050846   -1.385960    0.123088
      6          6           0        0.893168   -0.857485    0.353608
      7          6           0       -0.290952   -1.390343   -0.019367
      8          6           0       -1.114426   -0.378573    0.014575
      9          6           0       -2.637216   -1.169672   -0.173646
     10          6           0       -3.918216   -0.765031   -0.141078
     11          7           0       -4.086156    0.559398    0.019402
     12          6           0       -2.977585    1.295901    0.102421
     13          6           0       -1.513187    1.578787    0.127140
     14          6           0        0.011567    1.073560   -0.207909
     15          1           0        4.427860   -1.524709   -0.050723
     16          1           0        2.828074    1.497808    0.728021
     17          1           0        2.221969   -2.417786   -0.152218
     18          1           0        1.029044    0.318805    1.027076
     19          1           0       -0.483131   -2.403109   -0.183898
     20          1           0       -2.630776   -2.277764   -0.278628
     21          1           0       -4.841797   -1.431351   -0.240665
     22          1           0       -3.470155    2.367465    0.227312
     23          1           0       -1.941149    2.587986    0.410718
 ---------------------------------------------------------------------
 Rotational constants (GHZ):           2.1840476           0.3541696           0.3091068
 Standard basis: 6-31G(2df,p) (6D, 7F)
 There are   479 symmetry adapted cartesian basis functions of A   symmetry.
 There are   437 symmetry adapted basis functions of A   symmetry.
   437 basis functions,   679 primitive gaussians,   479 cartesian basis functions
    48 alpha electrons       48 beta electrons
       nuclear repulsion energy       764.8421902121 Hartrees.
 NAtoms=   23 NActive=   23 NUniq=   23 SFac= 1.00D+00 NAtFMM=   60 NAOKFM=F Big=F
 Integral buffers will be    131072 words long.
 Raffenetti 2 integral format.
 Two-electron integral symmetry is turned on.
 One-electron integrals computed using PRISM.
 PrsmSu:  requested number of processors reduced to:  13 ShMem   1 Linda.
 NBasis=   437 RedAO= T EigKep=  2.14D-04  NBF=   437
 NBsUse=   437 1.00D-06 EigRej= -1.00D+00 NBFU=   437
 Initial guess from the checkpoint file:  "OdC1CdCCdCCdC2CdCNdCCdC12.chk"
 B after Tr=     0.000000   -0.000000   -0.000000
         Rot=    0.999977   -0.001895    0.000066    0.006562 Ang=  -0.78 deg.
 ExpMin= 1.61D-01 ExpMax= 5.48D+03 ExpMxC= 8.25D+02 IAcc=2 IRadAn=         4 AccDes= 0.00D+00
 Harris functional with IExCor=  402 and IRadAn=       4 diagonalized for initial guess.
 HarFok:  IExCor=  402 AccDes= 0.00D+00 IRadAn=         4 IDoV= 1 UseB2=F ITyADJ=14
 ICtDFT=  3500011 ScaDFX=  1.000000  1.000000  1.000000  1.000000
 FoFCou: FMM=F IPFlag=           0 FMFlag=      100000 FMFlg1=           0
         NFxFlg=           0 DoJE=T BraDBF=F KetDBF=T FulRan=T
         wScrn=  0.000000 ICntrl=       500 IOpCl=  0 I1Cent=   200000004 NGrid=           0
         NMat0=    1 NMatS0=      1 NMatT0=    0 NMatD0=    1 NMtDS0=    0 NMtDT0=    0
 Petite list used in FoFCou.
 Requested convergence on RMS density matrix=1.00D-08 within 128 cycles.
 Requested convergence on MAX density matrix=1.00D-06.
 Requested convergence on             energy=1.00D-06.
 No special actions if energy rises.
 Integral accuracy reduced to 1.0D-05 until final iterations.
 EnCoef did     3 forward-backward iterations
 EnCoef did     2 forward-backward iterations
 Initial convergence to 1.0D-05 achieved.  Increase integral accuracy.
 EnCoef did   100 forward-backward iterations
 SCF Done:  E(RB3LYP) =  -591.557851502     A.U. after   21 cycles
            NFock= 21  Conv=0.76D-08     -V/T= 2.0059
 PrsmSu:  requested number of processors reduced to:  13 ShMem   1 Linda.
 Calling FoFJK, ICntrl=      2127 FMM=F ISym2X=0 I1Cent= 0 IOpClX= 0 NMat=1 NMatS=1 NMatT=0.
 ***** Axes restored to original set *****
 -------------------------------------------------------------------
 Center     Atomic                   Forces (Hartrees/Bohr)
 Number     Number              X              Y              Z
 -------------------------------------------------------------------
      1        8          -0.020257058   -0.017223103   -0.034141007
      2        6           0.019436445   -0.101506865   -0.080094991
      3        6          -0.090275814   -0.073886520    0.001208547
      4        6          -0.054492028    0.193052925    0.068095173
      5        6           0.019373765   -0.010865996    0.044131128
      6        6           0.001118280   -0.015506889    0.064133002
      7        6          -0.007156448    0.002060550    0.023012426
      8        6           0.072799642    0.078938385   -0.039453179
      9        6          -0.039632995   -0.002704820   -0.002303055
     10        6           0.000439521    0.002733429   -0.000517041
     11        7          -0.009354275   -0.015816490   -0.004007544
     12        6           0.091028302   -0.027940346   -0.011582296
     13        6           0.011638254   -0.030639778   -0.002294633
     14        6           0.141467135    0.061241242    0.003503969
     15        1           0.017377035   -0.047531991   -0.007210871
     16        1          -0.007678024   -0.015671153   -0.004137900
     17        1          -0.009000895   -0.008747166   -0.011736100
     18        1          -0.001860530    0.073805468   -0.018027315
     19        1          -0.010283865    0.028401020   -0.000054541
     20        1          -0.017035329   -0.022858164    0.001437881
     21        1          -0.018102932   -0.028713682    0.000842943
     22        1          -0.032182794    0.020667402   -0.001037023
     23        1          -0.057365390   -0.041287456    0.010232424
 -------------------------------------------------------------------
 Cartesian Forces:  Max     0.193052925 RMS     0.046992907

 GradGradGradGradGradGradGradGradGradGradGradGradGradGradGradGradGradGrad
 Berny optimization.
 Using GEDIIS/GDIIS optimizer.
 FormGI is forming the generalized inverse of G from B-inverse, IUseBI=4.
 Internal  Forces:  Max     0.143203500 RMS     0.053091386
 Search for a local minimum.
 Step number   2 out of a maximum of  115
 All quantities printed in internal units (Hartrees-Bohrs-Radians)
 Mixed Optimization -- RFO/linear search
 Update second derivatives using D2CorX and points    1    2
 DE= -1.74D-01 DEPred=-1.91D-01 R= 9.12D-01
 TightC=F SS=  1.41D+00  RLast= 3.19D-01 DXNew= 5.0454D-01 9.5555D-01
 Trust test= 9.12D-01 RLast= 3.19D-01 DXMaxT set to 5.05D-01
 ITU=  1  0
 Use linear search instead of GDIIS.
     Eigenvalues ---    0.00230   0.00230   0.00726   0.00961   0.01387
     Eigenvalues ---    0.01673   0.01769   0.02090   0.02323   0.02532
     Eigenvalues ---    0.02552   0.02648   0.02681   0.03107   0.03334
     Eigenvalues ---    0.03757   0.03931   0.04113   0.04903   0.06836
     Eigenvalues ---    0.07703   0.08609   0.10042   0.10609   0.11401
     Eigenvalues ---    0.12189   0.13660   0.15406   0.15513   0.15839
     Eigenvalues ---    0.15982   0.16000   0.16000   0.16000   0.16188
     Eigenvalues ---    0.16584   0.17466   0.19139   0.20497   0.20788
     Eigenvalues ---    0.21311   0.21493   0.22005   0.22568   0.24500
     Eigenvalues ---    0.24811   0.26286   0.26617   0.28398   0.29804
     Eigenvalues ---    0.31894   0.33035   0.35774   0.41670   0.50592
     Eigenvalues ---    0.53826   0.57350   0.58053   0.61096   0.67763
     Eigenvalues ---    0.73791   0.76672   3.07659
 RFO step:  Lambda=-3.31419112D-01 EMin= 2.29623020D-03
 Quartic linear search produced a step of  0.24804.
 Maximum step size (   0.505) exceeded in Quadratic search.
    -- Step size scaled by   0.681
 Iteration  1 RMS(Cart)=  0.23358452 RMS(Int)=  0.01002584
 Iteration  2 RMS(Cart)=  0.01353297 RMS(Int)=  0.00095845
 Iteration  3 RMS(Cart)=  0.00009419 RMS(Int)=  0.00095729
 Iteration  4 RMS(Cart)=  0.00000005 RMS(Int)=  0.00095729
 Variable       Old X    -DE/DX   Delta X   Delta X   Delta X     New X
                                 (Linear)    (Quad)   (Total)
    R1        2.91835  -0.00015   0.00219   0.00569   0.00693   2.92528
    R2        2.89179   0.02461   0.00518   0.03087   0.03727   2.92906
    R3        2.47732   0.13049   0.01464   0.12551   0.14034   2.61766
    R4        2.88886  -0.00921  -0.00177  -0.01607  -0.01889   2.86997
    R5        2.43743   0.08480   0.00747   0.07176   0.07923   2.51665
    R6        2.20241  -0.04358  -0.00572  -0.04740  -0.05312   2.14928
    R7        2.86105   0.06414   0.01322   0.08260   0.09582   2.95687
    R8        3.06079   0.02585   0.00664   0.03054   0.03775   3.09853
    R9        2.44400   0.12948   0.01491   0.12530   0.14021   2.58421
   R10        2.04383  -0.00016  -0.00013  -0.00050  -0.00064   2.04319
   R11        2.55301   0.04667   0.00858   0.06067   0.06923   2.62224
   R12        2.57425  -0.06564  -0.00734  -0.07351  -0.08080   2.49345
   R13        2.46603   0.08183   0.00910   0.07976   0.08842   2.55445
   R14        1.97266   0.03013   0.00355   0.03086   0.03441   2.00707
   R15        3.26226  -0.07483  -0.01656  -0.08964  -0.10620   3.15606
   R16        3.49781   0.01442  -0.00648   0.00872   0.00163   3.49944
   R17        2.53938   0.02322  -0.00490  -0.00660  -0.01150   2.52788
   R18        2.10340  -0.01246  -0.00163  -0.01344  -0.01507   2.08833
   R19        2.54101   0.04685   0.00467   0.04339   0.04806   2.58907
   R20        2.16033  -0.03379  -0.00445  -0.03667  -0.04111   2.11922
   R21        2.51998  -0.02208  -0.00139  -0.01717  -0.01856   2.50142
   R22        2.24112  -0.03805  -0.00538  -0.04227  -0.04765   2.19347
   R23        3.10076  -0.05189  -0.00550  -0.05483  -0.06033   3.04043
   R24        2.13969  -0.01465  -0.00257  -0.01748  -0.02005   2.11965
   R25        3.34332   0.04860   0.00674   0.05527   0.06295   3.40627
    A1        1.47689   0.03060   0.01071   0.04472   0.05472   1.53160
    A2        2.28278   0.05666   0.00903   0.06445   0.07348   2.35626
    A3        1.63059  -0.05599  -0.00758  -0.06343  -0.07457   1.55602
    A4        1.94730   0.03717   0.00654   0.04128   0.04778   1.99508
    A5        1.70105   0.12973   0.01896   0.14501   0.16346   1.86451
    A6        1.89867  -0.10253  -0.01388  -0.11597  -0.13082   1.76785
    A7        2.67063  -0.02615  -0.00471  -0.02799  -0.03099   2.63964
    A8        1.61855   0.14258   0.02587   0.16889   0.19475   1.81331
    A9        2.47899  -0.08498  -0.01447  -0.09932  -0.11379   2.36520
   A10        2.18565  -0.05760  -0.01140  -0.06957  -0.08097   2.10468
   A11        2.18241   0.02013   0.00334   0.02309   0.02638   2.20879
   A12        1.93016   0.02386   0.00624   0.02944   0.03562   1.96579
   A13        2.17061  -0.04400  -0.00958  -0.05254  -0.06208   2.10854
   A14        1.81327   0.01822   0.00342   0.02519   0.02817   1.84144
   A15        2.19880  -0.01030  -0.00149  -0.01310  -0.01429   2.18452
   A16        2.26547  -0.00791  -0.00170  -0.01185  -0.01342   2.25205
   A17        1.77062  -0.01509   0.01144   0.00865   0.02056   1.79119
   A18        1.79391   0.00976   0.00194   0.00646   0.00771   1.80162
   A19        2.65306   0.01120  -0.01415  -0.01216  -0.02578   2.62728
   A20        2.34656   0.06644  -0.02440   0.01343  -0.01097   2.33559
   A21        2.05036  -0.06132   0.00807  -0.03835  -0.03028   2.02008
   A22        1.88344  -0.00483   0.01627   0.02505   0.04132   1.92476
   A23        2.00264   0.13547  -0.01272   0.09373   0.08098   2.08362
   A24        2.20499  -0.07102   0.00567  -0.05079  -0.04516   2.15983
   A25        2.07554  -0.06450   0.00705  -0.04301  -0.03599   2.03955
   A26        2.03488   0.12896  -0.00783   0.08883   0.08100   2.11588
   A27        1.73180   0.00878   0.01167   0.02110   0.03277   1.76458
   A28        2.31420  -0.14269  -0.00982  -0.14831  -0.15813   2.15608
   A29        1.21507   0.13085   0.00510   0.13734   0.14265   1.35772
   A30        1.50200  -0.02430  -0.00202  -0.02208  -0.02283   1.47917
   A31        2.12143   0.02192  -0.00004   0.01277   0.01074   2.13218
   A32        1.31769   0.04606   0.01027   0.05564   0.06631   1.38400
   A33        1.53670   0.07248   0.00832   0.07436   0.08409   1.62079
    D1       -0.87108   0.08147   0.00926   0.09027   0.09724  -0.77384
    D2       -2.60621  -0.04069  -0.00900  -0.04589  -0.05471  -2.66092
    D3        1.04015  -0.00096  -0.00188  -0.00298  -0.00519   1.03496
    D4       -2.40971  -0.03236  -0.00596  -0.03550  -0.03745  -2.44716
    D5       -0.44984   0.01144   0.00191   0.01305   0.01319  -0.43666
    D6        2.80246   0.00888   0.00074   0.01054   0.00903   2.81150
    D7       -1.30274  -0.01308  -0.00491  -0.01062  -0.01281  -1.31556
    D8        1.83988  -0.00973  -0.00345  -0.00834  -0.00917   1.83071
    D9       -2.99041  -0.01232  -0.00509  -0.00879  -0.01592  -3.00633
   D10        0.15222  -0.00897  -0.00363  -0.00652  -0.01228   0.13993
   D11       -0.08144  -0.00294  -0.00152   0.00023  -0.00182  -0.08326
   D12        3.06118   0.00041  -0.00005   0.00250   0.00182   3.06300
   D13        0.35136   0.01557   0.00445   0.01795   0.02240   0.37377
   D14       -2.54638  -0.00718  -0.00116  -0.00606  -0.00824  -2.55461
   D15        2.84331  -0.00440  -0.00191  -0.00455  -0.00658   2.83672
   D16       -0.29709   0.00328  -0.00207   0.00682   0.00506  -0.29203
   D17       -0.29906  -0.00698  -0.00297  -0.00632  -0.00961  -0.30867
   D18        2.84373   0.00070  -0.00314   0.00504   0.00203   2.84576
   D19       -2.79845  -0.00093  -0.00009   0.00102   0.00028  -2.79817
   D20        0.44812  -0.00075  -0.00218  -0.00089  -0.00372   0.44440
   D21        0.34178  -0.00958   0.00011  -0.01180  -0.01216   0.32962
   D22       -2.69483  -0.00940  -0.00197  -0.01371  -0.01616  -2.71099
   D23        2.23495   0.01741   0.00354   0.01849   0.02101   2.25596
   D24       -0.90545   0.02497   0.00337   0.02969   0.03183  -0.87362
   D25       -2.96322   0.00213  -0.00685  -0.00810  -0.01502  -2.97824
   D26        0.42475  -0.01114  -0.00157  -0.00984  -0.01244   0.41231
   D27        0.06778   0.00184  -0.00461  -0.00605  -0.01072   0.05706
   D28       -2.82744  -0.01142   0.00067  -0.00778  -0.00814  -2.83557
   D29        3.04830   0.00951   0.00103   0.01168   0.01294   3.06124
   D30       -0.00099   0.00645   0.00079   0.00893   0.00994   0.00894
   D31       -0.62474   0.02943   0.00525   0.03004   0.03507  -0.58967
   D32        2.60915   0.02637   0.00501   0.02729   0.03207   2.64121
   D33       -3.02062   0.05856   0.00618   0.07342   0.07854  -2.94208
   D34       -0.82482   0.04934   0.00536   0.05049   0.05621  -0.76861
   D35        0.65537   0.04162   0.00094   0.05476   0.05481   0.71018
   D36        2.85117   0.03240   0.00012   0.03184   0.03247   2.88364
   D37        0.05691   0.02302   0.00296   0.02652   0.02946   0.08637
   D38       -3.09045   0.01084   0.00160   0.01215   0.01379  -3.07666
[...]
 1,0.00144710,-0.01131275,-0.00838901,0.00336098,0.02983175,0.00390987,
 -0.01890445,0.18305734,-0.27704573,0.01762705,-0.01568261,-0.05436206,
 0.00778703,0.01181140,-0.00125845,-0.00084058,-0.00720586,-0.00747045,
 -0.00991960,0.00287144,0.01693674,-0.00132375,0.18636238,-0.11408664,0
 .03387019,-0.39963579,0.44553011,0.00007574,0.00048903,0.00021248,0.00
 038863,0.00013224,0.00008122,-0.00027190,-0.00033592,-0.00013891,0.000
 06386,-0.00078969,0.00004279,0.00043514,0.00135487,-0.00080859,-0.0014
 3756,-0.00231390,0.00046621,0.00637687,-0.00374465,0.00211024,-0.00510
 766,0.01634900,-0.04677620,0.00052203,0.01848821,0.00618064,-0.0031341
 6,-0.00363718,0.00446109,-0.00447820,0.00649763,0.00176965,-0.03013043
 ,-0.01793095,-0.01560809,-0.08869073,0.03610784,-0.06331529,0.11018401
 ,-0.05058154,0.10818465,0.00368501,0.00544304,-0.02359861,-0.00219488,
 -0.00142437,-0.00034135,-0.05351844,-0.04379577,0.05938199,-0.00379093
 ,-0.01357892,0.01503221,0.00478816,-0.00164014,-0.00130455,0.00019390,
 -0.00045704,0.00345942,0.00047355,0.00039798,-0.00001741,-0.00041344,0
 .00039188,-0.00033915,-0.00001954,0.00010780,0.00011638,0.00004107,0.0
 0007934,0.00004992,-0.00007048,-0.00011788,-0.00011796,0.00000811,0.00
 020301,0.00013848,-0.00016611,-0.00015322,-0.00030482,0.00026849,-0.00
 018153,0.00036650,0.05194123,-0.00024325,0.00741204,-0.01283481,-0.001
 22912,-0.00143310,-0.00162352,-0.04129375,-0.12698215,0.13767388,-0.01
 004016,-0.01512803,0.01649631,0.00000191,0.00400629,0.00105627,-0.0024
 3543,-0.00075442,-0.00356307,0.00030954,0.00054985,-0.00004299,-0.0003
 5559,-0.00006396,0.00042078,0.00003459,0.00016434,0.00011981,-0.000011
 38,0.00001557,-0.00001562,-0.00006014,-0.00009669,-0.00005181,0.000031
 98,0.00014880,0.00007602,-0.00010603,-0.00007324,-0.00017159,0.0003130
 6,-0.00006481,0.00011913,0.05446114,0.13148761,0.00218063,0.00915631,-
 0.03086291,-0.00428014,-0.00254806,0.00022195,0.05362796,0.13580103,-0
 .23133321,-0.00105009,-0.00238051,0.00645752,-0.00151118,-0.00025918,-
 0.00052525,-0.00027382,-0.00014990,-0.00133817,-0.00008580,0.00005452,
 0.00004456,-0.00001066,-0.00004659,0.00013244,-0.00002618,0.00005793,0
 .00003912,0.00000940,0.00000304,0.00000686,-0.00003088,-0.00003367,-0.
 00003467,0.00001261,0.00004892,0.00003974,-0.00002786,-0.00002877,-0.0
 0006504,0.00007154,-0.00000346,0.00006162,-0.04857785,-0.14052753,0.25
 631263,-0.02044789,-0.01600484,0.01205701,-0.22025306,-0.07525828,0.00
 323770,0.00425844,0.00678086,-0.00433761,0.00005306,-0.00024216,0.0029
 2050,0.00053103,0.00066211,-0.00064013,-0.00044492,0.00053516,-0.00012
 010,0.00044788,-0.00000020,-0.00025040,0.00002095,0.00003391,0.0001734
 5,0.00002849,-0.00004110,-0.00004839,-0.00000666,-0.00002376,-0.000005
 24,0.00000472,0.00004745,0.00002147,0.00004354,-0.00008103,-0.00005087
 ,0.00008526,0.00011929,0.00013542,-0.00015992,-0.00012749,-0.00022315,
 0.00035864,-0.00045239,-0.00024703,0.23505780,-0.00903190,0.02074143,0
 .00363481,-0.07938920,-0.05425106,-0.00096490,0.00368733,-0.01311883,-
 0.00212674,0.00108161,-0.00138961,-0.00264668,-0.00049080,0.00104138,0
 .00040850,-0.00033419,0.00007216,0.00063067,0.00023717,0.00014558,-0.0
 0015403,-0.00003744,0.00001187,0.00006647,0.00003175,-0.00004474,-0.00
 005298,-0.00001671,-0.00001931,-0.00001079,0.00003099,0.00004718,0.000
 04578,0.00001930,-0.00007828,-0.00006858,0.00006497,0.00009695,0.00013
 646,-0.00013468,-0.00009559,-0.00019215,0.00008648,0.00073379,0.000851
 01,0.08406936,0.04605350,0.05060069,0.01364075,-0.03502071,-0.04691618
 ,-0.01998892,-0.03850001,0.01053519,0.00765892,0.00823570,-0.00184524,
 -0.00242881,0.00224362,0.00024718,-0.00003024,-0.00106931,-0.00034355,
 0.00018886,0.00013708,0.00031354,0.00011735,-0.00014801,-0.00001202,-0
 .00006902,0.00021013,0.00008350,-0.00008840,-0.00009171,-0.00005452,-0
 .00004352,-0.00003930,0.00007128,0.00009950,0.00010603,0.00001207,-0.0
 0015102,-0.00013155,0.00011191,0.00015767,0.00023196,-0.00020198,-0.00
 007092,-0.00033763,0.00002422,0.00017404,-0.00000968,-0.01271004,0.000
 87289,0.06426726,0.00083491,-0.00056238,-0.00139530,-0.00033717,-0.000
 18362,0.00036864,-0.00106384,-0.00068558,0.00204108,0.00898265,-0.0203
 1559,-0.00314242,-0.08693036,0.08752214,0.02141472,-0.00995830,0.02871
 994,0.00680261,0.00147311,0.00162278,-0.00074785,0.00014723,-0.0001745
 6,-0.00009514,-0.00010584,-0.00002757,-0.00005640,0.00007220,-0.000021
 20,0.00003511,-0.00005438,0.00001397,-0.00009730,0.00004001,-0.0000299
 6,0.00002066,0.00010922,0.00000996,0.00005207,-0.00006579,-0.00024891,
 0.00002133,-0.00133413,0.00118391,0.00026493,0.00007783,0.00003293,-0.
 00004625,0.09255660,-0.00156475,0.00052742,-0.00122768,-0.00002056,-0.
 00034037,0.00079675,0.00201139,0.00134924,0.00013626,0.00185164,-0.027
 11233,-0.00388585,0.09271238,-0.26980194,-0.04759125,0.00084557,-0.001
 65317,-0.00098421,-0.00171592,0.00111149,0.00065153,0.00027814,0.00013
 980,-0.00000103,0.00002002,-0.00005813,-0.00003854,-0.00001298,-0.0000
 0792,-0.00002102,0.00001536,0.00002742,0.00003289,-0.00000776,-0.00002
 809,-0.00003165,-0.00001519,0.00000198,0.00002569,-0.00014118,0.000054
 34,0.00004088,0.00019971,0.00018189,0.00000795,0.00009481,0.00012815,-
 0.00006391,-0.09489957,0.29438737,0.00569135,-0.00339541,-0.00241407,-
 0.00072748,0.00025900,-0.00027100,0.00005640,0.00205280,0.00488558,-0.
 00021548,0.00104022,0.00527380,0.02155459,-0.04710000,-0.04910284,0.00
 410419,-0.00772751,0.00332389,-0.00102138,-0.00020637,-0.00149880,-0.0
 0016430,0.00016679,-0.00023152,0.00003120,-0.00005153,0.00002783,0.000
 02053,-0.00000221,0.00003349,-0.00001222,0.00000803,-0.00002743,-0.000
 00575,0.00002230,0.00000786,-0.00005585,-0.00000852,-0.00004238,0.0000
 8873,0.00001935,0.00007497,-0.00383804,0.00275181,0.00091111,-0.000141
 93,-0.00050496,-0.00019870,-0.02746538,0.05241519,0.03609757,0.0002088
 5,-0.00010324,-0.00040734,-0.00058836,-0.00009536,0.00024064,-0.000042
 54,-0.00059032,0.00007426,0.00188991,0.00138129,-0.00070314,-0.0107844
 4,0.02651380,0.00592723,-0.09256094,0.09283440,0.02527538,0.01126761,-
 0.01776713,-0.00353850,-0.00067494,-0.00048556,-0.00142350,0.00045326,
 0.00043152,0.00003779,-0.00022572,0.00011530,-0.00009263,0.00012478,-0
 .00017930,0.00021386,-0.00014896,0.00025868,0.00001960,-0.00050414,-0.
 00020887,-0.00027205,0.00030315,0.00033714,0.00002561,-0.00017940,-0.0
 0004114,-0.00002411,0.00034217,0.00006523,0.00008627,-0.00428306,-0.00
 022869,0.00197769,0.09673878,-0.00006557,0.00000758,0.00020556,0.00017
 119,0.00008184,-0.00012059,0.00018041,0.00008160,-0.00013103,-0.000216
 73,0.00075638,0.00031089,-0.00179782,0.00140288,0.00060480,0.09214822,
 -0.28208337,-0.05276515,0.01079883,-0.02188488,-0.00539268,0.00182356,
 0.00007150,0.00016445,0.00012271,-0.00009807,0.00045404,-0.00007505,0.
 00009725,-0.00005984,0.00011594,-0.00005041,0.00018031,-0.00015295,0.0
 0013679,0.00003985,-0.00037765,-0.00021963,-0.00031316,0.00009298,0.00
 127073,0.00013309,0.00001539,-0.00002094,0.00002279,-0.00009674,-0.000
 07216,-0.00002595,-0.00067544,0.00070645,-0.00011882,-0.09914660,0.301
 95341,0.00022713,0.00000214,-0.00019886,-0.00024498,-0.00007782,0.0000
 9891,-0.00006794,0.00014338,0.00009626,-0.00087981,-0.00002613,-0.0013
 0558,0.00315114,-0.00730073,0.00153088,0.02454693,-0.05414292,-0.05420
 365,0.00311844,0.00257209,0.00568446,-0.00345315,0.00269220,-0.0050489
 9,0.00058271,0.00016302,-0.00006994,-0.00026251,0.00012009,-0.00002860
 ,-0.00000829,-0.00001629,0.00021341,0.00010800,0.00010815,-0.00032179,
 -0.00000572,0.00050743,0.00028947,-0.00128314,-0.00229155,0.00003331,0
 .00000387,0.00008920,0.00001020,0.00013463,0.00002510,0.00003537,0.001
 97438,-0.00015948,0.00291536,-0.02975383,0.05782483,0.04074390,-0.0000
 0018,0.00002673,0.00006840,0.00006182,0.00000393,-0.00003942,0.0000206
 6,0.00006493,0.00012205,0.00000336,0.00016766,-0.00002652,0.00111342,-
 0.00157260,-0.00184792,0.00892504,-0.01835856,-0.00255461,-0.09658374,
 0.09670611,0.02161809,-0.01023501,0.02761879,0.00501065,0.00170631,0.0
 0088115,-0.00106162,-0.00036035,-0.00016631,-0.00043620,0.00003399,-0.
 00048710,0.00019935,0.00034396,0.00065282,0.00002647,-0.00053839,0.000
 59592,-0.00044784,-0.00526022,-0.00051233,0.00228877,-0.00000477,-0.00
 001192,-0.00000220,-0.00002622,-0.00000214,-0.00000919,-0.00011871,0.0
 0056523,0.00012245,-0.00143579,-0.00300846,0.00211919,0.10283345,0.,0.
 00000542,0.00008050,0.00008082,0.00004240,-0.00005326,-0.00001748,0.00
 003669,-0.00009107,-0.00018831,0.00046074,0.00012069,0.00205655,0.0011
 1087,0.00008219,0.01232020,-0.02248520,-0.00535601,0.09525455,-0.27766
 141,-0.04003344,-0.00232911,0.00045021,0.00056067,-0.00047116,0.000407
 36,0.00007823,0.00016811,0.00017031,-0.00008935,0.00006713,-0.00005354
 ,0.00015557,-0.00000878,0.00013751,-0.00000726,-0.00011918,0.00012696,
 -0.00037093,-0.00009404,0.00036280,0.00011907,0.00005586,0.00000651,0.
 00000447,-0.00005218,-0.00003368,-0.00002098,-0.00123825,0.00036278,0.
 00037196,-0.00316155,-0.00229147,-0.00018563,-0.10257932,0.29855280,0.
 00004001,0.00007789,-0.00038618,-0.00009100,-0.00003315,0.00019526,0.0
 0039986,0.00009872,0.00086234,-0.00046419,-0.00038241,-0.00021754,-0.0
 0090182,0.00136562,-0.00630198,-0.00156817,0.00017201,0.00599126,0.024
 25443,-0.03832141,-0.04822603,-0.00126078,-0.00532585,0.00288002,-0.00
 010396,-0.00056040,-0.00033373,-0.00020670,0.00006570,-0.00012202,0.00
 000541,-0.00006166,0.00006905,0.00009663,0.00027159,-0.00016072,-0.000
 09883,-0.00007896,-0.00010103,0.00284696,-0.00124177,0.00162067,-0.000
 06718,-0.00009545,-0.00004194,0.00003458,-0.00000519,-0.00001093,-0.00
 000950,-0.00010140,0.00023794,0.00251194,-0.00077140,0.00946304,-0.025
 45851,0.04465139,0.03469096,0.00002731,0.00005401,0.00004429,0.0000283
 1,0.00001177,-0.00000582,-0.00005108,-0.00005360,-0.00001259,0.0000671
 9,-0.00002140,-0.00000674,-0.00016255,0.00006300,-0.00010475,0.0000906
 1,0.00025456,-0.00014707,0.00108307,0.00019725,-0.00014862,0.01066824,
 -0.00977864,0.00883074,-0.09851804,0.06939481,-0.06587021,-0.00658970,
 0.02433802,-0.01702057,-0.00271217,-0.00336998,-0.00341728,-0.00009474
 ,-0.00102758,0.00075017,-0.00069394,-0.00028814,-0.00120032,0.00004923
 ,-0.00338204,0.00067867,0.00003219,0.00001663,0.00000902,-0.00001201,-
 0.00001548,-0.00002829,-0.00000032,-0.00000580,0.00000226,0.00013333,-
 0.00002463,0.00014333,-0.00018063,0.00023021,0.00007284,0.09693351,-0.
 00006495,-0.00009054,-0.00012176,-0.00007641,-0.00001488,0.00002807,0.
 00015708,0.00015097,0.00007362,-0.00028786,-0.00016386,0.00004498,0.00
 055049,-0.00005032,-0.00014235,-0.00139447,-0.00026600,0.00010643,0.00
 256087,0.00033008,-0.00147653,0.00672499,-0.02006211,0.01298077,0.0811
 3545,-0.19238794,0.11906567,-0.00718408,0.00273508,-0.00369605,-0.0019
 4454,0.00402390,0.00253030,-0.00176373,-0.00227984,-0.00077214,0.00129
 036,-0.00118268,0.00188004,-0.00375766,0.00244150,0.00182913,-0.000054
 32,-0.00005298,-0.00001786,0.00003967,0.00002607,0.00005762,-0.0000207
 3,0.00001788,0.00001040,-0.00000572,0.00006483,0.00002792,-0.00050784,
 0.00026273,0.00032956,-0.07819489,0.20572902,-0.00002515,-0.00004755,-
 0.00006796,-0.00004082,-0.00001600,0.00002076,0.00006449,0.00006139,0.
 00002369,-0.00009473,-0.00005542,0.00001660,0.00021408,-0.00001539,-0.
 00002138,-0.00017731,-0.00026043,0.00004477,0.00007316,0.00029245,-0.0
 0051251,-0.00785313,-0.00624910,0.00290718,-0.05950280,0.12041329,-0.1
 2630284,-0.00729143,0.00631401,-0.00563571,-0.00369651,0.00510514,0.00
 827563,-0.00163998,-0.00262429,-0.00262401,0.00252214,-0.00003756,0.00
 449787,-0.00254639,0.00895778,-0.00169416,-0.00003134,-0.00001732,-0.0
 0000811,0.00002022,0.00001745,0.00002838,0.00002916,0.00000201,0.00000
 461,-0.00014608,-0.00008303,-0.00000589,0.00041683,-0.00000890,-0.0002
 0356,0.07587350,-0.12985902,0.12529141,-0.00000689,-0.00000404,-0.0000
 0712,-0.00000649,0.00000045,0.00000006,0.00000699,0.00000199,0.0000122
 3,-0.00001451,0.00002247,-0.00001026,-0.00003227,-0.00002757,-0.000032
 30,-0.00018334,0.00003270,0.00016898,0.00017592,-0.00046915,0.00012569
 ,-0.00280847,-0.00231055,-0.00401133,-0.01067454,-0.02625690,0.0039151
 4,-0.11722661,-0.11840110,0.02354302,0.01059814,0.01977553,-0.00546889
 ,-0.00129339,0.00053275,-0.00529348,0.00194096,-0.00025312,0.00020228,
 -0.00128562,0.00110256,0.00044017,-0.00000143,-0.00000709,-0.00000363,
 0.00000402,0.00000237,0.00000769,-0.00001318,0.00000113,0.00000616,0.0
 0001111,0.00005368,0.00003374,-0.00011080,0.00004788,-0.00001234,-0.00
 021631,0.00108187,0.00170956,0.12222183,-0.00002985,-0.00004095,-0.000
 04057,-0.00002304,-0.00000804,0.00000586,0.00005218,0.00004785,0.00002
 977,-0.00007937,0.00000063,0.00000904,0.00009143,-0.00011592,-0.000027
 51,-0.00030255,0.00015792,0.00008298,-0.00009336,-0.00103429,-0.000122
 96,-0.00209041,0.00380128,0.00235139,-0.00112153,-0.00248560,0.0032464
 3,-0.12097135,-0.24070305,0.04957707,-0.00121126,-0.02330772,0.0104074
 6,0.00023808,0.00351933,0.00527136,-0.00195483,-0.00007477,-0.00061207
 ,0.00104525,-0.00003875,-0.00004365,-0.00002280,-0.00001978,-0.0000097
 5,0.00000861,0.00001170,0.00002372,0.00000282,0.00000551,-0.00000110,0
 .00000439,-0.00002290,-0.00001304,0.00004362,-0.00000796,-0.00001222,0
 .00072651,-0.00003078,-0.00179868,0.12492945,0.26058553,-0.00002138,-0
 .00001601,-0.00003252,-0.00001331,-0.00000791,0.00001276,0.00003371,0.
 00001466,0.00002763,-0.00007037,-0.00000107,0.00001188,-0.00000250,-0.
 00014843,-0.00007796,-0.00046042,0.00020423,0.00010642,-0.00030372,-0.
 00173754,0.00029815,-0.00524574,0.00353991,0.00520409,-0.00671272,-0.0
 0967767,0.00688232,0.02388266,0.04715543,-0.05740103,0.00469069,0.0239
 1487,-0.01370460,-0.00025499,0.00445308,0.00258102,-0.00297860,0.00055
 973,0.00018963,0.00068730,0.00073452,-0.00122406,-0.00000930,-0.000015
 14,-0.00000747,0.00000423,0.00000780,0.00001072,0.00001916,0.00000436,
 -0.00000277,-0.00001365,-0.00006455,-0.00003234,0.00010689,-0.00001281
 ,-0.00002563,0.00157602,-0.00195045,-0.00304354,-0.01579981,-0.0678788
 2,0.05993329,-0.00005525,-0.00009024,-0.00004387,-0.00003659,-0.000011
 29,-0.00000900,0.00009654,0.00010381,0.00003453,-0.00011669,0.00000175
 ,0.00002463,0.00019335,-0.00010126,-0.00002531,-0.00016776,-0.00005916
 ,0.00007695,0.00053292,0.00014484,-0.00010387,-0.00075688,0.00555540,-
 0.00278029,-0.00462455,-0.00426098,-0.00043244,0.01523765,-0.00155449,
 -0.00314967,-0.00329813,-0.00040525,0.00089934,-0.10783065,0.05286659,
 -0.10432607,-0.00723527,-0.00222337,-0.01925596,0.00895812,-0.00455447
 ,0.00326826,-0.00005800,-0.00003581,-0.00001427,0.00001597,0.00002093,
 0.00004109,-0.00001126,0.00000897,-0.00000596,-0.00000417,-0.00000087,
 0.00001747,-0.00008533,-0.00004704,-0.00002686,-0.00031117,0.00117992,
 0.00231457,-0.00082591,0.00046698,0.00029734,0.10088488,-0.00003151,-0
 .00005478,-0.00005312,-0.00003394,-0.00001155,0.00000697,0.00007759,0.
 00007586,0.00004366,-0.00010543,-0.00004755,0.00000922,0.00020618,-0.0
 0002112,-0.00004152,-0.00026665,-0.00012409,0.00002838,0.00079318,0.00
 044799,0.00048825,-0.00166299,0.00017074,0.00007542,0.00047345,-0.0011
 5415,-0.00002062,-0.00099215,-0.00055472,0.00107938,0.01705742,-0.0294
 3612,0.03041381,0.03981433,-0.07715358,0.06626056,-0.01116777,0.008550
 16,-0.01492536,0.00109295,-0.00132266,-0.00090917,-0.00003886,-0.00002
 371,-0.00000815,0.00001656,0.00001590,0.00002869,-0.00000742,0.0000016
 7,-0.00000265,0.00000014,0.00001713,-0.00002304,-0.00014434,0.00001382
 ,-0.00001295,0.00058692,0.00025208,-0.00007890,0.00047086,-0.00060927,
 0.00044138,-0.04672511,0.10130144,-0.00005181,-0.00007062,-0.00005011,
 -0.00003701,-0.00001575,-0.00000015,0.00009304,0.00008543,0.00004774,-
 0.00010564,-0.00000631,0.00000969,0.00017717,-0.00006303,-0.00005285,-
 0.00025138,0.00007164,0.00000142,0.00036672,-0.00002617,0.00059565,-0.
 00058169,-0.00335939,0.00140988,0.00236846,0.00265528,-0.00058595,-0.0
 0822162,-0.00115896,0.00366854,0.00425154,0.00829298,0.00108819,-0.110
 00461,0.06813143,-0.22282097,-0.00695579,0.00944862,-0.00295293,-0.005
 32119,0.00080215,-0.00389438,-0.00004739,-0.00003538,-0.00001412,0.000
 01723,0.00002289,0.00003990,-0.00001522,0.00000252,-0.00000576,0.00001
 784,0.00003636,-0.00004187,-0.00010939,0.00005526,0.00003461,0.0001826
 9,-0.00040629,-0.00156253,0.00042260,-0.00023212,0.00007947,0.12375757
 ,-0.08372643,0.22522919,-0.00003564,-0.00004780,-0.00006398,-0.0000404
 4,-0.00001966,0.00001594,0.00008561,0.00006727,0.00005764,-0.00011028,
 -0.00003883,-0.00000289,0.00021314,0.00000010,0.00000052,-0.00031762,-
 0.00041229,0.00008831,0.00150147,0.00039210,0.00065464,-0.00056876,0.0
 0329468,-0.00081659,-0.00148272,-0.00056182,-0.00304375,0.00107080,-0.
 00117356,0.00051637,-0.00187226,0.00082211,-0.00129509,0.00812215,-0.0
 1515483,-0.00705949,-0.09597357,0.10528756,0.04342286,-0.01880956,0.02
 326396,0.00833840,-0.00003883,-0.00002957,-0.00001039,0.00002091,0.000
 02214,0.00003264,-0.00001743,0.00000803,-0.00000176,-0.00004050,0.0001
 1562,-0.00020157,-0.00010187,0.00002509,0.00000719,0.00042968,0.000536
 49,-0.00019207,-0.00025921,0.00029101,0.00058850,-0.00050182,0.0005865
 8,0.00004789,0.10872673,0.00000487,0.00003789,-0.00002310,0.00003816,0
 .00001231,0.00002754,0.00001713,0.00000553,0.00004155,-0.00007243,-0.0
 0018364,0.00000533,0.00020096,0.00026765,-0.00014710,-0.00036288,-0.00
 095077,0.00001027,0.00230631,0.00074669,0.00161426,0.00022910,0.005733
 41,-0.00295026,-0.00241699,-0.00053636,-0.00322458,0.00156527,-0.00177
 728,0.00107672,-0.00069281,0.00286237,-0.00239598,0.00382516,-0.013971
 66,-0.00672824,0.11210576,-0.22952204,-0.08915739,0.00077076,-0.006415
 46,-0.00118127,0.00002319,0.00000710,0.00000546,-0.00002761,-0.0000223
 8,-0.00003831,-0.00001768,-0.00000143,0.00000122,0.00007155,0.00009545
 ,-0.00003892,0.00002405,0.00002332,-0.00002828,0.00028850,0.00054779,-
 0.00001191,-0.00032618,0.00037003,0.00048044,-0.00027984,-0.00033349,-
 0.00050413,-0.11727437,0.24300497,0.00003408,0.00002704,0.00004413,-0.
 00001709,-0.00000452,-0.00001406,-0.00008751,-0.00006750,-0.00007284,0
 .00014774,0.00015865,-0.00001787,-0.00030084,-0.00019923,0.00014991,0.
 00051415,0.00094728,-0.00009654,-0.00251387,-0.00026380,-0.00209422,-0
 .00267692,-0.00454006,0.00204194,0.00253824,-0.00035423,0.00328461,-0.
 00083303,0.00249348,-0.00222642,-0.00305898,-0.00413792,-0.00047892,0.
 01193032,-0.01097527,0.00194535,0.03409594,-0.09670482,-0.08459566,0.0
 0209034,0.01042968,0.00849777,0.00002198,0.00001698,0.00000283,0.00001
 846,0.00000718,0.00001139,0.00002690,-0.00001002,0.00000126,-0.0000332
 9,-0.00013079,0.00014295,-0.00010570,-0.00005035,0.00008615,-0.0002012
 6,-0.00052206,0.00057132,0.00005185,-0.00021257,0.00021453,-0.00055816
 ,0.00092619,-0.00022263,-0.04108333,0.10316665,0.07282502\\-0.00000364
 ,-0.00000809,0.00001335,-0.00001329,-0.00000230,-0.00000333,0.00000267
 ,0.00000732,-0.00000964,0.00000388,0.00001500,-0.00002554,-0.00001208,
 0.00000262,0.00002949,0.00001709,0.00000757,-0.00001468,-0.00002238,-0
 .00000412,0.00001286,-0.00001006,0.00000690,-0.00002687,0.,-0.00000348
 ,0.00000160,0.00001244,-0.00000368,0.00002021,-0.00000357,0.00000182,-
 0.00002190,0.00000702,0.00000510,-0.00000185,-0.00000521,-0.00000818,0
 .00000230,0.00000860,-0.00000397,0.00001799,0.00000040,-0.00000541,-0.
 00000553,0.00000993,-0.00000375,0.00000548,0.00000067,-0.00000148,-0.0
 0000267,0.00000637,-0.00000384,-0.00000136,0.00000254,-0.00000134,0.00
 000629,0.00000215,0.00000065,-0.00000087,-0.00000272,0.00000083,0.0000
 0130,0.00000022,0.00000159,0.00000295,-0.00000104,0.00000022,0.0000004
 3\\\@


 LENDING MONEY TO FRIENDS CAUSES THEM TO LOSE THEIR MEMORIES.

    --  PETER'S THEORY OF RECIPROCAL INHIBITION OF FISCAL RECALL
 Job cpu time:       0 days  3 hours 47 minutes  7.0 seconds.
 Elapsed time:       0 days  0 hours 56 minutes 47.3 seconds.
 File lengths (MBytes):  RWF=    326 Int=      0 D2E=      0 Chk=     16 Scr=      1
 Normal termination of Gaussian 16 at Sat May 20 00:20:23 2023.
### All Done ###
