### Starting Gaussian ###
 Entering Gaussian System, Link 0=g16
 Initial command:
 /cluster/software/gaussian/gaussian-16-A.03/avx2/g16/l1.exe "/local/scratch/linjian/Gau-5539.inp" -scrdir="/local/scratch/linjian/"
 Entering Link 1 = /cluster/software/gaussian/gaussian-16-A.03/avx2/g16/l1.exe PID=      5540.
  
 Copyright (c) 1988,1990,1992,1993,1995,1998,2003,2009,2016,
            Gaussian, Inc.  All Rights Reserved.
  
 This is part of the Gaussian(R) 16 program.  It is based on
 the Gaussian(R) 09 system (copyright 2009, Gaussian, Inc.),
 the Gaussian(R) 03 system (copyright 2003, Gaussian, Inc.),
 the Gaussian(R) 98 system (copyright 1998, Gaussian, Inc.),
 the Gaussian(R) 94 system (copyright 1995, Gaussian, Inc.),
 the Gaussian 92(TM) system (copyright 1992, Gaussian, Inc.),
 the Gaussian 90(TM) system (copyright 1990, Gaussian, Inc.),
 the Gaussian 88(TM) system (copyright 1988, Gaussian, Inc.),
 the Gaussian 86(TM) system (copyright 1986, Carnegie Mellon
 University), and the Gaussian 82(TM) system (copyright 1983,
 Carnegie Mellon University). Gaussian is a federally registered
 trademark of Gaussian, Inc.
  
 This software contains proprietary and confidential information,
 including trade secrets, belonging to Gaussian, Inc.
  
 This software is provided under written license and may be
 used, copied, transmitted, or stored only in accord with that
 written license.
  
 The following legend is applicable only to US Government
 contracts under FAR:
  
                    RESTRICTED RIGHTS LEGEND
  
 Use, reproduction and disclosure by the US Government is
 subject to restrictions as set forth in subparagraphs (a)
 and (c) of the Commercial Computer Software - Restricted
 Rights clause in FAR 52.227-19.
  
 Gaussian, Inc.
 340 Quinnipiac St., Bldg. 40, Wallingford CT 06492
  
  
 ---------------------------------------------------------------
 Warning -- This program may not be used in any manner that
 competes with the business of Gaussian, Inc. or will provide
 assistance to any competitor of Gaussian, Inc.  The licensee
 of this program is prohibited from giving any competitor of
 Gaussian, Inc. access to this program.  By using this program,
 the user acknowledges that Gaussian, Inc. is engaged in the
 business of creating and licensing software in the field of
 computational chemistry and represents and warrants to the
 licensee that it is not a competitor of Gaussian, Inc. and that
 it will not use this program in any manner prohibited above.
 ---------------------------------------------------------------
  

 Cite this work as:
 Gaussian 16, Revision A.03,
 M. J. Frisch, G. W. Trucks, H. B. Schlegel, G. E. Scuseria, 
 M. A. Robb, J. R. Cheeseman, G. Scalmani, V. Barone, 
 G. A. Petersson, H. Nakatsuji, X. Li, M. Caricato, A. V. Marenich, 
 J. Bloino, B. G. Janesko, R. Gomperts, B. Mennucci, H. P. Hratchian, 
 J. V. Ortiz, A. F. Izmaylov, J. L. Sonnenberg, D. Williams-Young, 
 F. Ding, F. Lipparini, F. Egidi, J. Goings, B. Peng, A. Petrone, 
 T. Henderson, D. Ranasinghe, V. G. Zakrzewski, J. Gao, N. Rega, 
 G. Zheng, W. Liang, M. Hada, M. Ehara, K. Toyota, R. Fukuda, 
 J. Hasegawa, M. Ishida, T. Nakajima, Y. Honda, O. Kitao, H. Nakai, 
 T. Vreven, K. Throssell, J. A. Montgomery, Jr., J. E. Peralta, 
 F. Ogliaro, M. J. Bearpark, J. J. Heyd, E. N. Brothers, K. N. Kudin, 
 V. N. Staroverov, T. A. Keith, R. Kobayashi, J. Normand, 
 K. Raghavachari, A. P. Rendell, J. C. Burant, S. S. Iyengar, 
 J. Tomasi, M. Cossi, J. M. Millam, M. Klene, C. Adamo, R. Cammi, 
 J. W. Ochterski, R. L. Martin, K. Morokuma, O. Farkas, 
 J. B. Foresman, and D. J. Fox, Gaussian, Inc., Wallingford CT, 2016.
 
 ******************************************
 Gaussian 16:  ES64L-G16RevA.03 25-Dec-2016
                16-May-2023 
 ******************************************
 %chk=OdC[C]1CdCCqdSrSCdCNdC1.chk
 %NProcShared=20
 Will use up to   20 processors via shared memory.
 -----------------------------
 # opt freq b3lyp/6-31g(2df,p)
 -----------------------------
 1/18=20,19=15,26=3,38=1/1,3;
 2/9=110,12=2,17=6,18=5,40=1/2;
 3/5=1,6=6,7=104,11=2,25=1,30=1,71=1,74=-5/1,2,3;
 4//1;
 5/5=2,38=5/2;
 6/7=2,8=2,9=2,10=2,28=1/1;
 7//1,2,3,16;
 1/18=20,19=15,26=3/3(2);
 2/9=110/2;
 99//99;
 2/9=110/2;
 3/5=1,6=6,7=104,11=2,25=1,30=1,71=1,74=-5/1,2,3;
 4/5=5,16=3,69=1/1;
 5/5=2,38=5/2;
 7//1,2,3,16;
 1/18=20,19=15,26=3/3(-5);
 2/9=110/2;
 6/7=2,8=2,9=2,10=2,19=2,28=1/1;
 99/9=1/99;
 -------------------
 Title Card Required
 -------------------
 Symbolic Z-matrix:
 Charge =  0 Multiplicity = 2
 O                     1.95962  -1.05909   0.43286 
 C                     3.08907  -1.03888   0.00674 
 C                     4.43046  -1.40991   0.78279 
 C                     4.91668  -0.1357    1.18776 
 C                     5.63716  -0.16931   2.24742 
 C                     7.0361    0.13934   1.84949 
 S                     7.64104   0.54375   0.28827 
 S                     8.09457  -0.29686   3.15895 
 C                     8.88035  -1.47782   2.20548 
 C                     8.20902  -2.54048   1.70605 
 N                     6.86147  -2.9399    1.43548 
 C                     5.5962   -2.66177   1.07622 
 H                     3.26788  -0.22214  -0.76473 
 H                     5.07232   0.47616   0.28257 
 H                     5.43468  -0.96794   3.0001 
 H                     9.74724  -1.07364   1.63926 
 H                     8.81066  -3.36509   2.17761 
 H                     5.04311  -3.61762   1.07038 
 

 GradGradGradGradGradGradGradGradGradGradGradGradGradGradGradGradGradGrad
 Berny optimization.
 Initialization pass.
                           ----------------------------
                           !    Initial Parameters    !
                           ! (Angstroms and Degrees)  !
 --------------------------                            --------------------------
 ! Name  Definition              Value          Derivative Info.                !
 --------------------------------------------------------------------------------
 ! R1    R(1,2)                  1.2073         estimate D2E/DX2                !
 ! R2    R(2,3)                  1.5935         estimate D2E/DX2                !
 ! R3    R(2,13)                 1.1376         estimate D2E/DX2                !
 ! R4    R(3,4)                  1.4227         estimate D2E/DX2                !
 ! R5    R(3,12)                 1.7356         estimate D2E/DX2                !
 ! R6    R(4,5)                  1.2818         estimate D2E/DX2                !
 ! R7    R(4,14)                 1.1036         estimate D2E/DX2                !
 ! R8    R(5,6)                  1.4868         estimate D2E/DX2                !
 ! R9    R(5,15)                 1.1159         estimate D2E/DX2                !
 ! R10   R(6,7)                  1.7225         estimate D2E/DX2                !
 ! R11   R(6,8)                  1.7393         estimate D2E/DX2                !
 ! R12   R(8,9)                  1.7092         estimate D2E/DX2                !
 ! R13   R(9,10)                 1.3525         estimate D2E/DX2                !
 ! R14   R(9,16)                 1.1115         estimate D2E/DX2                !
 ! R15   R(10,11)                1.4313         estimate D2E/DX2                !
 ! R16   R(10,17)                1.1244         estimate D2E/DX2                !
 ! R17   R(11,12)                1.3444         estimate D2E/DX2                !
 ! R18   R(12,18)                1.1044         estimate D2E/DX2                !
 ! A1    A(1,2,3)              127.7128         estimate D2E/DX2                !
 ! A2    A(1,2,13)             113.4783         estimate D2E/DX2                !
 ! A3    A(3,2,13)             111.4145         estimate D2E/DX2                !
 ! A4    A(2,3,4)              102.5787         estimate D2E/DX2                !
 ! A5    A(2,3,12)             144.6559         estimate D2E/DX2                !
 ! A6    A(4,3,12)             111.6134         estimate D2E/DX2                !
 ! A7    A(3,4,5)              113.8238         estimate D2E/DX2                !
 ! A8    A(3,4,14)             108.1364         estimate D2E/DX2                !
 ! A9    A(5,4,14)             127.8294         estimate D2E/DX2                !
 ! A10   A(4,5,6)              107.587          estimate D2E/DX2                !
 ! A11   A(4,5,15)             118.3173         estimate D2E/DX2                !
 ! A12   A(6,5,15)             119.9865         estimate D2E/DX2                !
 ! A13   A(5,6,7)              128.4453         estimate D2E/DX2                !
 ! A14   A(5,6,8)              108.604          estimate D2E/DX2                !
 ! A15   A(7,6,8)              121.8384         estimate D2E/DX2                !
 ! A16   A(6,8,9)               91.8955         estimate D2E/DX2                !
 ! A17   A(8,9,10)             121.3772         estimate D2E/DX2                !
 ! A18   A(8,9,16)             113.0474         estimate D2E/DX2                !
 ! A19   A(10,9,16)            118.9931         estimate D2E/DX2                !
 ! A20   A(9,10,11)            139.1441         estimate D2E/DX2                !
 ! A21   A(9,10,17)             98.9604         estimate D2E/DX2                !
 ! A22   A(11,10,17)           112.2335         estimate D2E/DX2                !
 ! A23   A(10,11,12)           151.5065         estimate D2E/DX2                !
 ! A24   A(3,12,11)            145.7471         estimate D2E/DX2                !
 ! A25   A(3,12,18)            106.6794         estimate D2E/DX2                !
 ! A26   A(11,12,18)           107.0801         estimate D2E/DX2                !
 ! D1    D(1,2,3,4)            -97.5185         estimate D2E/DX2                !
 ! D2    D(1,2,3,12)            97.2359         estimate D2E/DX2                !
 ! D3    D(13,2,3,4)            50.0694         estimate D2E/DX2                !
 ! D4    D(13,2,3,12)         -115.1762         estimate D2E/DX2                !
 ! D5    D(2,3,4,5)            152.7688         estimate D2E/DX2                !
 ! D6    D(2,3,4,14)           -59.0065         estimate D2E/DX2                !
 ! D7    D(12,3,4,5)           -36.3492         estimate D2E/DX2                !
 ! D8    D(12,3,4,14)          111.8755         estimate D2E/DX2                !
 ! D9    D(2,3,12,11)          155.5308         estimate D2E/DX2                !
 ! D10   D(2,3,12,18)          -34.4878         estimate D2E/DX2                !
 ! D11   D(4,3,12,11)           -8.9619         estimate D2E/DX2                !
 ! D12   D(4,3,12,18)          161.0196         estimate D2E/DX2                !
 ! D13   D(3,4,5,6)            110.7713         estimate D2E/DX2                !
 ! D14   D(3,4,5,15)           -29.2574         estimate D2E/DX2                !
 ! D15   D(14,4,5,6)           -29.914          estimate D2E/DX2                !
 ! D16   D(14,4,5,15)         -169.9426         estimate D2E/DX2                !
 ! D17   D(4,5,6,7)              2.4576         estimate D2E/DX2                !
 ! D18   D(4,5,6,8)           -165.4784         estimate D2E/DX2                !
 ! D19   D(15,5,6,7)           141.6947         estimate D2E/DX2                !
 ! D20   D(15,5,6,8)           -26.2413         estimate D2E/DX2                !
 ! D21   D(5,6,8,9)            116.8545         estimate D2E/DX2                !
 ! D22   D(7,6,8,9)            -52.0361         estimate D2E/DX2                !
 ! D23   D(6,8,9,10)           -62.028          estimate D2E/DX2                !
 ! D24   D(6,8,9,16)            89.1878         estimate D2E/DX2                !
 ! D25   D(8,9,10,11)           18.9006         estimate D2E/DX2                !
 ! D26   D(8,9,10,17)         -121.2634         estimate D2E/DX2                !
 ! D27   D(16,9,10,11)        -130.6643         estimate D2E/DX2                !
 ! D28   D(16,9,10,17)          89.1717         estimate D2E/DX2                !
 ! D29   D(9,10,11,12)          33.0876         estimate D2E/DX2                !
 ! D30   D(17,10,11,12)        169.9619         estimate D2E/DX2                !
 ! D31   D(10,11,12,3)         -11.2031         estimate D2E/DX2                !
 ! D32   D(10,11,12,18)        178.8369         estimate D2E/DX2                !
 --------------------------------------------------------------------------------
 Trust Radius=3.00D-01 FncErr=1.00D-07 GrdErr=1.00D-06 EigMax=2.50D+02 EigMin=1.00D-04
 Number of steps in this run=     86 maximum allowed number of steps=    108.
 GradGradGradGradGradGradGradGradGradGradGradGradGradGradGradGradGradGrad

                          Input orientation:                          
 ---------------------------------------------------------------------
 Center     Atomic      Atomic             Coordinates (Angstroms)
 Number     Number       Type             X           Y           Z
 ---------------------------------------------------------------------
      1          8           0        1.959620   -1.059090    0.432860
      2          6           0        3.089070   -1.038880    0.006740
      3          6           0        4.430460   -1.409910    0.782790
      4          6           0        4.916680   -0.135700    1.187760
      5          6           0        5.637160   -0.169310    2.247420
      6          6           0        7.036100    0.139340    1.849490
      7         16           0        7.641040    0.543750    0.288270
      8         16           0        8.094570   -0.296860    3.158950
      9          6           0        8.880350   -1.477820    2.205480
     10          6           0        8.209020   -2.540480    1.706050
     11          7           0        6.861470   -2.939900    1.435480
     12          6           0        5.596200   -2.661770    1.076220
     13          1           0        3.267880   -0.222140   -0.764730
     14          1           0        5.072320    0.476160    0.282570
     15          1           0        5.434680   -0.967940    3.000100
     16          1           0        9.747240   -1.073640    1.639260
     17          1           0        8.810660   -3.365090    2.177610
     18          1           0        5.043110   -3.617620    1.070380
 ---------------------------------------------------------------------
                    Distance matrix (angstroms):
                    1          2          3          4          5
     1  O    0.000000
     2  C    1.207329   0.000000
     3  C    2.520035   1.593501   0.000000
     4  C    3.188531   2.355993   1.422681   0.000000
     5  C    4.196265   3.502793   2.267235   1.281835   0.000000
     6  C    5.404972   4.512535   3.213625   2.237292   1.486824
     7  S    5.904959   4.827464   3.790668   2.948368   2.891757
     8  S    6.756491   5.961716   4.506741   3.743067   2.624123
     9  C    7.156397   6.210157   4.672278   4.306706   3.497462
    10  C    6.547559   5.599674   4.050693   4.109878   3.539773
    11  N    5.345169   4.459392   2.945621   3.421566   3.135977
    12  C    4.025818   3.172264   1.735570   2.618247   2.754223
    13  H    1.961186   1.137631   2.270949   2.556996   3.832666
    14  H    3.473972   2.510918   2.054133   1.103615   2.143901
    15  H    4.321466   3.803567   2.473916   2.060467   1.115946
    16  H    7.880523   6.855476   5.395810   4.941447   4.252109
    17  H    7.436299   6.546795   4.995438   5.154788   4.504330
    18  H    4.057144   3.405804   2.309119   3.486191   3.691769
                    6          7          8          9         10
     6  C    0.000000
     7  S    1.722471   0.000000
     8  S    1.739343   3.025412   0.000000
     9  C    2.478547   3.049316   1.709158   0.000000
    10  C    2.928780   3.441682   2.675415   1.352539   0.000000
    11  N    3.111851   3.749618   3.387705   2.608918   1.431306
    12  C    3.243066   3.882988   4.021494   3.669143   2.690395
    13  H    4.600467   4.562886   6.220754   6.472920   5.991187
    14  H    2.534782   2.569615   4.243244   4.692197   4.578788
    15  H    2.261530   3.808839   2.747835   3.572680   3.441571
    16  H    2.977549   2.979464   2.375745   1.111515   2.126547
    17  H    3.941796   4.496293   3.299977   1.888762   1.124420
    18  H    4.323629   4.967689   4.970008   4.537798   3.404011
                   11         12         13         14         15
    11  N    0.000000
    12  C    1.344371   0.000000
    13  H    5.014083   3.842130   0.000000
    14  H    4.024888   3.278862   2.200105   0.000000
    15  H    2.893509   2.568358   4.407401   3.098661   0.000000
    16  H    3.442691   4.479989   6.963212   5.108558   4.523409
    17  H    2.128588   3.469938   7.018398   5.685206   4.221381
    18  H    1.974598   1.104351   4.248336   4.168997   3.301204
                   16         17         18
    16  H    0.000000
    17  H    2.533327   0.000000
    18  H    5.378131   3.934992   0.000000
 Stoichiometry    C8H6NOS2(2)
 Framework group  C1[X(C8H6NOS2)]
 Deg. of freedom    48
 Full point group                 C1      NOp   1
 Largest Abelian subgroup         C1      NOp   1
 Largest concise Abelian subgroup C1      NOp   1
                         Standard orientation:                         
 ---------------------------------------------------------------------
 Center     Atomic      Atomic             Coordinates (Angstroms)
 Number     Number       Type             X           Y           Z
 ---------------------------------------------------------------------
      1          8           0        4.459380    0.005903    0.473692
      2          6           0        3.524877   -0.103105   -0.282922
      3          6           0        2.029681    0.402777   -0.064481
      4          6           0        1.368354   -0.772074    0.389825
      5          6           0        0.351401   -0.538683    1.134430
      6          6           0       -0.863491   -0.926871    0.370236
      7         16           0       -0.962425   -1.629010   -1.199516
      8         16           0       -2.256885   -0.252258    1.163119
      9          6           0       -2.630193    0.717411   -0.193939
     10          6           0       -1.775658    1.667569   -0.637029
     11          7           0       -0.391630    2.015319   -0.526693
     12          6           0        0.904247    1.680667   -0.400038
     13          1           0        3.554622   -1.054600   -0.905799
     14          1           0        1.474193   -1.548255   -0.387547
     15          1           0        0.349005    0.391556    1.750860
     16          1           0       -3.293471    0.206192   -0.924817
     17          1           0       -2.448167    2.564107   -0.546076
     18          1           0        1.483832    2.620700   -0.403447
 ---------------------------------------------------------------------
 Rotational constants (GHZ):           1.3072302           0.4866856           0.4332583
 Standard basis: 6-31G(2df,p) (6D, 7F)
 There are   410 symmetry adapted cartesian basis functions of A   symmetry.
 There are   374 symmetry adapted basis functions of A   symmetry.
   374 basis functions,   618 primitive gaussians,   410 cartesian basis functions
    51 alpha electrons       50 beta electrons
       nuclear repulsion energy       826.1178270693 Hartrees.
 NAtoms=   18 NActive=   18 NUniq=   18 SFac= 1.00D+00 NAtFMM=   60 NAOKFM=F Big=F
 Integral buffers will be    131072 words long.
 Raffenetti 2 integral format.
 Two-electron integral symmetry is turned on.
 One-electron integrals computed using PRISM.
 PrsmSu:  requested number of processors reduced to:  13 ShMem   1 Linda.
 NBasis=   374 RedAO= T EigKep=  3.47D-04  NBF=   374
 NBsUse=   374 1.00D-06 EigRej= -1.00D+00 NBFU=   374
 ExpMin= 1.17D-01 ExpMax= 2.19D+04 ExpMxC= 3.30D+03 IAcc=3 IRadAn=         5 AccDes= 0.00D+00
 Harris functional with IExCor=  402 and IRadAn=       5 diagonalized for initial guess.
 HarFok:  IExCor=  402 AccDes= 0.00D+00 IRadAn=         5 IDoV= 1 UseB2=F ITyADJ=14
 ICtDFT=  3500011 ScaDFX=  1.000000  1.000000  1.000000  1.000000
 FoFCou: FMM=F IPFlag=           0 FMFlag=      100000 FMFlg1=           0
         NFxFlg=           0 DoJE=T BraDBF=F KetDBF=T FulRan=T
         wScrn=  0.000000 ICntrl=       500 IOpCl=  0 I1Cent=   200000004 NGrid=           0
         NMat0=    1 NMatS0=      1 NMatT0=    0 NMatD0=    1 NMtDS0=    0 NMtDT0=    0
 Petite list used in FoFCou.
 Initial guess <Sx>= 0.0000 <Sy>= 0.0000 <Sz>= 0.5000 <S**2>= 0.7500 S= 0.5000
 Requested convergence on RMS density matrix=1.00D-08 within 128 cycles.
 Requested convergence on MAX density matrix=1.00D-06.
 Requested convergence on             energy=1.00D-06.
 No special actions if energy rises.
 Integral accuracy reduced to 1.0D-05 until final iterations.
 EnCoef did     2 forward-backward iterations
 EnCoef did     2 forward-backward iterations
 Initial convergence to 1.0D-05 achieved.  Increase integral accuracy.
 SCF Done:  E(UB3LYP) =  -1234.44526641     A.U. after   29 cycles
            NFock= 29  Conv=0.72D-08     -V/T= 2.0047
 <Sx>= 0.0000 <Sy>= 0.0000 <Sz>= 0.5000 <S**2>= 1.0416 S= 0.6365
 <L.S>=  0.00000000000    
 Annihilation of the first spin contaminant:
 S**2 before annihilation     1.0416,   after     0.7795

 **********************************************************************

            Population analysis using the SCF density.

 **********************************************************************

 Orbital symmetries:
 Alpha Orbitals:
       Occupied  (A) (A) (A) (A) (A) (A) (A) (A) (A) (A) (A) (A)
                 (A) (A) (A) (A) (A) (A) (A) (A) (A) (A) (A) (A)
                 (A) (A) (A) (A) (A) (A) (A) (A) (A) (A) (A) (A)
                 (A) (A) (A) (A) (A) (A) (A) (A) (A) (A) (A) (A)
                 (A) (A) (A)
       Virtual   (A) (A) (A) (A) (A) (A) (A) (A) (A) (A) (A) (A)
                 (A) (A) (A) (A) (A) (A) (A) (A) (A) (A) (A) (A)
                 (A) (A) (A) (A) (A) (A) (A) (A) (A) (A) (A) (A)
                 (A) (A) (A) (A) (A) (A) (A) (A) (A) (A) (A) (A)
                 (A) (A) (A) (A) (A) (A) (A) (A) (A) (A) (A) (A)
                 (A) (A) (A) (A) (A) (A) (A) (A) (A) (A) (A) (A)
                 (A) (A) (A) (A) (A) (A) (A) (A) (A) (A) (A) (A)
                 (A) (A) (A) (A) (A) (A) (A) (A) (A) (A) (A) (A)
                 (A) (A) (A) (A) (A) (A) (A) (A) (A) (A) (A) (A)
                 (A) (A) (A) (A) (A) (A) (A) (A) (A) (A) (A) (A)
                 (A) (A) (A) (A) (A) (A) (A) (A) (A) (A) (A) (A)
                 (A) (A) (A) (A) (A) (A) (A) (A) (A) (A) (A) (A)
                 (A) (A) (A) (A) (A) (A) (A) (A) (A) (A) (A) (A)
                 (A) (A) (A) (A) (A) (A) (A) (A) (A) (A) (A) (A)
                 (A) (A) (A) (A) (A) (A) (A) (A) (A) (A) (A) (A)
                 (A) (A) (A) (A) (A) (A) (A) (A) (A) (A) (A) (A)
                 (A) (A) (A) (A) (A) (A) (A) (A) (A) (A) (A) (A)
                 (A) (A) (A) (A) (A) (A) (A) (A) (A) (A) (A) (A)
                 (A) (A) (A) (A) (A) (A) (A) (A) (A) (A) (A) (A)
                 (A) (A) (A) (A) (A) (A) (A) (A) (A) (A) (A) (A)
                 (A) (A) (A) (A) (A) (A) (A) (A) (A) (A) (A) (A)
                 (A) (A) (A) (A) (A) (A) (A) (A) (A) (A) (A) (A)
                 (A) (A) (A) (A) (A) (A) (A) (A) (A) (A) (A) (A)
                 (A) (A) (A) (A) (A) (A) (A) (A) (A) (A) (A) (A)
                 (A) (A) (A) (A) (A) (A) (A) (A) (A) (A) (A) (A)
                 (A) (A) (A) (A) (A) (A) (A) (A) (A) (A) (A) (A)
                 (A) (A) (A) (A) (A) (A) (A) (A) (A) (A) (A)
 Beta  Orbitals:
       Occupied  (A) (A) (A) (A) (A) (A) (A) (A) (A) (A) (A) (A)
                 (A) (A) (A) (A) (A) (A) (A) (A) (A) (A) (A) (A)
                 (A) (A) (A) (A) (A) (A) (A) (A) (A) (A) (A) (A)
                 (A) (A) (A) (A) (A) (A) (A) (A) (A) (A) (A) (A)
                 (A) (A)
       Virtual   (A) (A) (A) (A) (A) (A) (A) (A) (A) (A) (A) (A)
                 (A) (A) (A) (A) (A) (A) (A) (A) (A) (A) (A) (A)
                 (A) (A) (A) (A) (A) (A) (A) (A) (A) (A) (A) (A)
                 (A) (A) (A) (A) (A) (A) (A) (A) (A) (A) (A) (A)
                 (A) (A) (A) (A) (A) (A) (A) (A) (A) (A) (A) (A)
                 (A) (A) (A) (A) (A) (A) (A) (A) (A) (A) (A) (A)
                 (A) (A) (A) (A) (A) (A) (A) (A) (A) (A) (A) (A)
                 (A) (A) (A) (A) (A) (A) (A) (A) (A) (A) (A) (A)
                 (A) (A) (A) (A) (A) (A) (A) (A) (A) (A) (A) (A)
                 (A) (A) (A) (A) (A) (A) (A) (A) (A) (A) (A) (A)
                 (A) (A) (A) (A) (A) (A) (A) (A) (A) (A) (A) (A)
                 (A) (A) (A) (A) (A) (A) (A) (A) (A) (A) (A) (A)
                 (A) (A) (A) (A) (A) (A) (A) (A) (A) (A) (A) (A)
                 (A) (A) (A) (A) (A) (A) (A) (A) (A) (A) (A) (A)
                 (A) (A) (A) (A) (A) (A) (A) (A) (A) (A) (A) (A)
                 (A) (A) (A) (A) (A) (A) (A) (A) (A) (A) (A) (A)
                 (A) (A) (A) (A) (A) (A) (A) (A) (A) (A) (A) (A)
                 (A) (A) (A) (A) (A) (A) (A) (A) (A) (A) (A) (A)
                 (A) (A) (A) (A) (A) (A) (A) (A) (A) (A) (A) (A)
                 (A) (A) (A) (A) (A) (A) (A) (A) (A) (A) (A) (A)
                 (A) (A) (A) (A) (A) (A) (A) (A) (A) (A) (A) (A)
                 (A) (A) (A) (A) (A) (A) (A) (A) (A) (A) (A) (A)
                 (A) (A) (A) (A) (A) (A) (A) (A) (A) (A) (A) (A)
                 (A) (A) (A) (A) (A) (A) (A) (A) (A) (A) (A) (A)
                 (A) (A) (A) (A) (A) (A) (A) (A) (A) (A) (A) (A)
                 (A) (A) (A) (A) (A) (A) (A) (A) (A) (A) (A) (A)
                 (A) (A) (A) (A) (A) (A) (A) (A) (A) (A) (A) (A)
 The electronic state is 2-A.
 Alpha  occ. eigenvalues --  -88.90935 -88.86045 -19.16386 -14.38661 -10.30937
 Alpha  occ. eigenvalues --  -10.29629 -10.29490 -10.26819 -10.26775 -10.25456
 Alpha  occ. eigenvalues --  -10.22494 -10.22280  -7.97396  -7.92428  -5.93803
 Alpha  occ. eigenvalues --   -5.93499  -5.93009  -5.88838  -5.88604  -5.88012
 Alpha  occ. eigenvalues --   -1.06756  -0.93243  -0.89148  -0.86508  -0.78878
 Alpha  occ. eigenvalues --   -0.74744  -0.71321  -0.67039  -0.61925  -0.59191
 Alpha  occ. eigenvalues --   -0.55757  -0.52836  -0.50870  -0.49743  -0.48589
 Alpha  occ. eigenvalues --   -0.46902  -0.45557  -0.44525  -0.43116  -0.40846
 Alpha  occ. eigenvalues --   -0.38722  -0.37463  -0.36890  -0.34653  -0.29171
 Alpha  occ. eigenvalues --   -0.28008  -0.27591  -0.25735  -0.24413  -0.23284
 Alpha  occ. eigenvalues --   -0.22704
 Alpha virt. eigenvalues --   -0.12269  -0.09630  -0.04730  -0.02666  -0.00756
 Alpha virt. eigenvalues --    0.02952   0.04221   0.07224   0.07304   0.10150
 Alpha virt. eigenvalues --    0.10862   0.11715   0.13454   0.13957   0.16138
 Alpha virt. eigenvalues --    0.19055   0.19441   0.23082   0.23566   0.24632
 Alpha virt. eigenvalues --    0.26621   0.26997   0.28375   0.30549   0.31770
 Alpha virt. eigenvalues --    0.32548   0.33211   0.34558   0.35524   0.37799
 Alpha virt. eigenvalues --    0.38650   0.39442   0.40570   0.41362   0.41700
 Alpha virt. eigenvalues --    0.43026   0.43708   0.44842   0.47272   0.48204
 Alpha virt. eigenvalues --    0.49128   0.50493   0.51789   0.52026   0.53113
 Alpha virt. eigenvalues --    0.55124   0.55530   0.56405   0.58336   0.58569
 Alpha virt. eigenvalues --    0.60679   0.62551   0.63805   0.64232   0.64492
 Alpha virt. eigenvalues --    0.66382   0.67162   0.68935   0.69734   0.70815
 Alpha virt. eigenvalues --    0.71369   0.73263   0.74071   0.75056   0.75260
 Alpha virt. eigenvalues --    0.76224   0.76564   0.78257   0.79507   0.81086
 Alpha virt. eigenvalues --    0.82270   0.82703   0.83761   0.84016   0.85607
 Alpha virt. eigenvalues --    0.87687   0.88283   0.88969   0.90647   0.92858
 Alpha virt. eigenvalues --    0.93815   0.94425   0.95187   0.96581   0.98297
 Alpha virt. eigenvalues --    0.99032   0.99591   1.02933   1.04172   1.08286
 Alpha virt. eigenvalues --    1.09210   1.10120   1.13956   1.14158   1.17125
 Alpha virt. eigenvalues --    1.19227   1.20742   1.23818   1.24972   1.25928
 Alpha virt. eigenvalues --    1.27319   1.27738   1.30176   1.32038   1.33580
 Alpha virt. eigenvalues --    1.35761   1.36497   1.37790   1.39946   1.40541
 Alpha virt. eigenvalues --    1.41472   1.42614   1.46633   1.47272   1.48991
 Alpha virt. eigenvalues --    1.50829   1.52053   1.53037   1.55047   1.55605
 Alpha virt. eigenvalues --    1.57980   1.58896   1.61694   1.63569   1.64731
 Alpha virt. eigenvalues --    1.66214   1.68245   1.69093   1.70038   1.71016
 Alpha virt. eigenvalues --    1.72156   1.73346   1.77801   1.79512   1.80192
 Alpha virt. eigenvalues --    1.81916   1.83951   1.85847   1.86367   1.88328
 Alpha virt. eigenvalues --    1.89557   1.92427   1.94187   1.94437   1.97949
 Alpha virt. eigenvalues --    2.00133   2.04703   2.06002   2.08258   2.11235
 Alpha virt. eigenvalues --    2.13977   2.15873   2.17497   2.18442   2.20118
 Alpha virt. eigenvalues --    2.23293   2.25261   2.26607   2.28135   2.29955
 Alpha virt. eigenvalues --    2.31835   2.32152   2.34631   2.36885   2.40118
 Alpha virt. eigenvalues --    2.43415   2.44964   2.47373   2.49241   2.50615
 Alpha virt. eigenvalues --    2.53476   2.56459   2.57986   2.59394   2.60953
 Alpha virt. eigenvalues --    2.64448   2.69601   2.71791   2.72864   2.75462
 Alpha virt. eigenvalues --    2.78643   2.81375   2.81899   2.83746   2.85790
 Alpha virt. eigenvalues --    2.88188   2.90097   2.91421   2.93449   2.98024
 Alpha virt. eigenvalues --    2.99585   3.01857   3.04810   3.06211   3.07183
 Alpha virt. eigenvalues --    3.09141   3.11454   3.14771   3.14954   3.15956
 Alpha virt. eigenvalues --    3.17655   3.18180   3.21414   3.22895   3.25300
 Alpha virt. eigenvalues --    3.26144   3.28737   3.29670   3.31394   3.31876
 Alpha virt. eigenvalues --    3.32650   3.34641   3.37850   3.40005   3.40723
 Alpha virt. eigenvalues --    3.43642   3.44849   3.47033   3.50015   3.52458
 Alpha virt. eigenvalues --    3.54732   3.56010   3.59179   3.61337   3.62432
 Alpha virt. eigenvalues --    3.64723   3.68176   3.70365   3.72361   3.74363
 Alpha virt. eigenvalues --    3.76740   3.78390   3.79898   3.83737   3.84395
 Alpha virt. eigenvalues --    3.93591   3.95483   3.97061   3.99664   4.03883
 Alpha virt. eigenvalues --    4.04437   4.06784   4.08656   4.12670   4.14725
 Alpha virt. eigenvalues --    4.16950   4.20508   4.20986   4.21312   4.23154
 Alpha virt. eigenvalues --    4.26017   4.28954   4.31035   4.31331   4.35865
 Alpha virt. eigenvalues --    4.37862   4.39029   4.40683   4.42204   4.44354
 Alpha virt. eigenvalues --    4.46750   4.47730   4.49316   4.50718   4.52057
 Alpha virt. eigenvalues --    4.53613   4.57878   4.58688   4.60897   4.62138
 Alpha virt. eigenvalues --    4.64743   4.66090   4.68515   4.70090   4.71960
 Alpha virt. eigenvalues --    4.73923   4.75895   4.79187   4.79657   4.81866
 Alpha virt. eigenvalues --    4.83879   4.86340   4.90209   4.91586   4.94188
 Alpha virt. eigenvalues --    5.00199   5.03380   5.04876   5.06368   5.08188
 Alpha virt. eigenvalues --    5.11435   5.11861   5.14341   5.15120   5.18226
 Alpha virt. eigenvalues --    5.23956   5.26493   5.30131   5.37638   5.38522
 Alpha virt. eigenvalues --    5.41656   5.47641   5.52656   5.58382   5.63001
 Alpha virt. eigenvalues --    5.76050   5.90231   6.01220   6.12619   6.20059
 Alpha virt. eigenvalues --    6.33108   6.73639  10.02488  10.32206  10.80084
 Alpha virt. eigenvalues --   10.99344  11.27936  11.43636  11.50872  11.80090
 Alpha virt. eigenvalues --   12.12502  12.85144  14.24005
  Beta  occ. eigenvalues --  -88.90935 -88.85984 -19.16348 -14.38161 -10.30989
  Beta  occ. eigenvalues --  -10.30107 -10.29451 -10.27338 -10.25899 -10.24541
  Beta  occ. eigenvalues --  -10.22524 -10.22102  -7.97391  -7.92369  -5.93835
  Beta  occ. eigenvalues --   -5.93516  -5.92958  -5.88794  -5.88444  -5.87948
  Beta  occ. eigenvalues --   -1.06650  -0.92822  -0.88626  -0.85734  -0.78287
  Beta  occ. eigenvalues --   -0.74367  -0.70799  -0.66660  -0.61653  -0.58538
  Beta  occ. eigenvalues --   -0.55268  -0.52475  -0.50552  -0.49376  -0.48364
  Beta  occ. eigenvalues --   -0.46474  -0.45028  -0.44306  -0.42932  -0.40694
  Beta  occ. eigenvalues --   -0.38375  -0.37233  -0.36632  -0.33794  -0.28419
  Beta  occ. eigenvalues --   -0.27431  -0.26744  -0.24668  -0.23629  -0.22678
  Beta virt. eigenvalues --   -0.14484  -0.12099  -0.07836  -0.04588  -0.02061
  Beta virt. eigenvalues --   -0.00329   0.03318   0.05025   0.07395   0.07905
  Beta virt. eigenvalues --    0.10102   0.11078   0.11762   0.13586   0.14054
  Beta virt. eigenvalues --    0.16361   0.19280   0.19542   0.23266   0.24130
  Beta virt. eigenvalues --    0.24972   0.26763   0.27133   0.28745   0.30812
  Beta virt. eigenvalues --    0.32053   0.32753   0.33349   0.34950   0.35863
  Beta virt. eigenvalues --    0.38177   0.39134   0.39736   0.40835   0.41754
  Beta virt. eigenvalues --    0.42112   0.43167   0.43948   0.45074   0.47490
  Beta virt. eigenvalues --    0.48388   0.48670   0.50732   0.51904   0.52743
  Beta virt. eigenvalues --    0.53199   0.55551   0.56385   0.56523   0.58360
  Beta virt. eigenvalues --    0.58846   0.60657   0.63000   0.63939   0.64869
  Beta virt. eigenvalues --    0.64914   0.67031   0.67654   0.69263   0.69976
  Beta virt. eigenvalues --    0.71140   0.71793   0.73533   0.74378   0.75390
  Beta virt. eigenvalues --    0.75548   0.76606   0.76977   0.78481   0.79682
  Beta virt. eigenvalues --    0.81294   0.82447   0.82965   0.83999   0.84272
  Beta virt. eigenvalues --    0.85662   0.88175   0.88381   0.89429   0.91257
  Beta virt. eigenvalues --    0.93083   0.94043   0.94695   0.95406   0.97006
  Beta virt. eigenvalues --    0.98826   0.99632   1.00019   1.03148   1.04523
  Beta virt. eigenvalues --    1.08544   1.09550   1.10525   1.14179   1.14398
  Beta virt. eigenvalues --    1.17303   1.19652   1.20980   1.24151   1.25324
  Beta virt. eigenvalues --    1.26083   1.27805   1.28055   1.30506   1.32309
  Beta virt. eigenvalues --    1.33704   1.36255   1.36987   1.37990   1.40353
  Beta virt. eigenvalues --    1.41104   1.41591   1.42927   1.47104   1.47639
  Beta virt. eigenvalues --    1.49396   1.51038   1.52394   1.53332   1.55102
  Beta virt. eigenvalues --    1.55979   1.58065   1.58875   1.62090   1.63893
  Beta virt. eigenvalues --    1.64948   1.66407   1.68561   1.69364   1.70346
  Beta virt. eigenvalues --    1.71472   1.72352   1.73539   1.78075   1.79709
  Beta virt. eigenvalues --    1.80514   1.82215   1.84173   1.86085   1.86836
  Beta virt. eigenvalues --    1.88515   1.89807   1.92630   1.94364   1.94750
  Beta virt. eigenvalues --    1.98247   2.00359   2.05057   2.06262   2.08638
  Beta virt. eigenvalues --    2.11348   2.14230   2.16097   2.17633   2.18824
  Beta virt. eigenvalues --    2.20169   2.23114   2.25459   2.26743   2.28288
  Beta virt. eigenvalues --    2.30160   2.31994   2.32290   2.34824   2.37161
  Beta virt. eigenvalues --    2.40390   2.43702   2.45240   2.47496   2.49577
  Beta virt. eigenvalues --    2.50748   2.53853   2.56808   2.58214   2.59879
  Beta virt. eigenvalues --    2.61237   2.65011   2.69710   2.72172   2.73054
  Beta virt. eigenvalues --    2.75600   2.78975   2.81672   2.82296   2.83749
  Beta virt. eigenvalues --    2.85981   2.88397   2.90612   2.92057   2.94130
  Beta virt. eigenvalues --    2.98192   3.00261   3.02218   3.05314   3.06890
  Beta virt. eigenvalues --    3.07608   3.09403   3.11822   3.14955   3.15191
  Beta virt. eigenvalues --    3.16404   3.17914   3.18476   3.21444   3.22968
  Beta virt. eigenvalues --    3.25845   3.26385   3.28896   3.29589   3.31745
  Beta virt. eigenvalues --    3.32206   3.34024   3.34854   3.38329   3.40617
  Beta virt. eigenvalues --    3.41206   3.43478   3.45200   3.47489   3.50803
  Beta virt. eigenvalues --    3.53042   3.55172   3.56740   3.59407   3.61937
  Beta virt. eigenvalues --    3.62773   3.65488   3.68959   3.70868   3.72838
  Beta virt. eigenvalues --    3.75043   3.77190   3.78799   3.80318   3.84136
  Beta virt. eigenvalues --    3.84786   3.93871   3.95824   3.97251   3.99960
  Beta virt. eigenvalues --    4.04179   4.04647   4.07025   4.09031   4.13037
  Beta virt. eigenvalues --    4.15122   4.17716   4.20843   4.21044   4.21877
  Beta virt. eigenvalues --    4.24122   4.26161   4.29272   4.31319   4.32056
  Beta virt. eigenvalues --    4.36084   4.38439   4.39330   4.41146   4.42544
  Beta virt. eigenvalues --    4.45760   4.46701   4.48186   4.49928   4.51316
  Beta virt. eigenvalues --    4.52513   4.53850   4.58153   4.58787   4.61691
  Beta virt. eigenvalues --    4.62881   4.65312   4.66478   4.69153   4.70840
  Beta virt. eigenvalues --    4.73029   4.74747   4.76302   4.79667   4.79983
  Beta virt. eigenvalues --    4.82392   4.84375   4.86358   4.90897   4.92689
  Beta virt. eigenvalues --    4.94465   5.00608   5.03764   5.05058   5.06694
  Beta virt. eigenvalues --    5.08338   5.11847   5.12274   5.14845   5.15418
  Beta virt. eigenvalues --    5.18482   5.24570   5.26747   5.30411   5.38119
  Beta virt. eigenvalues --    5.39190   5.42142   5.47789   5.52759   5.58436
  Beta virt. eigenvalues --    5.63147   5.76169   5.90343   6.01444   6.12867
  Beta virt. eigenvalues --    6.20164   6.33162   6.73696  10.02115  10.32565
  Beta virt. eigenvalues --   10.79877  10.99609  11.28993  11.44575  11.51052
  Beta virt. eigenvalues --   11.80561  12.12847  12.85183  14.23934
          Condensed to atoms (all electrons):
               1          2          3          4          5          6
     1  O    7.604641   0.718870  -0.054988  -0.004112  -0.000207  -0.000006
     2  C    0.718870   4.634988   0.242247  -0.011393  -0.002209   0.000071
     3  C   -0.054988   0.242247   5.436005   0.405950  -0.062747   0.001357
     4  C   -0.004112  -0.011393   0.405950   4.759224   0.601206  -0.039799
     5  C   -0.000207  -0.002209  -0.062747   0.601206   5.075081   0.402728
     6  C   -0.000006   0.000071   0.001357  -0.039799   0.402728   4.769370
     7  S   -0.000002  -0.000126   0.001617  -0.024996  -0.070881   0.469076
     8  S    0.000000  -0.000010  -0.000353   0.002825  -0.058599   0.286538
     9  C    0.000000  -0.000001   0.001128  -0.000203  -0.002799  -0.040123
    10  C    0.000000   0.000001  -0.001578   0.000318   0.000208   0.001532
    11  N   -0.000002   0.000173  -0.021840  -0.006847   0.001624   0.000997
    12  C   -0.000052  -0.003970   0.313134  -0.035576  -0.009323   0.001226
    13  H   -0.060970   0.360025  -0.097332   0.002248   0.000754   0.000066
    14  H   -0.000162  -0.001052  -0.055133   0.352530  -0.021376  -0.011815
    15  H   -0.000004   0.000488  -0.012445  -0.037045   0.372545  -0.031911
    16  H    0.000000   0.000000  -0.000009   0.000020   0.000116   0.002944
    17  H   -0.000000   0.000000  -0.000083  -0.000020   0.000043   0.000712
    18  H    0.000019   0.000705  -0.072048   0.002731   0.001827   0.000149
               7          8          9         10         11         12
     1  O   -0.000002   0.000000   0.000000   0.000000  -0.000002  -0.000052
     2  C   -0.000126  -0.000010  -0.000001   0.000001   0.000173  -0.003970
     3  C    0.001617  -0.000353   0.001128  -0.001578  -0.021840   0.313134
     4  C   -0.024996   0.002825  -0.000203   0.000318  -0.006847  -0.035576
     5  C   -0.070881  -0.058599  -0.002799   0.000208   0.001624  -0.009323
     6  C    0.469076   0.286538  -0.040123   0.001532   0.000997   0.001226
     7  S   16.043397  -0.081233  -0.008814  -0.001590  -0.003755   0.005189
     8  S   -0.081233  15.727124   0.314858  -0.068564  -0.005917  -0.000182
     9  C   -0.008814   0.314858   5.177625   0.423260  -0.024129   0.001337
    10  C   -0.001590  -0.068564   0.423260   4.829216   0.517725  -0.069131
    11  N   -0.003755  -0.005917  -0.024129   0.517725   6.226724   0.607253
    12  C    0.005189  -0.000182   0.001337  -0.069131   0.607253   4.856761
    13  H    0.000041  -0.000002   0.000000   0.000001  -0.000015   0.001233
    14  H    0.015779   0.000818   0.000010  -0.000035  -0.000176   0.001592
    15  H    0.002682  -0.005872  -0.000059  -0.000556  -0.000437   0.005537
    16  H    0.003339  -0.052332   0.358556  -0.035704   0.001450  -0.000097
    17  H    0.000108   0.008204  -0.086105   0.370711  -0.038473   0.002392
    18  H   -0.000084  -0.000046  -0.000324   0.004692  -0.034743   0.358099
              13         14         15         16         17         18
     1  O   -0.060970  -0.000162  -0.000004   0.000000  -0.000000   0.000019
     2  C    0.360025  -0.001052   0.000488   0.000000   0.000000   0.000705
     3  C   -0.097332  -0.055133  -0.012445  -0.000009  -0.000083  -0.072048
     4  C    0.002248   0.352530  -0.037045   0.000020  -0.000020   0.002731
     5  C    0.000754  -0.021376   0.372545   0.000116   0.000043   0.001827
     6  C    0.000066  -0.011815  -0.031911   0.002944   0.000712   0.000149
     7  S    0.000041   0.015779   0.002682   0.003339   0.000108  -0.000084
     8  S   -0.000002   0.000818  -0.005872  -0.052332   0.008204  -0.000046
     9  C    0.000000   0.000010  -0.000059   0.358556  -0.086105  -0.000324
    10  C    0.000001  -0.000035  -0.000556  -0.035704   0.370711   0.004692
    11  N   -0.000015  -0.000176  -0.000437   0.001450  -0.038473  -0.034743
    12  C    0.001233   0.001592   0.005537  -0.000097   0.002392   0.358099
    13  H    0.679892   0.006820  -0.000017  -0.000000  -0.000000  -0.000120
    14  H    0.006820   0.529032   0.004992  -0.000005  -0.000001  -0.000146
    15  H   -0.000017   0.004992   0.544058  -0.000017  -0.000045  -0.000065
    16  H   -0.000000  -0.000005  -0.000017   0.535833   0.001888   0.000004
    17  H   -0.000000  -0.000001  -0.000045   0.001888   0.585831   0.000011
    18  H   -0.000120  -0.000146  -0.000065   0.000004   0.000011   0.592420
          Atomic-Atomic Spin Densities.
               1          2          3          4          5          6
     1  O    0.019518  -0.001094  -0.005460   0.000258  -0.000062  -0.000000
     2  C   -0.001094  -0.025967   0.004088   0.000035  -0.000013  -0.000039
     3  C   -0.005460   0.004088   0.653019  -0.005873  -0.006620  -0.001552
     4  C    0.000258   0.000035  -0.005873  -0.136222  -0.020797   0.001106
     5  C   -0.000062  -0.000013  -0.006620  -0.020797   0.255448   0.021214
     6  C   -0.000000  -0.000039  -0.001552   0.001106   0.021214   0.019403
     7  S    0.000005   0.000140   0.004141   0.005193  -0.004857  -0.011542
     8  S    0.000000   0.000003   0.000001   0.001155  -0.002056  -0.008813
     9  C    0.000000   0.000000   0.000099   0.000251  -0.000781  -0.024423
    10  C   -0.000000   0.000001  -0.000027  -0.000088  -0.000165   0.002106
    11  N    0.000000  -0.000021  -0.001113   0.000270  -0.002282   0.000143
    12  C    0.000044   0.000778  -0.000043   0.006172  -0.000451  -0.001331
    13  H   -0.003047   0.003295  -0.008881   0.001503   0.000177   0.000008
    14  H   -0.000377  -0.001152  -0.020480   0.010581   0.001141   0.001669
    15  H   -0.000012   0.000003   0.002984  -0.002405  -0.001139   0.002332
    16  H    0.000000   0.000000   0.000004  -0.000002  -0.000051  -0.001559
    17  H    0.000000   0.000000   0.000005   0.000005  -0.000087  -0.000445
    18  H    0.000011   0.000110  -0.003186   0.000036  -0.000260   0.000000
               7          8          9         10         11         12
     1  O    0.000005   0.000000   0.000000  -0.000000   0.000000   0.000044
     2  C    0.000140   0.000003   0.000000   0.000001  -0.000021   0.000778
     3  C    0.004141   0.000001   0.000099  -0.000027  -0.001113  -0.000043
     4  C    0.005193   0.001155   0.000251  -0.000088   0.000270   0.006172
     5  C   -0.004857  -0.002056  -0.000781  -0.000165  -0.002282  -0.000451
     6  C   -0.011542  -0.008813  -0.024423   0.002106   0.000143  -0.001331
     7  S    0.122830   0.002862  -0.007059   0.001394   0.000599  -0.000090
     8  S    0.002862   0.015080  -0.007234   0.007243   0.000988   0.000155
     9  C   -0.007059  -0.007234   0.646000  -0.003015  -0.001297   0.000336
    10  C    0.001394   0.007243  -0.003015  -0.379397  -0.021174   0.008357
    11  N    0.000599   0.000988  -0.001297  -0.021174   0.281001  -0.015017
    12  C   -0.000090   0.000155   0.000336   0.008357  -0.015017  -0.322394
    13  H   -0.000180  -0.000002  -0.000000  -0.000000   0.000004  -0.000128
    14  H   -0.006707  -0.000252  -0.000060  -0.000001   0.000036  -0.000404
    15  H   -0.000252  -0.001607  -0.000039   0.000181  -0.000368  -0.000866
    16  H   -0.000720   0.004494  -0.004557   0.004786  -0.000304   0.000026
    17  H   -0.000072   0.001913  -0.026336   0.020061  -0.005652   0.000599
    18  H    0.000048   0.000002   0.000007   0.000134  -0.000212   0.005343
              13         14         15         16         17         18
     1  O   -0.003047  -0.000377  -0.000012   0.000000   0.000000   0.000011
     2  C    0.003295  -0.001152   0.000003   0.000000   0.000000   0.000110
     3  C   -0.008881  -0.020480   0.002984   0.000004   0.000005  -0.003186
     4  C    0.001503   0.010581  -0.002405  -0.000002   0.000005   0.000036
     5  C    0.000177   0.001141  -0.001139  -0.000051  -0.000087  -0.000260
     6  C    0.000008   0.001669   0.002332  -0.001559  -0.000445   0.000000
     7  S   -0.000180  -0.006707  -0.000252  -0.000720  -0.000072   0.000048
     8  S   -0.000002  -0.000252  -0.001607   0.004494   0.001913   0.000002
     9  C   -0.000000  -0.000060  -0.000039  -0.004557  -0.026336   0.000007
    10  C   -0.000000  -0.000001   0.000181   0.004786   0.020061   0.000134
    11  N    0.000004   0.000036  -0.000368  -0.000304  -0.005652  -0.000212
    12  C   -0.000128  -0.000404  -0.000866   0.000026   0.000599   0.005343
    13  H    0.013770   0.003498   0.000014  -0.000000  -0.000000  -0.000018
    14  H    0.003498   0.046402   0.000245  -0.000002  -0.000001  -0.000028
    15  H    0.000014   0.000245  -0.007824   0.000001  -0.000006  -0.000081
    16  H   -0.000000  -0.000002   0.000001  -0.035781   0.000568  -0.000001
    17  H   -0.000000  -0.000001  -0.000006   0.000568   0.048237  -0.000034
    18  H   -0.000018  -0.000028  -0.000081  -0.000001  -0.000034   0.009684
 Mulliken charges and spin densities:
               1          2
     1  O   -0.203024   0.009785
     2  C    0.061194  -0.019834
     3  C   -0.022881   0.611107
     4  C    0.032938  -0.138824
     5  C   -0.227989   0.238359
     6  C    0.186890  -0.001724
     7  S   -0.349748   0.105733
     8  S   -0.067258   0.013932
     9  C   -0.114217   0.571892
    10  C    0.029495  -0.359604
    11  N   -0.219612   0.235601
    12  C   -0.035422  -0.318916
    13  H    0.107376   0.010014
    14  H    0.178325   0.034108
    15  H    0.158171  -0.008840
    16  H    0.184016  -0.033099
    17  H    0.154827   0.038755
    18  H    0.146919   0.011555
 Sum of Mulliken charges =  -0.00000   1.00000
 Mulliken charges and spin densities with hydrogens summed into heavy atoms:
               1          2
     1  O   -0.203024   0.009785
     2  C    0.168570  -0.009820
     3  C   -0.022881   0.611107
     4  C    0.211263  -0.104716
     5  C   -0.069818   0.229518
     6  C    0.186890  -0.001724
     7  S   -0.349748   0.105733
     8  S   -0.067258   0.013932
     9  C    0.069799   0.538793
    10  C    0.184322  -0.320849
    11  N   -0.219612   0.235601
    12  C    0.111496  -0.307361
 Electronic spatial extent (au):  <R**2>=           2605.7489
 Charge=             -0.0000 electrons
 Dipole moment (field-independent basis, Debye):
    X=             -1.5422    Y=              1.5132    Z=             -0.0224  Tot=              2.1607
 Quadrupole moment (field-independent basis, Debye-Ang):
   XX=            -88.9816   YY=            -84.1789   ZZ=            -84.1114
   XY=             -5.2968   XZ=             -4.6256   YZ=             -0.9000
 Traceless Quadrupole moment (field-independent basis, Debye-Ang):
   XX=             -3.2243   YY=              1.5784   ZZ=              1.6459
   XY=             -5.2968   XZ=             -4.6256   YZ=             -0.9000
 Octapole moment (field-independent basis, Debye-Ang**2):
  XXX=            -75.0387  YYY=              7.7614  ZZZ=              4.5283  XYY=             10.6651
  XXY=              9.5125  XXZ=            -28.3939  XZZ=              5.1048  YZZ=             -0.4522
  YYZ=              4.7547  XYZ=              2.7790
 Hexadecapole moment (field-independent basis, Debye-Ang**3):
 XXXX=          -2593.9850 YYYY=           -771.5118 ZZZZ=           -414.1608 XXXY=            -48.3216
 XXXZ=            -77.7760 YYYX=            -14.1086 YYYZ=              2.4737 ZZZX=              7.1823
 ZZZY=              4.8993 XXYY=           -479.6420 XXZZ=           -448.8587 YYZZ=           -201.5016
 XXYZ=             -2.7915 YYXZ=             -5.6416 ZZXY=              1.0964
 N-N= 8.261178270693D+02 E-N=-4.563758752774D+03  KE= 1.228640999893D+03
                          Isotropic Fermi Contact Couplings
        Atom                 a.u.       MegaHertz       Gauss      10(-4) cm-1
     1  O(17)              0.00827      -5.01462      -1.78934      -1.67270
     2  C(13)             -0.01703     -19.14198      -6.83033      -6.38508
     3  C(13)              0.09352     105.13038      37.51313      35.06772
     4  C(13)             -0.02907     -32.68488     -11.66278     -10.90250
     5  C(13)              0.05201      58.47465      20.86521      19.50504
     6  C(13)              0.02692      30.26877      10.80065      10.09658
     7  S(33)              0.01149       3.94530       1.40778       1.31601
     8  S(33)              0.04812      16.52884       5.89790       5.51343
     9  C(13)              0.11867     133.40896      47.60363      44.50044
    10  C(13)             -0.05963     -67.04015     -23.92159     -22.36219
    11  N(14)              0.09713      31.38274      11.19814      10.46815
    12  C(13)             -0.04496     -50.54462     -18.03558     -16.85987
    13  H(1)               0.00338      15.10801       5.39092       5.03949
    14  H(1)               0.01847      82.55371      29.45722      27.53696
    15  H(1)              -0.00321     -14.36402      -5.12544      -4.79132
    16  H(1)              -0.01384     -61.86736     -22.07581     -20.63673
    17  H(1)               0.02044      91.38014      32.60670      30.48113
    18  H(1)               0.00485      21.69319       7.74067       7.23607
 --------------------------------------------------------
       Center         ----  Spin Dipole Couplings  ----
                      3XX-RR        3YY-RR        3ZZ-RR
 --------------------------------------------------------
     1   Atom        0.079022     -0.070079     -0.008943
     2   Atom        0.017478     -0.010755     -0.006724
     3   Atom       -0.280346     -0.053976      0.334323
     4   Atom       -0.035208      0.081910     -0.046702
     5   Atom       -0.098391      0.053503      0.044888
     6   Atom        0.046518     -0.020475     -0.026043
     7   Atom       -0.108349      0.222912     -0.114563
     8   Atom        0.066393      0.050626     -0.117019
     9   Atom        0.014130      0.174335     -0.188465
    10   Atom        0.211539      0.192056     -0.403596
    11   Atom       -0.225589     -0.224445      0.450033
    12   Atom        0.184285      0.127969     -0.312253
    13   Atom        0.004928     -0.000816     -0.004112
    14   Atom       -0.001046      0.000776      0.000270
    15   Atom       -0.007820      0.005897      0.001924
    16   Atom        0.009159     -0.012167      0.003008
    17   Atom        0.004414      0.003150     -0.007564
    18   Atom        0.007551     -0.002810     -0.004742
 --------------------------------------------------------
                        XY            XZ            YZ
 --------------------------------------------------------
     1   Atom        0.031091     -0.035965      0.000202
     2   Atom        0.001245     -0.000214      0.008462
     3   Atom        0.124900      0.178507      0.423943
     4   Atom        0.044536     -0.112910      0.030900
     5   Atom       -0.038825      0.050887     -0.182047
     6   Atom       -0.010508     -0.012382      0.035756
     7   Atom        0.123280      0.032278     -0.188712
     8   Atom        0.141914     -0.008847      0.120185
     9   Atom       -0.417350     -0.207664      0.258123
    10   Atom        0.020388     -0.022668     -0.117004
    11   Atom        0.015099      0.000941     -0.019309
    12   Atom        0.002223      0.052462     -0.033159
    13   Atom       -0.005952     -0.002879      0.002486
    14   Atom        0.008379     -0.001855     -0.002256
    15   Atom        0.001402     -0.002645      0.009053
    16   Atom        0.002698      0.026871      0.030461
    17   Atom        0.026023     -0.008517     -0.007449
    18   Atom       -0.020603      0.003435     -0.005078
 --------------------------------------------------------


 ---------------------------------------------------------------------------------
              Anisotropic Spin Dipole Couplings in Principal Axis System
 ---------------------------------------------------------------------------------

       Atom             a.u.   MegaHertz   Gauss  10(-4) cm-1        Axes

              Baa    -0.0772     5.584     1.993     1.863 -0.2201  0.9682 -0.1189
     1 O(17)  Bbb    -0.0198     1.434     0.512     0.478  0.2857  0.1805  0.9412
              Bcc     0.0970    -7.018    -2.504    -2.341  0.9327  0.1732 -0.3163
 
              Baa    -0.0175    -2.345    -0.837    -0.782 -0.0318  0.7850 -0.6186
     2 C(13)  Bbb    -0.0001    -0.008    -0.003    -0.003 -0.0343  0.6177  0.7857
              Bcc     0.0175     2.353     0.840     0.785  0.9989  0.0462  0.0073
 
              Baa    -0.3373   -45.262   -16.151   -15.098  0.7772 -0.6044  0.1750
     3 C(13)  Bbb    -0.3197   -42.904   -15.309   -14.311  0.5872  0.5967 -0.5470
              Bcc     0.6570    88.166    31.460    29.409  0.2262  0.5279  0.8186
 
              Baa    -0.1654   -22.199    -7.921    -7.405  0.6805 -0.2102  0.7019
     4 C(13)  Bbb     0.0676     9.074     3.238     3.027 -0.6066  0.3756  0.7006
              Bcc     0.0978    13.124     4.683     4.378  0.4110  0.9026 -0.1281
 
              Baa    -0.1361   -18.265    -6.518    -6.093 -0.3266  0.6189  0.7143
     5 C(13)  Bbb    -0.1069   -14.349    -5.120    -4.786  0.9274  0.3557  0.1157
              Bcc     0.2430    32.615    11.638    10.879 -0.1825  0.7003 -0.6902
 
              Baa    -0.0592    -7.939    -2.833    -2.648  0.0191 -0.6758  0.7368
     6 C(13)  Bbb     0.0062     0.828     0.296     0.276  0.3706  0.6892  0.6226
              Bcc     0.0530     7.111     2.537     2.372  0.9286 -0.2611 -0.2636
 
              Baa    -0.2503   -10.260    -3.661    -3.422 -0.5381  0.4295  0.7253
     7 S(33)  Bbb    -0.0802    -3.288    -1.173    -1.097  0.8119  0.0327  0.5829
              Bcc     0.3305    13.548     4.834     4.519  0.2266  0.9025 -0.3663
 
              Baa    -0.2039    -8.359    -2.983    -2.788  0.3101 -0.5418  0.7812
     8 S(33)  Bbb    -0.0156    -0.640    -0.228    -0.214  0.6914 -0.4355 -0.5764
              Bcc     0.2195     8.999     3.211     3.002  0.6525  0.7189  0.2396
 
              Baa    -0.3320   -44.554   -15.898   -14.862  0.6646  0.6918 -0.2824
     9 C(13)  Bbb    -0.3180   -42.679   -15.229   -14.236  0.4569 -0.0772  0.8861
              Bcc     0.6501    87.233    31.127    29.098 -0.5912  0.7180  0.3674
 
              Baa    -0.4263   -57.204   -20.412   -19.081  0.0290  0.1849  0.9823
    10 C(13)  Bbb     0.1889    25.346     9.044     8.455  0.7222 -0.6833  0.1073
              Bcc     0.2374    31.858    11.368    10.627  0.6911  0.7063 -0.1534
 
              Baa    -0.2404    -9.272    -3.309    -3.093  0.7140 -0.6998 -0.0205
    11 N(14)  Bbb    -0.2102    -8.106    -2.892    -2.704  0.7001  0.7137  0.0199
              Bcc     0.4506    17.378     6.201     5.797  0.0008 -0.0286  0.9996
 
              Baa    -0.3202   -42.967   -15.332   -14.332 -0.1035  0.0739  0.9919
    12 C(13)  Bbb     0.1304    17.499     6.244     5.837  0.0283  0.9971 -0.0713
              Bcc     0.1898    25.468     9.088     8.495  0.9942 -0.0207  0.1053
 
              Baa    -0.0055    -2.919    -1.042    -0.974 -0.0888 -0.5552  0.8270
    13 H(1)   Bbb    -0.0042    -2.251    -0.803    -0.751  0.5778  0.6476  0.4968
              Bcc     0.0097     5.170     1.845     1.725  0.8114 -0.5219 -0.2632
 
              Baa    -0.0086    -4.570    -1.631    -1.524  0.7425 -0.6697 -0.0151
    14 H(1)   Bbb    -0.0007    -0.362    -0.129    -0.121  0.2179  0.2201  0.9508
              Bcc     0.0092     4.931     1.760     1.645  0.6334  0.7093 -0.3093
 
              Baa    -0.0098    -5.221    -1.863    -1.742  0.8329 -0.3306  0.4437
    15 H(1)   Bbb    -0.0034    -1.819    -0.649    -0.607 -0.5527 -0.5369  0.6374
              Bcc     0.0132     7.040     2.512     2.348 -0.0275  0.7762  0.6299
 
              Baa    -0.0409   -21.813    -7.783    -7.276  0.3205  0.6749 -0.6646
    16 H(1)   Bbb    -0.0025    -1.309    -0.467    -0.437  0.7466 -0.6118 -0.2612
              Bcc     0.0433    23.122     8.250     7.713  0.5829  0.4125  0.7000
 
              Baa    -0.0223   -11.887    -4.242    -3.965 -0.7054  0.7071 -0.0503
    17 H(1)   Bbb    -0.0107    -5.700    -2.034    -1.901  0.1562  0.2242  0.9619
              Bcc     0.0330    17.588     6.276     5.867  0.6914  0.6707 -0.2686
 
              Baa    -0.0191   -10.211    -3.643    -3.406  0.5941  0.7925  0.1378
    18 H(1)   Bbb    -0.0056    -3.006    -1.073    -1.003 -0.2381  0.0096  0.9712
              Bcc     0.0248    13.216     4.716     4.409  0.7684 -0.6098  0.1944
 

 ---------------------------------------------------------------------------------

 PrsmSu:  requested number of processors reduced to:  13 ShMem   1 Linda.
 Calling FoFJK, ICntrl=      2127 FMM=F ISym2X=0 I1Cent= 0 IOpClX= 1 NMat=1 NMatS=1 NMatT=0.
 ***** Axes restored to original set *****
 -------------------------------------------------------------------
 Center     Atomic                   Forces (Hartrees/Bohr)
 Number     Number              X              Y              Z
 -------------------------------------------------------------------
      1        8           0.013260249   -0.026202474   -0.001477684
      2        6           0.000767517    0.025758366    0.013368918
      3        6           0.017044263   -0.026983082    0.000236671
      4        6          -0.058737678   -0.029928999   -0.097986284
      5        6           0.085082744    0.011288295    0.056554260
      6        6          -0.012477880    0.022858917    0.000269423
      7       16          -0.014478177   -0.000672664    0.031759956
      8       16          -0.003036760    0.020842654    0.020678154
      9        6           0.031919896    0.054370440   -0.026391578
     10        6          -0.073552038   -0.069870201    0.002883569
     11        7           0.015677639    0.035756205    0.014989305
     12        6          -0.024675179   -0.006831161    0.005552845
     13        1           0.010932143   -0.020088961   -0.001166903
     14        1          -0.000872199    0.013420151    0.016577927
     15        1           0.008689941    0.023631177   -0.005528792
     16        1           0.008442400   -0.024173505    0.021532605
     17        1          -0.003773106   -0.012400665   -0.037916740
     18        1          -0.000213773    0.009225505   -0.013935652
 -------------------------------------------------------------------
 Cartesian Forces:  Max     0.097986284 RMS     0.031050231

 GradGradGradGradGradGradGradGradGradGradGradGradGradGradGradGradGradGrad
 Berny optimization.
 FormGI is forming the generalized inverse of G from B-inverse, IUseBI=4.
 Internal  Forces:  Max     0.106181421 RMS     0.024678089
 Search for a local minimum.
 Step number   1 out of a maximum of   86
 All quantities printed in internal units (Hartrees-Bohrs-Radians)
 Mixed Optimization -- RFO/linear search
 Second derivative matrix not updated -- first step.
 ITU=  0
     Eigenvalues ---    0.00230   0.00523   0.00777   0.01076   0.01116
     Eigenvalues ---    0.01444   0.01578   0.01874   0.02339   0.02710
     Eigenvalues ---    0.02882   0.03377   0.03630   0.04016   0.09237
     Eigenvalues ---    0.11103   0.12734   0.14126   0.15181   0.15499
     Eigenvalues ---    0.15974   0.16000   0.16715   0.21167   0.21898
     Eigenvalues ---    0.22510   0.22944   0.23496   0.23857   0.24260
     Eigenvalues ---    0.24345   0.24654   0.29841   0.31064   0.31120
     Eigenvalues ---    0.31979   0.32440   0.33135   0.33205   0.33286
     Eigenvalues ---    0.33316   0.34512   0.40038   0.41690   0.53600
     Eigenvalues ---    0.55285   0.70979   1.01225
 RFO step:  Lambda=-1.26097902D-01 EMin= 2.30000000D-03
 Linear search not attempted -- first point.
 Maximum step size (   0.300) exceeded in Quadratic search.
    -- Step size scaled by   0.658
 Iteration  1 RMS(Cart)=  0.12154644 RMS(Int)=  0.00375933
 Iteration  2 RMS(Cart)=  0.00539476 RMS(Int)=  0.00091020
 Iteration  3 RMS(Cart)=  0.00001111 RMS(Int)=  0.00091015
 Iteration  4 RMS(Cart)=  0.00000001 RMS(Int)=  0.00091015
 Variable       Old X    -DE/DX   Delta X   Delta X   Delta X     New X
                                 (Linear)    (Quad)   (Total)
    R1        2.28152  -0.01249   0.00000  -0.00722  -0.00722   2.27430
    R2        3.01128  -0.03101   0.00000  -0.05538  -0.05538   2.95590
    R3        2.14981  -0.01191   0.00000  -0.01847  -0.01847   2.13134
    R4        2.68848   0.02305   0.00000   0.02991   0.02995   2.71842
    R5        3.27975  -0.05893   0.00000  -0.14370  -0.14414   3.13561
    R6        2.42232   0.10618   0.00000   0.08664   0.08714   2.50945
    R7        2.08553  -0.00628   0.00000  -0.00901  -0.00901   2.07652
    R8        2.80969  -0.02508   0.00000  -0.03136  -0.03116   2.77853
    R9        2.10883  -0.02222   0.00000  -0.03280  -0.03280   2.07603
   R10        3.25500  -0.03403   0.00000  -0.04878  -0.04878   3.20622
   R11        3.28688   0.00657   0.00000   0.01869   0.01924   3.30612
   R12        3.22984   0.04683   0.00000   0.06576   0.06584   3.29568
   R13        2.55593   0.07769   0.00000   0.07336   0.07319   2.62911
   R14        2.10046  -0.01317   0.00000  -0.01925  -0.01925   2.08121
   R15        2.70478  -0.05097   0.00000  -0.06864  -0.06900   2.63578
   R16        2.12485  -0.00883   0.00000  -0.01329  -0.01329   2.11156
   R17        2.54049  -0.03521   0.00000  -0.03893  -0.03940   2.50109
   R18        2.08692  -0.00780   0.00000  -0.01121  -0.01121   2.07571
    A1        2.22901  -0.00793   0.00000  -0.00631  -0.00828   2.22073
    A2        1.98057   0.02116   0.00000   0.06055   0.05837   2.03894
    A3        1.94455  -0.00194   0.00000   0.00607   0.00404   1.94859
    A4        1.79034   0.02392   0.00000   0.04041   0.04081   1.83114
    A5        2.52472  -0.04477   0.00000  -0.08494  -0.08490   2.43983
    A6        1.94802   0.01957   0.00000   0.04179   0.04141   1.98943
    A7        1.98660   0.00768   0.00000   0.03817   0.03819   2.02480
    A8        1.88734   0.01428   0.00000   0.03245   0.03264   1.91998
    A9        2.23104  -0.02022   0.00000  -0.04985  -0.05024   2.18081
   A10        1.87775   0.02029   0.00000   0.05644   0.05849   1.93624
   A11        2.06503  -0.01191   0.00000  -0.02528  -0.02559   2.03944
   A12        2.09416  -0.01235   0.00000  -0.03069  -0.03133   2.06283
   A13        2.24179  -0.00436   0.00000  -0.01415  -0.01511   2.22669
   A14        1.89550  -0.00336   0.00000  -0.00025  -0.00195   1.89354
   A15        2.12648   0.00219   0.00000  -0.00305  -0.00416   2.12232
   A16        1.60388  -0.00816   0.00000   0.01734   0.01953   1.62341
   A17        2.11843   0.00434   0.00000   0.01969   0.01955   2.13798
   A18        1.97305   0.00647   0.00000   0.01487   0.01367   1.98672
   A19        2.07682  -0.00325   0.00000  -0.00040  -0.00167   2.07515
   A20        2.42852   0.00878   0.00000   0.01990   0.01865   2.44717
   A21        1.72718   0.02548   0.00000   0.07336   0.07222   1.79940
   A22        1.95884  -0.02100   0.00000  -0.04215  -0.04407   1.91477
   A23        2.64429   0.02151   0.00000   0.02576   0.02427   2.66856
   A24        2.54377  -0.00651   0.00000  -0.01994  -0.02115   2.52262
   A25        1.86191  -0.00384   0.00000  -0.00581  -0.00552   1.85639
   A26        1.86890   0.01122   0.00000   0.03031   0.03069   1.89959
    D1       -1.70202  -0.01706   0.00000  -0.08310  -0.08341  -1.78543
    D2        1.69709  -0.01737   0.00000  -0.08206  -0.08249   1.61459
    D3        0.87388   0.01264   0.00000   0.05779   0.05823   0.93211
    D4       -2.01020   0.01233   0.00000   0.05884   0.05915  -1.95106
    D5        2.66632   0.01674   0.00000   0.03417   0.03249   2.69881
    D6       -1.02986   0.01163   0.00000   0.04348   0.04389  -0.98596
    D7       -0.63441   0.00555   0.00000   0.01165   0.01006  -0.62435
    D8        1.95260   0.00044   0.00000   0.02096   0.02146   1.97406
    D9        2.71452   0.00235   0.00000  -0.00220  -0.00274   2.71179
   D10       -0.60192   0.01243   0.00000   0.04766   0.04719  -0.55473
   D11       -0.15641   0.00269   0.00000   0.00100   0.00031  -0.15611
   D12        2.81032   0.01277   0.00000   0.05086   0.05023   2.86056
   D13        1.93332  -0.00093   0.00000   0.02419   0.02405   1.95738
   D14       -0.51064   0.00776   0.00000   0.03354   0.03289  -0.47774
   D15       -0.52210  -0.01086   0.00000  -0.02853  -0.02790  -0.55000
   D16       -2.96606  -0.00217   0.00000  -0.01918  -0.01906  -2.98512
   D17        0.04289   0.01064   0.00000   0.03698   0.03695   0.07985
   D18       -2.88814   0.03994   0.00000   0.13037   0.12909  -2.75905
   D19        2.47304   0.00231   0.00000   0.03088   0.03141   2.50445
   D20       -0.45800   0.03161   0.00000   0.12427   0.12355  -0.33445
   D21        2.03950  -0.03476   0.00000  -0.11903  -0.11830   1.92120
   D22       -0.90820  -0.00690   0.00000  -0.03139  -0.03114  -0.93934
   D23       -1.08259   0.00099   0.00000  -0.02547  -0.02579  -1.10838
   D24        1.55662   0.01535   0.00000   0.04321   0.04361   1.60023
   D25        0.32988   0.00664   0.00000   0.02069   0.02181   0.35169
   D26       -2.11645  -0.01153   0.00000  -0.06380  -0.06484  -2.18128
   D27       -2.28052  -0.01139   0.00000  -0.05660  -0.05556  -2.33608
   D28        1.55634  -0.02956   0.00000  -0.14109  -0.14221   1.41413
   D29        0.57749  -0.00387   0.00000  -0.02642  -0.02584   0.55165
   D30        2.96640   0.02834   0.00000   0.09542   0.09392   3.06031
   D31       -0.19553   0.00980   0.00000   0.02485   0.02436  -0.17117
   D32        3.12129   0.00052   0.00000  -0.02316  -0.02421   3.09708
         Item               Value     Threshold  Converged?
 Maximum Force            0.106181     0.000450     NO 
 RMS     Force            0.024678     0.000300     NO 
 Maximum Displacement     0.383069     0.001800     NO 
 RMS     Displacement     0.121359     0.001200     NO 
 Predicted change in Energy=-6.891308D-02
 GradGradGradGradGradGradGradGradGradGradGradGradGradGradGradGradGradGrad

                          Input orientation:                          
 ---------------------------------------------------------------------
 Center     Atomic      Atomic             Coordinates (Angstroms)
 Number     Number       Type             X           Y           Z
 ---------------------------------------------------------------------
      1          8           0        2.003741   -1.261801    0.412118
      2          6           0        3.133153   -1.138564    0.015038
      3          6           0        4.451525   -1.413235    0.810751
      4          6           0        4.932915   -0.111864    1.190301
      5          6           0        5.704207   -0.068426    2.270422
      6          6           0        7.084612    0.293334    1.916162
      7         16           0        7.680131    0.730917    0.388900
      8         16           0        8.147796   -0.260324    3.190498
      9          6           0        8.851453   -1.503007    2.189434
     10          6           0        8.108752   -2.565263    1.683833
     11          7           0        6.785422   -2.918047    1.419658
     12          6           0        5.536961   -2.638972    1.080293
     13          1           0        3.299817   -0.405775   -0.825973
     14          1           0        5.063643    0.515655    0.297777
     15          1           0        5.550362   -0.854824    3.021956
     16          1           0        9.754942   -1.180251    1.648642
     17          1           0        8.673777   -3.461254    2.039509
     18          1           0        4.964423   -3.575199    1.033381
 ---------------------------------------------------------------------
                    Distance matrix (angstroms):
                    1          2          3          4          5
     1  O    0.000000
     2  C    1.203508   0.000000
     3  C    2.484650   1.564196   0.000000
     4  C    3.241603   2.382121   1.438528   0.000000
     5  C    4.309396   3.583612   2.346990   1.327946   0.000000
     6  C    5.522304   4.612877   3.326779   2.306698   1.470335
     7  S    6.016051   4.930492   3.898621   2.983239   2.843123
     8  S    6.817020   6.000125   4.544757   3.789233   2.618108
     9  C    7.078714   6.128603   4.611745   4.276503   3.459731
    10  C    6.370827   5.438468   3.932525   4.043350   3.515696
    11  N    5.159725   4.298672   2.842939   3.370319   3.164358
    12  C    3.850545   3.027257   1.659294   2.600624   2.837619
    13  H    1.986318   1.127854   2.240596   2.611274   3.934788
    14  H    3.540540   2.557963   2.087689   1.098848   2.154716
    15  H    4.422149   3.868458   2.531540   2.070794   1.098586
    16  H    7.849635   6.820447   5.374252   4.960189   4.246318
    17  H    7.209395   6.339708   4.850943   5.092506   4.514748
    18  H    3.808335   3.213684   2.233096   3.467031   3.791438
                    6          7          8          9         10
     6  C    0.000000
     7  S    1.696659   0.000000
     8  S    1.749522   3.008358   0.000000
     9  C    2.534412   3.099086   1.743997   0.000000
    10  C    3.045393   3.567264   2.753962   1.391267   0.000000
    11  N    3.263280   3.895883   3.472093   2.619805   1.394793
    12  C    3.419403   4.053067   4.114291   3.675114   2.642689
    13  H    4.725752   4.685631   6.297308   6.412274   5.838525
    14  H    2.598636   2.626909   4.299066   4.690508   4.548175
    15  H    2.212457   3.739448   2.669925   3.465607   3.355821
    16  H    3.061647   3.089394   2.409669   1.101327   2.151613
    17  H    4.078920   4.613691   3.442004   1.971998   1.117389
    18  H    4.498894   5.131575   5.076949   4.554056   3.365986
                   11         12         13         14         15
    11  N    0.000000
    12  C    1.323520   0.000000
    13  H    4.848072   3.691318   0.000000
    14  H    4.001680   3.284513   2.285373   0.000000
    15  H    2.889571   2.636933   4.480307   3.088083   0.000000
    16  H    3.448249   4.499139   6.956449   5.168096   4.435131
    17  H    2.060383   3.381695   6.813691   5.646459   4.185021
    18  H    1.974105   1.098417   4.034025   4.157648   3.420262
                   16         17         18
    16  H    0.000000
    17  H    2.554343   0.000000
    18  H    5.391047   3.845073   0.000000
 Stoichiometry    C8H6NOS2(2)
 Framework group  C1[X(C8H6NOS2)]
 Deg. of freedom    48
 Full point group                 C1      NOp   1
 Largest Abelian subgroup         C1      NOp   1
 Largest concise Abelian subgroup C1      NOp   1
                         Standard orientation:                         
 ---------------------------------------------------------------------
 Center     Atomic      Atomic             Coordinates (Angstroms)
 Number     Number       Type             X           Y           Z
 ---------------------------------------------------------------------
      1          8           0        4.454215   -0.048042    0.459952
      2          6           0        3.507061   -0.182860   -0.270221
      3          6           0        2.044574    0.314937   -0.025190
      4          6           0        1.316640   -0.858521    0.377886
      5          6           0        0.238721   -0.647442    1.124194
      6          6           0       -0.986087   -0.993438    0.387974
      7         16           0       -1.104306   -1.686153   -1.156313
      8         16           0       -2.330415   -0.143482    1.116800
      9          6           0       -2.521882    0.917756   -0.253834
     10          6           0       -1.536055    1.817877   -0.645689
     11          7           0       -0.166415    2.037789   -0.500171
     12          6           0        1.082686    1.628502   -0.345460
     13          1           0        3.535450   -1.054957   -0.984850
     14          1           0        1.407805   -1.639582   -0.389643
     15          1           0        0.233474    0.260436    1.742757
     16          1           0       -3.234015    0.546916   -1.007668
     17          1           0       -2.075837    2.796192   -0.655457
     18          1           0        1.745883    2.504102   -0.349316
 ---------------------------------------------------------------------
 Rotational constants (GHZ):           1.2669179           0.4884194           0.4248494
 Standard basis: 6-31G(2df,p) (6D, 7F)
 There are   410 symmetry adapted cartesian basis functions of A   symmetry.
 There are   374 symmetry adapted basis functions of A   symmetry.
   374 basis functions,   618 primitive gaussians,   410 cartesian basis functions
    51 alpha electrons       50 beta electrons
       nuclear repulsion energy       821.6254859439 Hartrees.
 NAtoms=   18 NActive=   18 NUniq=   18 SFac= 1.00D+00 NAtFMM=   60 NAOKFM=F Big=F
 Integral buffers will be    131072 words long.
 Raffenetti 2 integral format.
 Two-electron integral symmetry is turned on.
 One-electron integrals computed using PRISM.
 PrsmSu:  requested number of processors reduced to:  13 ShMem   1 Linda.
 NBasis=   374 RedAO= T EigKep=  3.12D-04  NBF=   374
 NBsUse=   374 1.00D-06 EigRej= -1.00D+00 NBFU=   374
 Initial guess from the checkpoint file:  "OdC[C]1CdCCqdSrSCdCNdC1.chk"
 B after Tr=    -0.000000    0.000000    0.000000
         Rot=    0.999679    0.002392    0.004912    0.024753 Ang=   2.91 deg.
 Initial guess <Sx>= 0.0000 <Sy>= 0.0000 <Sz>= 0.5000 <S**2>= 1.0374 S= 0.6346
 ExpMin= 1.17D-01 ExpMax= 2.19D+04 ExpMxC= 3.30D+03 IAcc=2 IRadAn=         4 AccDes= 0.00D+00
 Harris functional with IExCor=  402 and IRadAn=       4 diagonalized for initial guess.
 HarFok:  IExCor=  402 AccDes= 0.00D+00 IRadAn=         4 IDoV= 1 UseB2=F ITyADJ=14
 ICtDFT=  3500011 ScaDFX=  1.000000  1.000000  1.000000  1.000000
 FoFCou: FMM=F IPFlag=           0 FMFlag=      100000 FMFlg1=           0
         NFxFlg=           0 DoJE=T BraDBF=F KetDBF=T FulRan=T
         wScrn=  0.000000 ICntrl=       500 IOpCl=  0 I1Cent=   200000004 NGrid=           0
         NMat0=    1 NMatS0=      1 NMatT0=    0 NMatD0=    1 NMtDS0=    0 NMtDT0=    0
 Petite list used in FoFCou.
 Requested convergence on RMS density matrix=1.00D-08 within 128 cycles.
 Requested convergence on MAX density matrix=1.00D-06.
 Requested convergence on             energy=1.00D-06.
 No special actions if energy rises.
 Integral accuracy reduced to 1.0D-05 until final iterations.
 Initial convergence to 1.0D-05 achieved.  Increase integral accuracy.
 SCF Done:  E(UB3LYP) =  -1234.51607533     A.U. after   20 cycles
            NFock= 20  Conv=0.61D-08     -V/T= 2.0048
 <Sx>= 0.0000 <Sy>= 0.0000 <Sz>= 0.5000 <S**2>= 1.0007 S= 0.6183
 <L.S>=  0.00000000000    
 Annihilation of the first spin contaminant:
 S**2 before annihilation     1.0007,   after     0.7746
 PrsmSu:  requested number of processors reduced to:  13 ShMem   1 Linda.
 Calling FoFJK, ICntrl=      2127 FMM=F ISym2X=0 I1Cent= 0 IOpClX= 1 NMat=1 NMatS=1 NMatT=0.
 ***** Axes restored to original set *****
 -------------------------------------------------------------------
 Center     Atomic                   Forces (Hartrees/Bohr)
 Number     Number              X              Y              Z
 -------------------------------------------------------------------
      1        8           0.008545525   -0.018268650   -0.000503114
      2        6           0.004308237    0.013635030    0.010240478
      3        6           0.034143661   -0.015922211    0.010061301
      4        6          -0.023407292   -0.034226617   -0.051681388
      5        6           0.043790871    0.006975873    0.008579523
      6        6          -0.013603088    0.012551713   -0.005048510
      7       16          -0.008500503    0.003484350    0.021970946
      8       16           0.007437415    0.008323598    0.012669815
      9        6           0.005073337    0.029566965   -0.024779596
     10        6          -0.050715595   -0.039004133    0.013510846
     11        7           0.022143298    0.029280609    0.016282521
     12        6          -0.044971069    0.006669729   -0.000251378
     13        1           0.007488049   -0.012881498    0.000286068
     14        1          -0.003210629    0.012337202    0.012785450
     15        1           0.002957925    0.016476013    0.001786543
     16        1           0.007564766   -0.020343481    0.017952531
     17        1           0.001431200   -0.002630382   -0.031251978
     18        1          -0.000476108    0.003975890   -0.012610058
 -------------------------------------------------------------------
 Cartesian Forces:  Max     0.051681388 RMS     0.020249674

 GradGradGradGradGradGradGradGradGradGradGradGradGradGradGradGradGradGrad
 Berny optimization.
 Using GEDIIS/GDIIS optimizer.
 FormGI is forming the generalized inverse of G from B-inverse, IUseBI=4.
 Internal  Forces:  Max     0.063538453 RMS     0.016278492
 Search for a local minimum.
 Step number   2 out of a maximum of   86
 All quantities printed in internal units (Hartrees-Bohrs-Radians)
 Mixed Optimization -- RFO/linear search
 Update second derivatives using D2CorX and points    1    2
 DE= -7.08D-02 DEPred=-6.89D-02 R= 1.03D+00
 TightC=F SS=  1.41D+00  RLast= 4.60D-01 DXNew= 5.0454D-01 1.3794D+00
 Trust test= 1.03D+00 RLast= 4.60D-01 DXMaxT set to 5.05D-01
 ITU=  1  0
 Use linear search instead of GDIIS.
 Linear search step of   0.601 exceeds DXMaxT=   0.505 but not scaled.
 Quartic linear search produced a step of  2.00000.
 Iteration  1 RMS(Cart)=  0.22321982 RMS(Int)=  0.02080687
 Iteration  2 RMS(Cart)=  0.03264828 RMS(Int)=  0.00548454
 Iteration  3 RMS(Cart)=  0.00043501 RMS(Int)=  0.00547710
 Iteration  4 RMS(Cart)=  0.00000261 RMS(Int)=  0.00547710
 Iteration  5 RMS(Cart)=  0.00000002 RMS(Int)=  0.00547710
 Variable       Old X    -DE/DX   Delta X   Delta X   Delta X     New X
                                 (Linear)    (Quad)   (Total)
    R1        2.27430  -0.00631  -0.01444   0.00000  -0.01444   2.25986
    R2        2.95590  -0.02532  -0.11076   0.00000  -0.11076   2.84514
    R3        2.13134  -0.00748  -0.03695   0.00000  -0.03695   2.09439
    R4        2.71842   0.00221   0.05989   0.00000   0.06012   2.77854
    R5        3.13561  -0.06354  -0.28828   0.00000  -0.29022   2.84539
    R6        2.50945   0.04315   0.17427   0.00000   0.17675   2.68621
    R7        2.07652  -0.00372  -0.01801   0.00000  -0.01801   2.05851
[...]
 32,0.5112113,0.02602,0.2367129,-0.2868827,0.0999961,-0.0956534,0.23489
 92,-0.0340971,-0.2684559,-0.0623828,-0.1173208,0.1635842,0.2897758,0.2
 510155,-0.1039345,0.0673466,-0.1053112,0.3869038,0.2838624,-0.1721708,
 0.1199062,0.2164147,-0.0147433,-0.1290301,-0.1316374,0.026092,-0.44974
 33,-0.184415,0.090271,-0.2199637,-0.6938813,0.0632622,0.0090229,0.2179
 071,-0.3297352,0.2599995,-0.0766303,-0.0978218,0.1919685,0.5693633,-0.
 2099773,-0.0545515,-0.3521687,0.1892721,-0.0064656,0.0042017,-0.035646
 4,0.1162887,-0.0858877,0.173694,-0.088308,0.082378,-0.0705766,0.119852
 5,-0.0344446,0.0033614,0.0061185,0.0446089,0.0523614,-0.0232104,0.0479
 715,0.038916,-0.0190314,-0.0271075,-0.0749539,0.0276523,0.0867067,0.09
 12795,0.022212,0.0655151,0.0756606,0.0245842,-0.0067872,0.037902,0.037
 712,-0.0617548,-0.0526919,0.0660247,-0.0656293,0.1179898,0.0229487,0.0
 372753,0.0171788,-0.0426435,-0.034472,-0.0643361,0.1403942,0.02087,0.0
 999737,-0.0087082,-0.0318638,0.0276084,-0.0775047,-0.0068071,0.0322181
 ,0.0030812,0.0134509,0.0617986\Polar=173.2431041,43.5064049,200.805702
 2,41.1802667,15.9991456,93.5645776\Quadrupole=-0.0056119,-3.5533881,3.
 559,-8.4194774,-4.1656887,-2.7946219\PG=C01 [X(C8H6N1O1S2)]\NImag=0\\0
 .24781602,0.32976384,0.59350177,0.06498539,0.05102913,0.06586815,-0.23
 081655,-0.25321663,-0.04623324,0.43875707,-0.26924254,-0.53678165,-0.0
 3609525,0.21948703,0.80019281,-0.03764017,-0.01941951,-0.08952324,0.16
 273365,-0.08792649,0.39700699,-0.03283518,-0.05796451,-0.02838767,-0.1
 2332598,0.02792845,-0.06332410,0.36932414,-0.04962697,-0.02019589,-0.0
 3398513,-0.00456026,-0.08469102,0.01953039,0.13454637,0.56688027,-0.02
 729812,-0.04024280,0.01018411,-0.05297903,0.04216479,-0.15901098,0.180
 58241,-0.07810693,0.35915217,0.00453557,0.01063984,-0.00126849,-0.0188
 1099,-0.03590804,-0.01671968,-0.09517989,-0.07222191,-0.02792301,0.313
 56962,0.00844642,0.01558954,0.00397437,-0.02057947,-0.01929290,-0.0174
 5599,-0.08856423,-0.26595654,-0.00507356,0.13258247,0.54981889,-0.0028
 9724,0.00739442,-0.00213074,-0.01598306,-0.03350657,-0.00424630,-0.000
 20544,0.03239750,-0.08257861,0.18240102,-0.15227823,0.54697370,-0.0059
 0996,-0.00693165,-0.00177105,0.01062352,0.00215423,0.00635713,-0.04243
 808,-0.04856024,-0.02679496,-0.12463022,-0.01073993,-0.11962330,0.4329
 0998,-0.00384340,-0.00462872,-0.00290266,0.00218249,-0.00052561,0.0087
 6989,-0.03811083,-0.02288896,-0.03005276,-0.01602336,-0.07459740,-0.00
 065792,0.17863301,0.40421893,-0.00287296,-0.00719038,-0.00209048,0.004
 04066,0.00857695,0.01097811,-0.04063630,-0.04306718,-0.00343238,-0.113
 60311,0.01131004,-0.25325024,0.16022774,-0.12885377,0.53594624,0.00153
 437,0.00271742,0.00108580,-0.00278736,-0.00111311,-0.00437380,0.006736
 58,0.00106767,0.00397272,-0.02329173,-0.01191442,-0.00789751,-0.188829
 97,-0.10770919,-0.00485823,0.33921724,0.00193226,0.00387679,0.00122791
 ,-0.00124435,-0.00416518,-0.00538066,0.01110283,0.01853956,0.00621599,
 -0.03933463,-0.01256859,-0.02105633,-0.07240314,-0.11054426,0.01531964
 ,0.10896005,0.46767283,-0.00027546,0.00041324,-0.00024587,-0.00000947,
 -0.00161130,-0.00008283,-0.00256128,0.00254563,-0.00238774,-0.02023194
 ,-0.01919160,-0.00046707,-0.01821116,0.00278481,-0.06869476,0.04608546
 ,-0.03038232,0.14204371,-0.00049623,-0.00042870,-0.00023541,0.00115064
 ,-0.00024213,0.00073918,0.00030455,0.00204520,-0.00092018,-0.00269555,
 -0.00272742,-0.00100853,0.00439306,-0.01568695,0.00083315,-0.03125663,
 -0.01816001,-0.00136332,0.02888004,-0.00118078,-0.00143267,-0.00092774
 ,0.00190275,0.00091356,0.00289188,-0.00502283,-0.00378996,-0.00180703,
 0.01044193,0.00162627,0.00638420,-0.02075374,-0.03345116,-0.00107582,-
 0.02046562,-0.29002106,0.02478440,0.01497304,0.35842998,0.00036819,0.0
 0060620,0.00032622,-0.00047620,-0.00040408,-0.00124143,0.00241557,0.00
 170782,0.00117071,-0.00356387,-0.00118554,-0.00315367,0.00795288,0.003
 40127,0.01404738,-0.00615562,0.02595043,-0.03658174,0.00229766,-0.0373
 0050,0.01658467,-0.00073416,-0.00122501,-0.00034403,0.00059422,0.00036
 678,0.00174886,-0.00143128,-0.00186248,-0.00352336,0.00223887,-0.00170
 784,0.00346983,-0.04343897,0.00594402,-0.01617077,-0.11171411,0.011756
 98,-0.03417429,0.00467423,0.02067402,0.00171743,0.20502230,0.00020746,
 0.00046313,-0.00002967,-0.00073864,-0.00041158,-0.00034184,0.00010762,
 -0.00140064,0.00203213,-0.00063336,-0.00077310,-0.00142634,0.00351102,
 0.00592009,0.00128024,0.03487217,-0.04465264,0.01171582,0.01790601,-0.
 03183676,0.00714620,-0.02634991,0.21783603,-0.00034675,-0.00087216,-0.
 00022081,0.00033847,0.00080708,0.00123700,-0.00293689,-0.00310750,-0.0
 0064533,0.00459728,0.00264345,0.00488712,-0.01587293,-0.00118129,0.004
 37169,-0.02485984,0.00062126,-0.03620700,-0.00000671,0.00933646,0.0068
 5697,0.05811853,0.05482659,0.06484668,0.00012165,0.00010928,0.00014524
 ,0.00030464,0.00115274,-0.00100372,0.00005147,0.00115368,-0.00277071,-
 0.00143407,0.00069537,0.00012777,-0.00275077,0.00129084,0.00001454,0.0
 0909572,0.01591234,0.01680182,-0.00223017,0.00226711,-0.00403176,-0.06
 063213,-0.02169740,-0.01951120,0.63168736,0.00003997,-0.00082767,0.000
 48771,-0.00029315,0.00214686,-0.00048873,-0.00193509,0.00167671,-0.005
 97928,0.00097196,0.00130306,0.00181978,-0.00494811,-0.00392642,0.00056
 074,0.01007074,-0.01096962,-0.00198936,0.00086550,-0.00071769,-0.00012
 906,-0.01690092,-0.10680669,-0.04262564,0.13818737,0.42893056,-0.00000
 658,0.00008075,-0.00002350,-0.00033832,0.00010834,0.00010217,0.0007500
 1,-0.00086916,-0.00003644,-0.00006760,-0.00031066,-0.00068390,0.000625
 92,0.00068944,0.00139762,0.00494073,0.00655451,-0.00133689,-0.00271636
 ,-0.00069133,0.00078145,-0.01067488,-0.05160017,-0.04379049,-0.0712200
 1,0.14004708,0.17306218,-0.00001451,0.00031172,-0.00078876,-0.00086061
 ,-0.00409002,0.00248934,0.00615266,-0.00848904,0.00805219,0.00388715,-
 0.00034084,-0.00063594,0.00129951,0.00276787,-0.00217200,0.00748585,-0
 .00667756,0.00136266,-0.00231908,0.00323424,-0.00013122,-0.00023496,-0
 .00116075,0.00257961,-0.26984438,-0.15895346,-0.03031506,0.64528440,0.
 00003914,-0.00066756,-0.00024159,0.00011068,-0.00049581,0.00113224,0.0
 0272302,-0.00439421,-0.00210885,0.00400193,-0.00003672,0.00131626,0.00
 048811,-0.00135143,-0.00151515,-0.00014802,0.00029452,0.00049690,0.000
 06737,0.00076085,0.00001271,-0.01353904,-0.02671988,-0.01003933,-0.188
 69230,-0.22947319,-0.05166316,0.14625347,0.55340284,0.00024888,-0.0005
 2733,0.00028997,0.00006752,0.00217385,-0.00010109,-0.00413183,-0.00286
 058,-0.00555282,-0.00091568,-0.00136195,0.00015332,0.00098800,-0.00113
 067,0.00122220,-0.00438967,0.00257101,0.00119585,0.00177798,-0.0008096
 8,-0.00006407,-0.00717381,-0.01135815,-0.00495909,-0.03743792,-0.06534
 136,-0.06503718,-0.06279362,0.17874942,0.24706431,-0.00055092,-0.00241
 913,0.00086821,0.00837845,0.00672560,-0.00186146,-0.01886561,0.0391762
 7,-0.03496588,-0.01474264,-0.00910427,-0.00157860,0.00296569,-0.002324
 51,0.00629605,-0.00528976,0.00470295,-0.00090420,0.00117843,-0.0016975
 5,-0.00007995,0.00540161,0.00444173,-0.00234330,-0.04251558,-0.0285485
 0,0.01613364,-0.23633797,-0.03122360,0.05983264,0.84760020,0.00057889,
 0.00418269,-0.00134370,-0.00487039,-0.00971135,0.00090911,0.03247476,0
 .00095514,0.02758540,-0.00074550,0.00333089,-0.00389726,0.00084567,-0.
 00412329,-0.00127304,-0.00373129,-0.00233283,0.00032466,0.00084883,-0.
 00095924,-0.00030216,0.00388117,0.00354328,0.00263807,-0.02476825,0.00
 098295,0.00629276,-0.02110529,-0.07653192,-0.00413602,-0.10647810,0.17
 231558,-0.00167351,-0.00211243,0.00050997,0.00512048,0.00256108,0.0003
 4674,-0.02243903,0.03000744,0.00155201,-0.00713376,-0.00315641,-0.0048
 3240,0.00130334,0.00164950,0.00171793,0.00034638,-0.00296876,0.0007757
 0,-0.00039096,0.00132692,-0.00064904,-0.00070818,-0.00272248,-0.000853
 08,0.00769162,0.02340983,0.00910097,0.02674598,-0.02469456,-0.07742484
 ,0.07073746,-0.05479937,0.14425193,0.00119407,0.00171669,0.00296700,-0
 .00957174,0.01771528,-0.01804331,-0.08857812,-0.00980218,-0.00117205,0
 .01624495,-0.00589895,0.00884958,-0.00371806,0.00040366,-0.00185644,0.
 00040802,-0.00197082,-0.00008760,-0.00046571,-0.00031438,-0.00017465,-
 0.00081629,-0.00271135,-0.00070593,0.01103074,0.01691962,-0.00167341,-
 0.06741870,0.00546857,-0.00245082,-0.47323242,0.10373068,-0.10884293,0
 .80003909,-0.00398015,-0.01055643,0.00177085,0.02048434,0.01940140,0.0
 0034624,-0.00131619,-0.15055240,0.05009962,-0.00894580,-0.03297742,0.0
 1872646,0.00301014,-0.00390109,0.00547264,0.00079346,0.00115558,0.0005
 6761,-0.00002653,0.00112100,-0.00003750,-0.00049771,0.00119621,0.00031
 598,-0.00506874,-0.00566734,0.00342877,-0.00336347,-0.00174874,0.00132
 120,0.11161357,-0.09840083,0.04400451,0.00868487,0.40984797,0.00565581
 ,0.00529839,-0.00186644,-0.02134869,0.01340055,-0.01341598,-0.02176446
 ,0.04921710,-0.12302819,0.01855507,0.01207481,0.01043608,-0.00509144,-
 0.00568222,-0.00854019,0.00162987,0.00301384,0.00023597,-0.00030417,-0
 .00071510,0.00059411,-0.00209947,-0.00000924,-0.00160767,0.00152147,-0
 .00318627,-0.00214456,0.01616692,0.00550731,-0.00369558,-0.11902886,0.
 05100164,-0.08380552,0.05575621,-0.18574581,0.31648112,0.01546549,-0.0
 2564115,0.01004446,-0.07110548,0.03659385,-0.03320222,0.00253166,0.014
 35611,-0.02221919,-0.00000834,0.00186520,0.00039810,-0.00016084,0.0001
 5141,0.00048523,-0.00025995,-0.00029031,-0.00006826,0.00002145,-0.0000
 9649,-0.00001881,0.00023505,-0.00007535,0.00004915,-0.00019147,0.00027
 493,0.00007329,0.00023618,-0.00017159,-0.00016102,-0.00074695,0.001554
 15,-0.00026922,-0.00120190,-0.00448440,-0.00254171,0.05536905,-0.01315
 224,-0.04517139,0.01848436,0.04038937,-0.16365268,0.09777571,-0.003799
 67,0.00315824,0.00144358,0.00075260,0.00071511,-0.00040090,0.00046632,
 0.00045416,0.00002411,-0.00037594,0.00017125,0.00016656,0.00016255,0.0
 0029945,-0.00006149,-0.00004427,-0.00002139,-0.00008606,0.00000043,-0.
 00039006,-0.00003226,0.00036829,0.00026535,-0.00013343,-0.00022979,0.0
 0025045,0.00011616,-0.00165689,0.00075315,-0.00017794,-0.02356264,0.20
 285617,0.00307748,0.00672239,0.01823507,-0.03610584,0.09090379,-0.1420
 6934,-0.01087202,0.02023238,-0.00593394,0.00178185,0.00071709,-0.00079
 555,0.00005071,-0.00081405,-0.00005351,-0.00006509,0.00046776,-0.00010
 019,0.00002722,-0.00029191,0.00010736,0.00003019,-0.00000550,-0.000006
 33,-0.00031896,-0.00023490,-0.00012053,0.00107269,0.00033704,-0.000394
 04,-0.00090508,0.00136237,-0.00030798,-0.00375451,-0.00154582,-0.00062
 978,0.04670016,-0.11696671,0.13189057,0.00124000,0.00235222,-0.0002988
 7,-0.00237197,-0.00164027,0.00187927,0.01116637,-0.00428788,0.01077764
 ,-0.06076716,-0.00118982,-0.02622427,0.00947275,0.01416896,-0.00700941
 ,0.00035804,0.00085144,0.00111872,-0.00005117,0.00057884,-0.00004899,-
 0.00034277,0.00014693,0.00070104,-0.00028653,-0.00023069,-0.00025766,0
 .00024627,-0.00045772,-0.00044539,-0.00071520,0.00062549,0.00203701,0.
 00331939,-0.00260469,-0.00459726,-0.00011840,0.00061153,-0.00070441,0.
 03729829,-0.00087537,-0.00030413,-0.00037484,0.00445629,0.00041820,0.0
 0111873,0.00052451,-0.01909314,0.01802326,0.01199925,-0.17517938,0.143
 33712,-0.00345575,0.00625378,-0.00853369,0.00075927,0.00031890,-0.0004
 6442,0.00004208,-0.00060212,0.00023849,0.00025012,-0.00014491,0.000131
 86,0.00027105,-0.00005604,0.00001967,-0.00007808,0.00013746,-0.0000868
 3,0.00035547,0.00027599,-0.00050551,-0.00606077,-0.00161742,0.00098596
 ,-0.00081920,0.00046515,-0.00081740,-0.00558589,0.18886902,-0.00031999
 ,0.00035424,0.00021122,0.00108818,-0.00214525,-0.00044129,-0.00190058,
 -0.00518315,0.00502063,-0.01609424,0.14419056,-0.19188315,-0.00448725,
 0.01682326,-0.02013156,0.00150921,0.00012587,-0.00004818,0.00032767,-0
 .00106434,0.00049269,0.00031818,-0.00010729,0.00018012,0.00012931,0.00
 016929,-0.00001143,0.00007147,0.00015700,0.00007500,0.00000369,-0.0001
 9634,-0.00082627,-0.00284656,-0.00077602,0.00215260,0.00040309,0.00034
 397,0.00007372,0.02648622,-0.15311447,0.20617538,0.00006839,-0.0000020
 5,-0.00007503,-0.00044349,-0.00006924,0.00041401,-0.00108146,0.0035815
 9,0.00035160,0.00168426,0.00777813,-0.01902827,-0.04947467,-0.02117447
 ,0.01707797,0.00052337,-0.01624441,0.01577923,-0.00178803,-0.00323051,
 -0.00093445,-0.00354896,-0.00125257,-0.00049346,-0.00060444,-0.0006229
 7,0.00060933,-0.00017481,0.00148072,0.00089113,0.00101216,-0.00088298,
 0.00128223,-0.00034448,0.00012422,-0.00151775,0.00006298,-0.00004500,-
 0.00001633,0.00183418,-0.00234976,-0.00479467,0.05245740,-0.00000477,-
 0.00011662,0.00008139,-0.00024732,0.00035306,-0.00013810,0.00104340,-0
 .00412887,-0.00089176,0.00160922,0.00938225,-0.00085285,-0.02196399,-0
 .15672292,0.14826990,-0.00966191,-0.01572875,0.01495267,-0.00105771,0.
 00115232,-0.00076547,0.00329290,0.00059523,-0.00142678,-0.00022345,0.0
 0089218,0.00038271,0.00153536,-0.00007734,-0.00095676,0.00005160,-0.00
 542295,-0.00073820,-0.00324259,-0.00280444,-0.00427964,0.00007080,-0.0
 0013743,0.00012560,-0.00396893,0.00141516,0.00109418,0.03313228,0.1716
 5685,0.00008145,-0.00021127,0.00024650,-0.00037303,0.00040743,-0.00061
 289,0.00157346,0.00009905,0.00040903,0.00012439,0.02114174,-0.01697419
 ,0.01676055,0.13830439,-0.21228756,-0.00547268,-0.00270657,0.00474158,
 0.00050525,0.00129329,-0.00017429,-0.00069807,-0.00031079,0.00046888,0
 .00005111,0.00029322,0.00011001,0.00091707,-0.00052898,-0.00048529,-0.
 00012830,0.00011743,0.00024441,-0.00034280,-0.00152879,0.00054348,0.00
 011751,-0.00023943,0.00022085,-0.00389377,-0.00080737,-0.00117765,-0.0
 0901602,-0.15524739,0.22448481,0.00001066,-0.00000525,-0.00001033,0.00
 002995,0.00015113,-0.00005712,0.00012330,-0.00022543,-0.00044678,0.000
 01506,0.00032988,0.00025507,-0.00043749,-0.00013049,0.00021254,-0.0007
 7843,0.00073508,-0.00260232,0.00007622,-0.00105535,0.00060801,0.005313
 77,-0.00251910,0.00041034,-0.27283024,0.06353535,0.10073512,-0.0222061
 3,0.00508393,0.01031093,0.00151955,-0.00165717,-0.00105399,0.00067177,
 -0.00146579,0.00094575,-0.00003829,0.00001298,-0.00003972,-0.00005844,
 0.00000672,0.00000786,0.00005178,-0.00007958,-0.00012007,0.28934079,0.
 00012468,0.00020425,0.00004033,-0.00018976,-0.00001743,-0.00026462,0.0
 0014338,0.00008644,0.00037047,-0.00041144,-0.00004607,-0.00046405,0.00
 069274,-0.00040757,0.00069608,-0.00294139,-0.00215105,-0.00500649,0.00
 121399,-0.00103225,0.00110888,0.01804110,-0.01600453,-0.00925212,0.075
 28370,-0.05732266,-0.03854525,-0.02036935,-0.00097964,0.00701373,-0.00
 526430,0.00116218,-0.00478124,-0.00070433,-0.00080500,0.00082205,-0.00
 004012,-0.00001471,-0.00002917,0.00008607,-0.00001821,-0.00005854,0.00
 010725,-0.00025431,-0.00014859,-0.06341241,0.07820900,0.00000796,0.000
 01967,0.00002463,0.00007465,0.00011326,-0.00017088,0.00022367,0.000098
 54,-0.00051830,-0.00006269,0.00036187,0.00027379,-0.00098688,0.0000054
 0,-0.00008298,-0.00235053,0.00202564,-0.00267429,0.00020607,-0.0014760
 1,0.00074417,0.00959076,-0.00897160,-0.00086478,0.10585050,-0.03662797
 ,-0.07323496,-0.00602723,0.00248809,0.00247679,0.00238751,-0.00432744,
 0.00795374,0.00232053,-0.00087777,0.00063435,-0.00002825,0.00002022,-0
 .00002708,-0.00014714,0.00001427,0.00002143,-0.00004018,0.00009599,0.0
 0001178,-0.10766658,0.04442177,0.07083292,-0.00012626,-0.00016472,-0.0
 0008461,0.00057595,0.00029324,-0.00016665,0.00003438,0.00102513,-0.000
 62401,-0.00069765,0.00004445,-0.00003609,0.00013088,-0.00041114,0.0001
 3149,-0.00066048,-0.00002004,-0.00054907,0.00046505,-0.00014388,0.0002
 1362,-0.00082848,-0.00407514,0.00028379,0.00262022,-0.01869529,-0.0072
 7610,-0.06627432,0.07233997,0.04735334,-0.03110760,0.02411281,0.021451
 56,0.00085710,-0.00321312,0.00456268,-0.00010420,0.00002163,-0.0000070
 1,0.00005600,0.00002187,-0.00000515,-0.00020586,-0.00028622,-0.0000782
 6,-0.00042735,-0.00203441,-0.00310308,0.09573324,0.00008726,0.00019127
 ,-0.00003207,-0.00028422,0.00010285,-0.00009216,0.00012608,-0.00146543
 ,0.00058683,0.00021501,0.00017497,-0.00023642,0.00029081,0.00015495,0.
 00002637,-0.00105536,0.00139656,-0.00006459,0.00024903,-0.00024102,0.0
 0002124,-0.00232909,-0.00056230,-0.00273721,0.00258817,-0.01992635,-0.
 01358316,0.06764091,-0.21907616,-0.10936820,0.00435399,0.00606938,0.00
 200840,-0.00432066,0.00247290,-0.00175417,-0.00007946,0.00000579,-0.00
 008173,0.00004608,0.00001569,-0.00002653,0.00003606,-0.00014743,-0.000
 01731,0.00030684,-0.00090358,0.00272916,-0.06811694,0.23182877,-0.0000
 6368,-0.00018745,0.00008749,0.00014525,-0.00018574,-0.00006958,0.00025
 129,0.00149113,-0.00037326,-0.00009072,-0.00000269,0.00020189,-0.00053
 588,-0.00039782,0.00016130,0.00206116,-0.00189955,-0.00012656,-0.00017
 090,0.00045265,0.00009142,-0.00008669,0.00039519,0.00627643,0.00275159
 ,-0.01068602,0.00206300,0.04475097,-0.10744978,-0.10423870,0.01169806,
 -0.00603183,-0.00200508,0.00176487,-0.00234889,0.00055138,0.00014417,-
 0.00003646,0.00014758,-0.00006519,-0.00004094,0.00004232,-0.00031363,0
 .00025204,0.00010075,-0.00164661,0.00397836,-0.00506486,-0.06062797,0.
 12287479,0.10219687,-0.00050247,0.00038778,-0.00059860,-0.00032026,-0.
 00026299,0.00003078,0.00731049,0.00268439,-0.00209927,0.00008276,0.001
 02527,-0.00038314,-0.00000634,-0.00012789,-0.00014016,-0.00049077,0.00
 039134,-0.00010951,0.00015888,-0.00011082,0.00004217,0.00024204,0.0000
 2063,-0.00000122,-0.00159201,0.00026275,0.00067796,0.00109345,-0.00382
 465,-0.00157068,-0.04395143,-0.00441345,0.00579552,-0.18841770,-0.1097
 4402,0.07350002,0.00001397,0.00008074,0.00004867,-0.00027965,0.0005381
 8,0.00010356,-0.00002831,0.00000089,-0.00000778,-0.00037649,-0.0003253
 9,-0.00024908,-0.00004063,0.00024549,0.00003393,0.22710446,0.00068631,
 0.00267331,-0.00116341,-0.00278875,-0.00378353,-0.00096610,-0.01400707
 ,-0.01273929,0.01574089,0.00100984,-0.00051286,0.00340113,-0.00033550,
 0.00006692,-0.00002771,-0.00012453,-0.00029202,-0.00004221,-0.00004415
 ,-0.00021950,-0.00000745,0.00024917,-0.00021955,0.00000733,0.00153805,
 0.00015140,-0.00030889,0.00251601,0.00669157,0.00624176,0.01586858,0.0
 0441390,-0.00860491,-0.11795645,-0.12691710,0.06022871,0.00039427,-0.0
 0000661,-0.00008123,0.00049833,-0.00115398,-0.00058644,-0.00036629,0.0
 0009403,0.00008993,0.00038865,0.00029514,-0.00011309,-0.00069821,-0.00
 009085,-0.00017701,0.11317175,0.13154902,-0.00103071,-0.00115512,0.000
 11775,0.00023802,0.00065753,0.00131483,0.01336319,0.00985264,0.0060093
 1,0.00021518,0.00360269,-0.00193009,-0.00089142,-0.00075481,-0.0012788
 1,-0.00120835,0.00030033,-0.00003968,0.00040235,-0.00031032,0.00006709
 ,0.00065979,-0.00051314,0.00002970,0.00120931,0.00050093,-0.00019753,-
 0.00134508,0.00804442,0.00947527,-0.00616161,-0.01392428,0.00425082,0.
 07029281,0.06680673,-0.09289517,0.00009352,-0.00023999,-0.00023687,0.0
 0069246,0.00087612,0.00007444,-0.00017571,0.00004246,0.00012979,0.0001
 5789,0.00009838,-0.00033549,-0.00143847,-0.00025323,-0.00004238,-0.075
 07317,-0.07363132,0.07548704\\0.00001669,0.00002509,0.00000460,-0.0000
 2566,-0.00003455,-0.00001709,0.00001748,0.00002549,0.00003236,-0.00000
 922,-0.00001040,-0.00000780,0.00000747,0.00001387,0.00000272,-0.000007
 81,-0.00001352,-0.00000051,0.00000272,0.00000437,0.00000018,-0.0000010
 5,0.00000251,-0.00000246,0.00000125,-0.00000244,0.00000162,0.00001566,
 -0.00000010,-0.00000483,0.00001677,-0.00003674,0.00002385,-0.00002850,
 0.00002326,-0.00003876,-0.00000041,0.00000255,-0.00000049,-0.00000502,
 -0.00000044,0.00000117,-0.00000260,0.00000458,0.00000138,0.00000010,-0
 .00000290,-0.00000281,0.00000668,0.00000262,0.00000045,-0.00000455,-0.
 00000326,0.00000643\\\@


 IT IS THE BEHAVIOR AND DISTRIBUTION OF THE ELECTRONS 
 AROUND THE NUCLEUS THAT GIVES THE FUNDAMENTAL 
 CHARACTER OF AN ATOM:  IT MUST BE THE SAME FOR MOLECULES.

                               -- C. A. COULSON, 1951
 Job cpu time:       0 days  6 hours 52 minutes 49.4 seconds.
 Elapsed time:       0 days  1 hours 43 minutes 22.7 seconds.
 File lengths (MBytes):  RWF=    428 Int=      0 D2E=      0 Chk=     16 Scr=      1
 Normal termination of Gaussian 16 at Tue May 16 12:04:19 2023.
### All Done ###
