### Starting Gaussian ###
 Entering Gaussian System, Link 0=g16
 Initial command:
 /cluster/software/gaussian/gaussian-16-A.03/avx2/g16/l1.exe "/local/scratch/yxie/Gau-27702.inp" -scrdir="/local/scratch/yxie/"
 Entering Link 1 = /cluster/software/gaussian/gaussian-16-A.03/avx2/g16/l1.exe PID=     27703.
  
 Copyright (c) 1988,1990,1992,1993,1995,1998,2003,2009,2016,
            Gaussian, Inc.  All Rights Reserved.
  
 This is part of the Gaussian(R) 16 program.  It is based on
 the Gaussian(R) 09 system (copyright 2009, Gaussian, Inc.),
 the Gaussian(R) 03 system (copyright 2003, Gaussian, Inc.),
 the Gaussian(R) 98 system (copyright 1998, Gaussian, Inc.),
 the Gaussian(R) 94 system (copyright 1995, Gaussian, Inc.),
 the Gaussian 92(TM) system (copyright 1992, Gaussian, Inc.),
 the Gaussian 90(TM) system (copyright 1990, Gaussian, Inc.),
 the Gaussian 88(TM) system (copyright 1988, Gaussian, Inc.),
 the Gaussian 86(TM) system (copyright 1986, Carnegie Mellon
 University), and the Gaussian 82(TM) system (copyright 1983,
 Carnegie Mellon University). Gaussian is a federally registered
 trademark of Gaussian, Inc.
  
 This software contains proprietary and confidential information,
 including trade secrets, belonging to Gaussian, Inc.
  
 This software is provided under written license and may be
 used, copied, transmitted, or stored only in accord with that
 written license.
  
 The following legend is applicable only to US Government
 contracts under FAR:
  
                    RESTRICTED RIGHTS LEGEND
  
 Use, reproduction and disclosure by the US Government is
 subject to restrictions as set forth in subparagraphs (a)
 and (c) of the Commercial Computer Software - Restricted
 Rights clause in FAR 52.227-19.
  
 Gaussian, Inc.
 340 Quinnipiac St., Bldg. 40, Wallingford CT 06492
  
  
 ---------------------------------------------------------------
 Warning -- This program may not be used in any manner that
 competes with the business of Gaussian, Inc. or will provide
 assistance to any competitor of Gaussian, Inc.  The licensee
 of this program is prohibited from giving any competitor of
 Gaussian, Inc. access to this program.  By using this program,
 the user acknowledges that Gaussian, Inc. is engaged in the
 business of creating and licensing software in the field of
 computational chemistry and represents and warrants to the
 licensee that it is not a competitor of Gaussian, Inc. and that
 it will not use this program in any manner prohibited above.
 ---------------------------------------------------------------
  

 Cite this work as:
 Gaussian 16, Revision A.03,
 M. J. Frisch, G. W. Trucks, H. B. Schlegel, G. E. Scuseria, 
 M. A. Robb, J. R. Cheeseman, G. Scalmani, V. Barone, 
 G. A. Petersson, H. Nakatsuji, X. Li, M. Caricato, A. V. Marenich, 
 J. Bloino, B. G. Janesko, R. Gomperts, B. Mennucci, H. P. Hratchian, 
 J. V. Ortiz, A. F. Izmaylov, J. L. Sonnenberg, D. Williams-Young, 
 F. Ding, F. Lipparini, F. Egidi, J. Goings, B. Peng, A. Petrone, 
 T. Henderson, D. Ranasinghe, V. G. Zakrzewski, J. Gao, N. Rega, 
 G. Zheng, W. Liang, M. Hada, M. Ehara, K. Toyota, R. Fukuda, 
 J. Hasegawa, M. Ishida, T. Nakajima, Y. Honda, O. Kitao, H. Nakai, 
 T. Vreven, K. Throssell, J. A. Montgomery, Jr., J. E. Peralta, 
 F. Ogliaro, M. J. Bearpark, J. J. Heyd, E. N. Brothers, K. N. Kudin, 
 V. N. Staroverov, T. A. Keith, R. Kobayashi, J. Normand, 
 K. Raghavachari, A. P. Rendell, J. C. Burant, S. S. Iyengar, 
 J. Tomasi, M. Cossi, J. M. Millam, M. Klene, C. Adamo, R. Cammi, 
 J. W. Ochterski, R. L. Martin, K. Morokuma, O. Farkas, 
 J. B. Foresman, and D. J. Fox, Gaussian, Inc., Wallingford CT, 2016.
 
 ******************************************
 Gaussian 16:  ES64L-G16RevA.03 25-Dec-2016
                16-May-2023 
 ******************************************
 %chk=OdC[C]dCd[SH]CdCC1dCCdCCdCCdC1.chk
 %NProcShared=20
 Will use up to   20 processors via shared memory.
 -----------------------------
 # opt freq b3lyp/6-31g(2df,p)
 -----------------------------
 1/18=20,19=15,26=3,38=1/1,3;
 2/9=110,12=2,17=6,18=5,40=1/2;
 3/5=1,6=6,7=104,11=2,25=1,30=1,71=1,74=-5/1,2,3;
 4//1;
 5/5=2,38=5/2;
 6/7=2,8=2,9=2,10=2,28=1/1;
 7//1,2,3,16;
 1/18=20,19=15,26=3/3(2);
 2/9=110/2;
 99//99;
 2/9=110/2;
 3/5=1,6=6,7=104,11=2,25=1,30=1,71=1,74=-5/1,2,3;
 4/5=5,16=3,69=1/1;
 5/5=2,38=5/2;
 7//1,2,3,16;
 1/18=20,19=15,26=3/3(-5);
 2/9=110/2;
 6/7=2,8=2,9=2,10=2,19=2,28=1/1;
 99/9=1/99;
 -------------------
 Title Card Required
 -------------------
 Symbolic Z-matrix:
 Charge =  0 Multiplicity = 2
 O                     1.04788  -0.24547   0.02924 
 C                     2.23393   0.04382   0.0591 
 C                     3.31908  -0.87176  -0.15272 
 C                     4.47652  -1.21589  -0.19124 
 S                     6.0567   -1.34416  -0.04051 
 C                     6.5052   -0.00022  -1.15593 
 C                     7.81058   0.2872   -1.35581 
 C                     8.29629   1.46791  -2.14957 
 C                     7.69828   2.62394  -1.8187 
 C                     7.74364   4.01223  -2.16391 
 C                     8.46222   4.79002  -2.9671 
 C                     9.47988   4.53835  -3.93234 
 C                     10.05255   3.42708  -4.38831 
 C                     9.99861   2.03724  -4.0339 
 C                     9.35064   1.27428  -3.14135 
 H                     2.61852   1.05546   0.26037 
 H                     6.32779  -2.40482  -0.76228 
 H                     5.75664   0.63994  -1.62037 
 H                     8.58976  -0.314    -0.88651 
 H                     6.93432   2.53496  -1.04271 
 H                     6.98361   4.55978  -1.59822 
 H                     8.20759   5.85326  -2.91828 
 H                     9.81745   5.46469  -4.40695 
 H                     10.75612   3.60334  -5.20831 
 H                     10.69751   1.48204  -4.67036 
 H                     9.67175   0.22748  -3.1767 
 

 GradGradGradGradGradGradGradGradGradGradGradGradGradGradGradGradGradGrad
 Berny optimization.
 Initialization pass.
                           ----------------------------
                           !    Initial Parameters    !
                           ! (Angstroms and Degrees)  !
 --------------------------                            --------------------------
 ! Name  Definition              Value          Derivative Info.                !
 --------------------------------------------------------------------------------
 ! R1    R(1,2)                  1.2212         estimate D2E/DX2                !
 ! R2    R(2,3)                  1.4355         estimate D2E/DX2                !
 ! R3    R(2,16)                 1.1008         estimate D2E/DX2                !
 ! R4    R(3,4)                  1.2081         estimate D2E/DX2                !
 ! R5    R(4,5)                  1.5925         estimate D2E/DX2                !
 ! R6    R(5,6)                  1.8032         estimate D2E/DX2                !
 ! R7    R(5,17)                 1.3113         estimate D2E/DX2                !
 ! R8    R(6,7)                  1.3515         estimate D2E/DX2                !
 ! R9    R(6,18)                 1.089          estimate D2E/DX2                !
 ! R10   R(7,8)                  1.5033         estimate D2E/DX2                !
 ! R11   R(7,19)                 1.0903         estimate D2E/DX2                !
 ! R12   R(8,9)                  1.3429         estimate D2E/DX2                !
 ! R13   R(8,15)                 1.4604         estimate D2E/DX2                !
 ! R14   R(9,10)                 1.4313         estimate D2E/DX2                !
 ! R15   R(9,20)                 1.0926         estimate D2E/DX2                !
 ! R16   R(10,11)                1.3291         estimate D2E/DX2                !
 ! R17   R(10,21)                1.0943         estimate D2E/DX2                !
 ! R18   R(11,12)                1.425          estimate D2E/DX2                !
 ! R19   R(11,22)                1.0944         estimate D2E/DX2                !
 ! R20   R(12,13)                1.3307         estimate D2E/DX2                !
 ! R21   R(12,23)                1.0942         estimate D2E/DX2                !
 ! R22   R(13,14)                1.4353         estimate D2E/DX2                !
 ! R23   R(13,24)                1.0948         estimate D2E/DX2                !
 ! R24   R(14,15)                1.3411         estimate D2E/DX2                !
 ! R25   R(14,25)                1.0963         estimate D2E/DX2                !
 ! R26   R(15,26)                1.0955         estimate D2E/DX2                !
 ! A1    A(1,2,3)              125.4141         estimate D2E/DX2                !
 ! A2    A(1,2,16)             124.1582         estimate D2E/DX2                !
 ! A3    A(3,2,16)             110.427          estimate D2E/DX2                !
 ! A4    A(2,3,4)              155.5877         estimate D2E/DX2                !
 ! A5    A(4,5,6)               97.3667         estimate D2E/DX2                !
 ! A6    A(4,5,17)             102.6026         estimate D2E/DX2                !
 ! A7    A(6,5,17)             102.1784         estimate D2E/DX2                !
 ! A8    A(5,6,7)              119.3553         estimate D2E/DX2                !
 ! A9    A(5,6,18)             122.0721         estimate D2E/DX2                !
 ! A10   A(7,6,18)             118.4145         estimate D2E/DX2                !
 ! A11   A(6,7,8)              123.8604         estimate D2E/DX2                !
 ! A12   A(6,7,19)             120.6185         estimate D2E/DX2                !
 ! A13   A(8,7,19)             115.4316         estimate D2E/DX2                !
 ! A14   A(7,8,9)              113.7109         estimate D2E/DX2                !
 ! A15   A(7,8,15)             119.189          estimate D2E/DX2                !
 ! A16   A(9,8,15)             127.0806         estimate D2E/DX2                !
 ! A17   A(8,9,10)             139.5899         estimate D2E/DX2                !
 ! A18   A(8,9,20)             114.5979         estimate D2E/DX2                !
 ! A19   A(10,9,20)            105.8105         estimate D2E/DX2                !
 ! A20   A(9,10,11)            136.9304         estimate D2E/DX2                !
 ! A21   A(9,10,21)            109.7945         estimate D2E/DX2                !
 ! A22   A(11,10,21)           113.2719         estimate D2E/DX2                !
 ! A23   A(10,11,12)           133.7965         estimate D2E/DX2                !
 ! A24   A(10,11,22)           114.5698         estimate D2E/DX2                !
 ! A25   A(12,11,22)           111.5896         estimate D2E/DX2                !
 ! A26   A(11,12,13)           133.3864         estimate D2E/DX2                !
 ! A27   A(11,12,23)           111.383          estimate D2E/DX2                !
 ! A28   A(13,12,23)           115.1878         estimate D2E/DX2                !
 ! A29   A(12,13,14)           135.0603         estimate D2E/DX2                !
 ! A30   A(12,13,24)           113.5018         estimate D2E/DX2                !
 ! A31   A(14,13,24)           111.4078         estimate D2E/DX2                !
 ! A32   A(13,14,15)           137.1682         estimate D2E/DX2                !
 ! A33   A(13,14,25)           108.8496         estimate D2E/DX2                !
 ! A34   A(15,14,25)           113.9722         estimate D2E/DX2                !
 ! A35   A(8,15,14)            136.4984         estimate D2E/DX2                !
 ! A36   A(8,15,26)            111.1137         estimate D2E/DX2                !
 ! A37   A(14,15,26)           112.3649         estimate D2E/DX2                !
 ! A38   L(3,4,5,18,-1)        174.5046         estimate D2E/DX2                !
 ! A39   L(3,4,5,18,-2)        166.4449         estimate D2E/DX2                !
 ! D1    D(1,2,3,4)           -173.3214         estimate D2E/DX2                !
 ! D2    D(1,2,3,16)          -179.6942         estimate D2E/DX2                !
 ! D3    D(16,2,3,4)             6.3728         estimate D2E/DX2                !
 ! D4    D(2,3,5,6)            -58.7151         estimate D2E/DX2                !
 ! D5    D(2,3,5,17)          -163.4924         estimate D2E/DX2                !
 ! D6    D(4,5,6,7)            179.7885         estimate D2E/DX2                !
 ! D7    D(4,5,6,18)             4.4325         estimate D2E/DX2                !
 ! D8    D(17,5,6,7)           -75.5581         estimate D2E/DX2                !
 ! D9    D(17,5,6,18)          109.0859         estimate D2E/DX2                !
 ! D10   D(5,6,7,8)           -173.5502         estimate D2E/DX2                !
 ! D11   D(5,6,7,19)             2.8515         estimate D2E/DX2                !
 ! D12   D(18,6,7,8)             1.9759         estimate D2E/DX2                !
 ! D13   D(18,6,7,19)          178.3776         estimate D2E/DX2                !
 ! D14   D(6,7,8,9)             48.1236         estimate D2E/DX2                !
 ! D15   D(6,7,8,15)          -133.37           estimate D2E/DX2                !
 ! D16   D(19,7,8,9)          -128.4478         estimate D2E/DX2                !
 ! D17   D(19,7,8,15)           50.0586         estimate D2E/DX2                !
 ! D18   D(7,8,9,10)           178.0739         estimate D2E/DX2                !
 ! D19   D(7,8,9,20)            -1.3662         estimate D2E/DX2                !
 ! D20   D(15,8,9,10)           -0.2916         estimate D2E/DX2                !
 ! D21   D(15,8,9,20)         -179.7317         estimate D2E/DX2                !
 ! D22   D(7,8,15,14)          177.872          estimate D2E/DX2                !
 ! D23   D(7,8,15,26)           -0.1824         estimate D2E/DX2                !
 ! D24   D(9,8,15,14)           -3.8422         estimate D2E/DX2                !
 ! D25   D(9,8,15,26)          178.1033         estimate D2E/DX2                !
 ! D26   D(8,9,10,11)           -2.8789         estimate D2E/DX2                !
 ! D27   D(8,9,10,21)          177.8425         estimate D2E/DX2                !
 ! D28   D(20,9,10,11)         176.592          estimate D2E/DX2                !
 ! D29   D(20,9,10,21)          -2.6867         estimate D2E/DX2                !
 ! D30   D(9,10,11,12)           5.1792         estimate D2E/DX2                !
 ! D31   D(9,10,11,22)        -177.4984         estimate D2E/DX2                !
 ! D32   D(21,10,11,12)       -175.5596         estimate D2E/DX2                !
 ! D33   D(21,10,11,22)          1.7627         estimate D2E/DX2                !
 ! D34   D(10,11,12,13)          1.5267         estimate D2E/DX2                !
 ! D35   D(10,11,12,23)        178.9644         estimate D2E/DX2                !
 ! D36   D(22,11,12,13)       -175.8544         estimate D2E/DX2                !
 ! D37   D(22,11,12,23)          1.5833         estimate D2E/DX2                !
 ! D38   D(11,12,13,14)         -7.1835         estimate D2E/DX2                !
 ! D39   D(11,12,13,24)        175.0421         estimate D2E/DX2                !
 ! D40   D(23,12,13,14)        175.4531         estimate D2E/DX2                !
 ! D41   D(23,12,13,24)         -2.3213         estimate D2E/DX2                !
 ! D42   D(12,13,14,15)          1.7712         estimate D2E/DX2                !
 ! D43   D(12,13,14,25)       -176.9523         estimate D2E/DX2                !
 ! D44   D(24,13,14,15)        179.579          estimate D2E/DX2                !
 ! D45   D(24,13,14,25)          0.8555         estimate D2E/DX2                !
 ! D46   D(13,14,15,8)           5.9039         estimate D2E/DX2                !
 ! D47   D(13,14,15,26)       -176.0587         estimate D2E/DX2                !
 ! D48   D(25,14,15,8)        -175.4182         estimate D2E/DX2                !
 ! D49   D(25,14,15,26)          2.6192         estimate D2E/DX2                !
 --------------------------------------------------------------------------------
 Trust Radius=3.00D-01 FncErr=1.00D-07 GrdErr=1.00D-06 EigMax=2.50D+02 EigMin=1.00D-04
 Number of steps in this run=    124 maximum allowed number of steps=    156.
 GradGradGradGradGradGradGradGradGradGradGradGradGradGradGradGradGradGrad

                          Input orientation:                          
 ---------------------------------------------------------------------
 Center     Atomic      Atomic             Coordinates (Angstroms)
 Number     Number       Type             X           Y           Z
 ---------------------------------------------------------------------
      1          8           0        1.047880   -0.245470    0.029240
      2          6           0        2.233930    0.043820    0.059100
      3          6           0        3.319080   -0.871760   -0.152720
      4          6           0        4.476520   -1.215890   -0.191240
      5         16           0        6.056700   -1.344160   -0.040510
      6          6           0        6.505200   -0.000220   -1.155930
      7          6           0        7.810580    0.287200   -1.355810
      8          6           0        8.296290    1.467910   -2.149570
      9          6           0        7.698280    2.623940   -1.818700
     10          6           0        7.743640    4.012230   -2.163910
     11          6           0        8.462220    4.790020   -2.967100
     12          6           0        9.479880    4.538350   -3.932340
     13          6           0       10.052550    3.427080   -4.388310
     14          6           0        9.998610    2.037240   -4.033900
     15          6           0        9.350640    1.274280   -3.141350
     16          1           0        2.618520    1.055460    0.260370
     17          1           0        6.327790   -2.404820   -0.762280
     18          1           0        5.756640    0.639940   -1.620370
     19          1           0        8.589760   -0.314000   -0.886510
     20          1           0        6.934320    2.534960   -1.042710
     21          1           0        6.983610    4.559780   -1.598220
     22          1           0        8.207590    5.853260   -2.918280
     23          1           0        9.817450    5.464690   -4.406950
     24          1           0       10.756120    3.603340   -5.208310
     25          1           0       10.697510    1.482040   -4.670360
     26          1           0        9.671750    0.227480   -3.176700
 ---------------------------------------------------------------------
                    Distance matrix (angstroms):
                    1          2          3          4          5
     1  O    0.000000
     2  C    1.221186   0.000000
     3  C    2.362985   1.435516   0.000000
     4  C    3.570140   2.584328   1.208129   0.000000
     5  S    5.128378   4.068167   2.780345   1.592527   0.000000
     6  C    5.589912   4.440944   3.452155   2.554217   1.803188
     7  C    6.923598   5.758492   4.792096   3.838158   2.732663
     8  C    7.760305   6.607455   5.850990   5.062458   4.167929
     9  C    7.475040   6.327896   5.845751   5.269977   4.647856
    10  C    8.232322   7.144715   6.890209   6.472924   6.003791
    11  C    9.450220   8.394992   8.150361   7.724128   7.209689
    12  C   10.472711   9.414679   9.028304   8.493569   7.840180
    13  C   10.681126   9.610241   9.042116   8.382403   7.591766
    14  C   10.091355   9.000924   8.254814   7.472775   6.551312
    15  C    9.016546   7.899650   7.065204   6.217808   5.226995
    16  H    2.052498   1.100834   2.091795   2.969031   4.203545
    17  H    5.759058   4.840474   3.431351   2.273069   1.311275
    18  H    5.067305   3.947843   3.221945   2.669312   2.553947
    19  H    7.597582   6.435743   5.350665   4.267968   2.862401
    20  H    6.597730   5.432626   5.046562   4.564500   4.101487
    21  H    7.808453   6.760182   6.709685   6.451624   6.175932
    22  H    9.856157   8.848672   8.761949   8.445739   8.044299
    23  H   11.366225  10.336402  10.023866   9.535612   8.920172
    24  H   11.683116  10.632192  10.044654   9.371731   8.559700
    25  H   10.871333   9.801452   8.966085   8.126627   7.138630
    26  H    9.212647   8.113279   7.121039   6.163335   5.037294
                    6          7          8          9         10
     6  C    0.000000
     7  C    1.351510   0.000000
     8  C    2.520065   1.503345   0.000000
     9  C    2.957857   2.384792   1.342943   0.000000
    10  C    4.318508   3.812264   2.603688   1.431285   0.000000
    11  C    5.482396   4.826622   3.425245   2.567943   1.329071
    12  C    6.095555   5.243791   3.742560   3.362520   2.533511
    13  C    5.897318   4.907273   3.454671   3.576383   3.259052
    14  C    4.963655   3.875859   2.602447   3.246975   3.533035
    15  C    3.696319   2.556221   1.460402   2.510235   3.321778
    16  H    4.269268   5.491789   6.181828   5.708469   6.394253
    17  H    2.443059   3.130162   4.560439   5.318148   6.719206
    18  H    1.088968   2.100735   2.723125   2.783084   3.951701
    19  H    2.125191   1.090324   2.203780   3.208614   4.589546
    20  H    2.573733   2.432753   2.053947   1.092572   2.023466
    21  H    4.606311   4.358622   3.403935   2.075293   1.094286
    22  H    6.345647   5.794821   4.453098   3.449200   2.042967
    23  H    7.169754   6.335881   4.835695   4.388597   3.382537
    24  H    6.890410   5.874925   4.468413   4.668947   4.302394
    25  H    5.667784   4.555025   3.481442   4.293167   4.627040
    26  H    3.763296   2.604450   2.117912   3.388476   4.366656
                   11         12         13         14         15
    11  C    0.000000
    12  C    1.425012   0.000000
    13  C    2.531125   1.330707   0.000000
    14  C    3.328116   2.556354   1.435330   0.000000
    15  C    3.630438   3.361030   2.584983   1.341126   0.000000
    16  H    7.649335   8.762853   9.082930   8.594788   7.545927
    17  H    7.821940   8.257879   7.812361   6.626486   5.322910
    18  H    5.133908   5.865605   5.821038   5.076602   3.953809
    19  H    5.513270   5.797818   5.328981   4.173638   2.861097
    20  H    3.335124   4.340900   4.659643   4.311011   3.439797
    21  H    2.028085   3.417593   4.299535   4.624497   4.333427
    22  H    1.094394   2.091896   3.383964   4.360547   4.724763
    23  H    2.089257   1.094218   2.051213   3.452448   4.402180
    24  H    3.419533   2.032519   1.094750   2.098983   3.416463
    25  H    4.340547   3.371695   2.068503   1.096262   2.048193
    26  H    4.724793   4.380800   3.442448   2.029005   1.095514
                   16         17         18         19         20
    16  H    0.000000
    17  H    5.174750   0.000000
    18  H    3.682070   3.214513   0.000000
    19  H    6.232693   3.082770   3.078168   0.000000
    20  H    4.744794   4.984771   2.304717   3.298705   0.000000
    21  H    5.898188   7.045179   4.107443   5.180732   2.100218
    22  H    8.022494   8.739443   5.905119   6.504555   4.018718
    23  H    9.646231   9.348290   6.894448   6.877062   5.311673
    24  H   10.130088   8.687651   6.830070   6.222268   5.753244
    25  H    9.474394   7.033863   5.867177   4.688911   5.331987
    26  H    7.889680   4.892903   4.233246   2.590149   4.167961
                   21         22         23         24         25
    21  H    0.000000
    22  H    2.216704   0.000000
    23  H    4.091268   2.226831   0.000000
    24  H    5.308423   4.098949   2.233361   0.000000
    25  H    5.718704   5.327011   4.087223   2.189233   0.000000
    26  H    5.337276   5.818930   5.381739   4.086530   2.203889
                   26
    26  H    0.000000
 Stoichiometry    C13H11OS(2)
 Framework group  C1[X(C13H11OS)]
 Deg. of freedom    72
 Full point group                 C1      NOp   1
 Largest Abelian subgroup         C1      NOp   1
 Largest concise Abelian subgroup C1      NOp   1
                         Standard orientation:                         
 ---------------------------------------------------------------------
 Center     Atomic      Atomic             Coordinates (Angstroms)
 Number     Number       Type             X           Y           Z
 ---------------------------------------------------------------------
      1          8           0        5.706946    2.130923    0.737676
      2          6           0        4.694666    1.663549    0.239534
      3          6           0        4.270261    0.296304    0.345494
      4          6           0        3.574545   -0.661484    0.104251
      5         16           0        2.537975   -1.703882   -0.508179
      6          6           0        1.030302   -0.828927   -0.046805
      7          6           0       -0.169353   -1.356661   -0.376808
      8          6           0       -1.480543   -0.651327   -0.168647
      9          6           0       -1.487816    0.616682   -0.610910
     10          6           0       -2.384580    1.726517   -0.723412
     11          6           0       -3.665154    1.970201   -0.464224
     12          6           0       -4.708886    1.215688    0.145686
     13          6           0       -4.760381    0.004959    0.695470
     14          6           0       -3.852470   -1.101529    0.802955
     15          6           0       -2.592763   -1.379345    0.436108
     16          1           0        3.978678    2.242425   -0.363871
     17          1           0        2.567594   -2.682750    0.363820
     18          1           0        1.052577    0.151668    0.426260
     19          1           0       -0.232148   -2.324136   -0.875661
     20          1           0       -0.539204    0.956462   -1.033281
     21          1           0       -1.857336    2.587700   -1.145123
     22          1           0       -4.001544    2.975093   -0.737597
     23          1           0       -5.640877    1.787301    0.190040
     24          1           0       -5.728343   -0.226654    1.151413
     25          1           0       -4.361439   -1.929307    1.310421
     26          1           0       -2.308088   -2.410843    0.670892
 ---------------------------------------------------------------------
 Rotational constants (GHZ):           1.0355282           0.1910020           0.1674720
 Standard basis: 6-31G(2df,p) (6D, 7F)
 There are   524 symmetry adapted cartesian basis functions of A   symmetry.
 There are   479 symmetry adapted basis functions of A   symmetry.
   479 basis functions,   761 primitive gaussians,   524 cartesian basis functions
    57 alpha electrons       56 beta electrons
       nuclear repulsion energy       900.5243998708 Hartrees.
 NAtoms=   26 NActive=   26 NUniq=   26 SFac= 1.00D+00 NAtFMM=   60 NAOKFM=F Big=F
 Integral buffers will be    131072 words long.
 Raffenetti 2 integral format.
 Two-electron integral symmetry is turned on.
 One-electron integrals computed using PRISM.
 PrsmSu:  requested number of processors reduced to:  12 ShMem   1 Linda.
 NBasis=   479 RedAO= T EigKep=  1.33D-04  NBF=   479
 NBsUse=   479 1.00D-06 EigRej= -1.00D+00 NBFU=   479
 ExpMin= 1.17D-01 ExpMax= 2.19D+04 ExpMxC= 3.30D+03 IAcc=3 IRadAn=         5 AccDes= 0.00D+00
 Harris functional with IExCor=  402 and IRadAn=       5 diagonalized for initial guess.
 HarFok:  IExCor=  402 AccDes= 0.00D+00 IRadAn=         5 IDoV= 1 UseB2=F ITyADJ=14
 ICtDFT=  3500011 ScaDFX=  1.000000  1.000000  1.000000  1.000000
 FoFCou: FMM=F IPFlag=           0 FMFlag=      100000 FMFlg1=           0
         NFxFlg=           0 DoJE=T BraDBF=F KetDBF=T FulRan=T
         wScrn=  0.000000 ICntrl=       500 IOpCl=  0 I1Cent=   200000004 NGrid=           0
         NMat0=    1 NMatS0=      1 NMatT0=    0 NMatD0=    1 NMtDS0=    0 NMtDT0=    0
 Petite list used in FoFCou.
 Initial guess <Sx>= 0.0000 <Sy>= 0.0000 <Sz>= 0.5000 <S**2>= 0.7500 S= 0.5000
 Requested convergence on RMS density matrix=1.00D-08 within 128 cycles.
 Requested convergence on MAX density matrix=1.00D-06.
 Requested convergence on             energy=1.00D-06.
 No special actions if energy rises.
 Integral accuracy reduced to 1.0D-05 until final iterations.
 EnCoef did     9 forward-backward iterations
 EnCoef did     4 forward-backward iterations
 EnCoef did     4 forward-backward iterations
 Initial convergence to 1.5D-05 achieved.  Increase integral accuracy.
 SCF Done:  E(UB3LYP) =  -975.111355058     A.U. after   36 cycles
            NFock= 36  Conv=0.97D-08     -V/T= 2.0053
 <Sx>= 0.0000 <Sy>= 0.0000 <Sz>= 0.5000 <S**2>= 0.9825 S= 0.6102
 <L.S>=  0.00000000000    
 Annihilation of the first spin contaminant:
 S**2 before annihilation     0.9825,   after     0.7642

 **********************************************************************

            Population analysis using the SCF density.

 **********************************************************************

 Orbital symmetries:
 Alpha Orbitals:
       Occupied  (A) (A) (A) (A) (A) (A) (A) (A) (A) (A) (A) (A)
                 (A) (A) (A) (A) (A) (A) (A) (A) (A) (A) (A) (A)
                 (A) (A) (A) (A) (A) (A) (A) (A) (A) (A) (A) (A)
                 (A) (A) (A) (A) (A) (A) (A) (A) (A) (A) (A) (A)
                 (A) (A) (A) (A) (A) (A) (A) (A) (A)
       Virtual   (A) (A) (A) (A) (A) (A) (A) (A) (A) (A) (A) (A)
                 (A) (A) (A) (A) (A) (A) (A) (A) (A) (A) (A) (A)
                 (A) (A) (A) (A) (A) (A) (A) (A) (A) (A) (A) (A)
                 (A) (A) (A) (A) (A) (A) (A) (A) (A) (A) (A) (A)
                 (A) (A) (A) (A) (A) (A) (A) (A) (A) (A) (A) (A)
                 (A) (A) (A) (A) (A) (A) (A) (A) (A) (A) (A) (A)
                 (A) (A) (A) (A) (A) (A) (A) (A) (A) (A) (A) (A)
                 (A) (A) (A) (A) (A) (A) (A) (A) (A) (A) (A) (A)
                 (A) (A) (A) (A) (A) (A) (A) (A) (A) (A) (A) (A)
                 (A) (A) (A) (A) (A) (A) (A) (A) (A) (A) (A) (A)
                 (A) (A) (A) (A) (A) (A) (A) (A) (A) (A) (A) (A)
                 (A) (A) (A) (A) (A) (A) (A) (A) (A) (A) (A) (A)
                 (A) (A) (A) (A) (A) (A) (A) (A) (A) (A) (A) (A)
                 (A) (A) (A) (A) (A) (A) (A) (A) (A) (A) (A) (A)
                 (A) (A) (A) (A) (A) (A) (A) (A) (A) (A) (A) (A)
                 (A) (A) (A) (A) (A) (A) (A) (A) (A) (A) (A) (A)
                 (A) (A) (A) (A) (A) (A) (A) (A) (A) (A) (A) (A)
                 (A) (A) (A) (A) (A) (A) (A) (A) (A) (A) (A) (A)
                 (A) (A) (A) (A) (A) (A) (A) (A) (A) (A) (A) (A)
                 (A) (A) (A) (A) (A) (A) (A) (A) (A) (A) (A) (A)
                 (A) (A) (A) (A) (A) (A) (A) (A) (A) (A) (A) (A)
                 (A) (A) (A) (A) (A) (A) (A) (A) (A) (A) (A) (A)
                 (A) (A) (A) (A) (A) (A) (A) (A) (A) (A) (A) (A)
                 (A) (A) (A) (A) (A) (A) (A) (A) (A) (A) (A) (A)
                 (A) (A) (A) (A) (A) (A) (A) (A) (A) (A) (A) (A)
                 (A) (A) (A) (A) (A) (A) (A) (A) (A) (A) (A) (A)
                 (A) (A) (A) (A) (A) (A) (A) (A) (A) (A) (A) (A)
                 (A) (A) (A) (A) (A) (A) (A) (A) (A) (A) (A) (A)
                 (A) (A) (A) (A) (A) (A) (A) (A) (A) (A) (A) (A)
                 (A) (A) (A) (A) (A) (A) (A) (A) (A) (A) (A) (A)
                 (A) (A) (A) (A) (A) (A) (A) (A) (A) (A) (A) (A)
                 (A) (A) (A) (A) (A) (A) (A) (A) (A) (A) (A) (A)
                 (A) (A) (A) (A) (A) (A) (A) (A) (A) (A) (A) (A)
                 (A) (A) (A) (A) (A) (A) (A) (A) (A) (A) (A) (A)
                 (A) (A) (A) (A) (A) (A) (A) (A) (A) (A) (A) (A)
                 (A) (A)
 Beta  Orbitals:
       Occupied  (A) (A) (A) (A) (A) (A) (A) (A) (A) (A) (A) (A)
                 (A) (A) (A) (A) (A) (A) (A) (A) (A) (A) (A) (A)
                 (A) (A) (A) (A) (A) (A) (A) (A) (A) (A) (A) (A)
                 (A) (A) (A) (A) (A) (A) (A) (A) (A) (A) (A) (A)
                 (A) (A) (A) (A) (A) (A) (A) (A)
       Virtual   (A) (A) (A) (A) (A) (A) (A) (A) (A) (A) (A) (A)
                 (A) (A) (A) (A) (A) (A) (A) (A) (A) (A) (A) (A)
                 (A) (A) (A) (A) (A) (A) (A) (A) (A) (A) (A) (A)
                 (A) (A) (A) (A) (A) (A) (A) (A) (A) (A) (A) (A)
                 (A) (A) (A) (A) (A) (A) (A) (A) (A) (A) (A) (A)
                 (A) (A) (A) (A) (A) (A) (A) (A) (A) (A) (A) (A)
                 (A) (A) (A) (A) (A) (A) (A) (A) (A) (A) (A) (A)
                 (A) (A) (A) (A) (A) (A) (A) (A) (A) (A) (A) (A)
                 (A) (A) (A) (A) (A) (A) (A) (A) (A) (A) (A) (A)
                 (A) (A) (A) (A) (A) (A) (A) (A) (A) (A) (A) (A)
                 (A) (A) (A) (A) (A) (A) (A) (A) (A) (A) (A) (A)
                 (A) (A) (A) (A) (A) (A) (A) (A) (A) (A) (A) (A)
                 (A) (A) (A) (A) (A) (A) (A) (A) (A) (A) (A) (A)
                 (A) (A) (A) (A) (A) (A) (A) (A) (A) (A) (A) (A)
                 (A) (A) (A) (A) (A) (A) (A) (A) (A) (A) (A) (A)
                 (A) (A) (A) (A) (A) (A) (A) (A) (A) (A) (A) (A)
                 (A) (A) (A) (A) (A) (A) (A) (A) (A) (A) (A) (A)
                 (A) (A) (A) (A) (A) (A) (A) (A) (A) (A) (A) (A)
                 (A) (A) (A) (A) (A) (A) (A) (A) (A) (A) (A) (A)
                 (A) (A) (A) (A) (A) (A) (A) (A) (A) (A) (A) (A)
                 (A) (A) (A) (A) (A) (A) (A) (A) (A) (A) (A) (A)
                 (A) (A) (A) (A) (A) (A) (A) (A) (A) (A) (A) (A)
                 (A) (A) (A) (A) (A) (A) (A) (A) (A) (A) (A) (A)
                 (A) (A) (A) (A) (A) (A) (A) (A) (A) (A) (A) (A)
                 (A) (A) (A) (A) (A) (A) (A) (A) (A) (A) (A) (A)
                 (A) (A) (A) (A) (A) (A) (A) (A) (A) (A) (A) (A)
                 (A) (A) (A) (A) (A) (A) (A) (A) (A) (A) (A) (A)
                 (A) (A) (A) (A) (A) (A) (A) (A) (A) (A) (A) (A)
                 (A) (A) (A) (A) (A) (A) (A) (A) (A) (A) (A) (A)
                 (A) (A) (A) (A) (A) (A) (A) (A) (A) (A) (A) (A)
                 (A) (A) (A) (A) (A) (A) (A) (A) (A) (A) (A) (A)
                 (A) (A) (A) (A) (A) (A) (A) (A) (A) (A) (A) (A)
                 (A) (A) (A) (A) (A) (A) (A) (A) (A) (A) (A) (A)
                 (A) (A) (A) (A) (A) (A) (A) (A) (A) (A) (A) (A)
                 (A) (A) (A) (A) (A) (A) (A) (A) (A) (A) (A) (A)
                 (A) (A) (A)
 The electronic state is 2-A.
 Alpha  occ. eigenvalues --  -89.03211 -19.13134 -10.27826 -10.23323 -10.23226
 Alpha  occ. eigenvalues --  -10.23047 -10.22974 -10.19556 -10.18299 -10.17957
 Alpha  occ. eigenvalues --  -10.17453 -10.17112 -10.17053 -10.16704 -10.16483
 Alpha  occ. eigenvalues --   -8.08776  -6.05134  -6.05002  -6.04571  -1.03517
 Alpha  occ. eigenvalues --   -0.93302  -0.84089  -0.80792  -0.79224  -0.77425
 Alpha  occ. eigenvalues --   -0.75629  -0.69234  -0.67521  -0.66531  -0.61177
 Alpha  occ. eigenvalues --   -0.58855  -0.56685  -0.55198  -0.52944  -0.50985
 Alpha  occ. eigenvalues --   -0.49589  -0.47195  -0.45336  -0.45165  -0.44069
 Alpha  occ. eigenvalues --   -0.43725  -0.42020  -0.41124  -0.40172  -0.36099
 Alpha  occ. eigenvalues --   -0.35641  -0.34003  -0.32728  -0.32560  -0.32499
 Alpha  occ. eigenvalues --   -0.31763  -0.30788  -0.29142  -0.27907  -0.26262
 Alpha  occ. eigenvalues --   -0.17474  -0.12989
 Alpha virt. eigenvalues --   -0.10214  -0.07821  -0.04148  -0.03032   0.01740
 Alpha virt. eigenvalues --    0.04516   0.06590   0.06951   0.07464   0.07878
 Alpha virt. eigenvalues --    0.09446   0.11634   0.12624   0.13610   0.16552
 Alpha virt. eigenvalues --    0.18056   0.19172   0.19649   0.20900   0.21743
 Alpha virt. eigenvalues --    0.21926   0.23007   0.24533   0.25400   0.26576
 Alpha virt. eigenvalues --    0.28254   0.28707   0.29576   0.30195   0.33706
 Alpha virt. eigenvalues --    0.34024   0.36920   0.37509   0.39004   0.39658
 Alpha virt. eigenvalues --    0.40999   0.41561   0.43601   0.44778   0.44898
 Alpha virt. eigenvalues --    0.47019   0.47566   0.48411   0.48773   0.49536
 Alpha virt. eigenvalues --    0.50164   0.50893   0.51363   0.52157   0.52538
 Alpha virt. eigenvalues --    0.53084   0.53898   0.54816   0.55679   0.56127
 Alpha virt. eigenvalues --    0.56657   0.56702   0.58571   0.58897   0.60033
 Alpha virt. eigenvalues --    0.60675   0.61639   0.62513   0.64117   0.65213
 Alpha virt. eigenvalues --    0.66485   0.68378   0.69817   0.70292   0.71065
 Alpha virt. eigenvalues --    0.71834   0.72631   0.73245   0.73776   0.74059
 Alpha virt. eigenvalues --    0.74293   0.74603   0.75366   0.76235   0.76293
 Alpha virt. eigenvalues --    0.76987   0.77888   0.78590   0.79524   0.79810
 Alpha virt. eigenvalues --    0.81346   0.82102   0.82586   0.84568   0.86005
 Alpha virt. eigenvalues --    0.87217   0.87362   0.88592   0.90471   0.91324
 Alpha virt. eigenvalues --    0.91844   0.92585   0.93061   0.94120   0.94224
 Alpha virt. eigenvalues --    0.95518   0.96179   0.96512   0.97069   0.97208
 Alpha virt. eigenvalues --    0.98761   0.99373   1.01262   1.04189   1.04911
 Alpha virt. eigenvalues --    1.05458   1.05732   1.06702   1.07507   1.10318
 Alpha virt. eigenvalues --    1.10926   1.13132   1.15768   1.16836   1.17996
 Alpha virt. eigenvalues --    1.20190   1.22177   1.24924   1.26368   1.27235
 Alpha virt. eigenvalues --    1.30105   1.30797   1.31407   1.32986   1.33700
 Alpha virt. eigenvalues --    1.34665   1.35095   1.36057   1.38258   1.38794
 Alpha virt. eigenvalues --    1.39519   1.42375   1.42631   1.44277   1.46241
 Alpha virt. eigenvalues --    1.46665   1.47143   1.48837   1.52689   1.54772
 Alpha virt. eigenvalues --    1.55526   1.56090   1.56899   1.57400   1.58643
 Alpha virt. eigenvalues --    1.60448   1.62316   1.64012   1.65230   1.66509
 Alpha virt. eigenvalues --    1.68465   1.70050   1.70402   1.73062   1.73989
 Alpha virt. eigenvalues --    1.76240   1.76699   1.78920   1.80174   1.81074
 Alpha virt. eigenvalues --    1.82310   1.83592   1.87973   1.92681   1.94341
 Alpha virt. eigenvalues --    1.95801   1.96011   1.97704   1.99078   2.00869
 Alpha virt. eigenvalues --    2.02568   2.04394   2.05852   2.07255   2.09856
 Alpha virt. eigenvalues --    2.10471   2.11423   2.12108   2.12394   2.14382
 Alpha virt. eigenvalues --    2.16261   2.17531   2.18560   2.18888   2.21893
 Alpha virt. eigenvalues --    2.23770   2.24432   2.24934   2.27058   2.27585
 Alpha virt. eigenvalues --    2.29901   2.32459   2.35625   2.37966   2.39118
 Alpha virt. eigenvalues --    2.40180   2.43100   2.45140   2.47424   2.50465
 Alpha virt. eigenvalues --    2.51125   2.52627   2.54538   2.55206   2.59140
 Alpha virt. eigenvalues --    2.61863   2.62805   2.63667   2.65845   2.70635
 Alpha virt. eigenvalues --    2.71721   2.73430   2.74938   2.75717   2.76307
 Alpha virt. eigenvalues --    2.80243   2.80792   2.82149   2.82926   2.86889
 Alpha virt. eigenvalues --    2.89093   2.89605   2.90524   2.91470   2.94176
 Alpha virt. eigenvalues --    2.95981   2.97299   2.98088   2.98735   2.99153
 Alpha virt. eigenvalues --    2.99593   3.00471   3.01194   3.03082   3.04825
 Alpha virt. eigenvalues --    3.05221   3.06565   3.06874   3.10388   3.11683
 Alpha virt. eigenvalues --    3.11710   3.12862   3.13786   3.15233   3.17161
 Alpha virt. eigenvalues --    3.18726   3.20294   3.21062   3.22424   3.23214
 Alpha virt. eigenvalues --    3.23856   3.24229   3.24912   3.25616   3.26295
 Alpha virt. eigenvalues --    3.28751   3.29698   3.30806   3.30990   3.32394
 Alpha virt. eigenvalues --    3.33858   3.34694   3.35871   3.37665   3.38785
 Alpha virt. eigenvalues --    3.39723   3.41428   3.41670   3.43365   3.44947
 Alpha virt. eigenvalues --    3.46265   3.48825   3.50203   3.51598   3.51994
 Alpha virt. eigenvalues --    3.52477   3.53653   3.53995   3.55000   3.57161
 Alpha virt. eigenvalues --    3.58408   3.59487   3.59983   3.60662   3.64147
 Alpha virt. eigenvalues --    3.65344   3.67174   3.67890   3.68988   3.71516
 Alpha virt. eigenvalues --    3.73185   3.75530   3.77188   3.79469   3.81692
 Alpha virt. eigenvalues --    3.84098   3.87293   3.88432   3.90950   3.92501
 Alpha virt. eigenvalues --    3.93479   3.97328   3.98951   4.00303   4.05062
 Alpha virt. eigenvalues --    4.09055   4.10173   4.11318   4.14210   4.15959
 Alpha virt. eigenvalues --    4.17252   4.18112   4.21384   4.23903   4.23979
 Alpha virt. eigenvalues --    4.26247   4.27479   4.28796   4.29144   4.31096
 Alpha virt. eigenvalues --    4.31406   4.33939   4.35140   4.37221   4.38490
 Alpha virt. eigenvalues --    4.39571   4.40500   4.41318   4.42113   4.43281
 Alpha virt. eigenvalues --    4.44767   4.46074   4.47438   4.49103   4.50643
 Alpha virt. eigenvalues --    4.51439   4.52203   4.53140   4.55845   4.58835
 Alpha virt. eigenvalues --    4.60680   4.61063   4.62451   4.63367   4.63877
 Alpha virt. eigenvalues --    4.66302   4.67731   4.69066   4.71979   4.74660
 Alpha virt. eigenvalues --    4.79251   4.79622   4.84018   4.86041   4.88757
 Alpha virt. eigenvalues --    4.90326   4.92149   4.93190   4.94529   4.95583
 Alpha virt. eigenvalues --    4.97041   4.99335   5.01515   5.03656   5.06251
 Alpha virt. eigenvalues --    5.07126   5.08283   5.09070   5.09537   5.13196
 Alpha virt. eigenvalues --    5.14833   5.15574   5.19285   5.23599   5.24325
 Alpha virt. eigenvalues --    5.28149   5.30771   5.32419   5.33612   5.37664
 Alpha virt. eigenvalues --    5.41222   5.45269   5.51498   5.51797   5.54715
 Alpha virt. eigenvalues --    5.56071   5.67110   5.70226   5.72636   5.82174
 Alpha virt. eigenvalues --    5.91841   5.97040   5.98816   5.98966   6.04079
 Alpha virt. eigenvalues --    6.06853   6.07565   6.12991   6.14400   6.38409
 Alpha virt. eigenvalues --    6.47722   6.78697   8.77464   9.65552   9.85569
 Alpha virt. eigenvalues --   10.12693  10.18746  10.63671  10.90636  11.17263
 Alpha virt. eigenvalues --   11.28845  11.70939  11.99009  12.01957  12.05866
 Alpha virt. eigenvalues --   12.63051  12.96867
  Beta  occ. eigenvalues --  -89.03198 -19.12778 -10.27757 -10.23119 -10.23091
  Beta  occ. eigenvalues --  -10.22948 -10.22813 -10.19807 -10.17955 -10.17692
  Beta  occ. eigenvalues --  -10.17514 -10.16984 -10.16794 -10.16706 -10.16633
  Beta  occ. eigenvalues --   -8.08752  -6.05121  -6.04921  -6.04574  -1.02858
  Beta  occ. eigenvalues --   -0.92838  -0.83867  -0.80501  -0.78876  -0.77175
  Beta  occ. eigenvalues --   -0.75269  -0.69087  -0.66876  -0.66149  -0.60920
  Beta  occ. eigenvalues --   -0.58522  -0.56493  -0.55009  -0.52678  -0.50751
  Beta  occ. eigenvalues --   -0.49445  -0.46842  -0.45168  -0.44882  -0.44007
  Beta  occ. eigenvalues --   -0.43292  -0.41807  -0.40934  -0.38792  -0.36032
  Beta  occ. eigenvalues --   -0.35063  -0.33717  -0.32555  -0.32310  -0.32261
  Beta  occ. eigenvalues --   -0.30949  -0.30031  -0.28352  -0.27256  -0.25894
  Beta  occ. eigenvalues --   -0.17081
  Beta virt. eigenvalues --   -0.08393  -0.07934  -0.06824  -0.03586  -0.02084
  Beta virt. eigenvalues --    0.02078   0.04832   0.07178   0.07630   0.08077
  Beta virt. eigenvalues --    0.08525   0.09732   0.11683   0.12769   0.13757
  Beta virt. eigenvalues --    0.16748   0.18257   0.19528   0.19908   0.21086
  Beta virt. eigenvalues --    0.21912   0.22151   0.23120   0.24754   0.25619
  Beta virt. eigenvalues --    0.26731   0.28557   0.28832   0.29815   0.30431
  Beta virt. eigenvalues --    0.33852   0.34206   0.37163   0.37724   0.39129
  Beta virt. eigenvalues --    0.39844   0.41170   0.41836   0.43726   0.44876
  Beta virt. eigenvalues --    0.45027   0.47399   0.48042   0.48682   0.49090
  Beta virt. eigenvalues --    0.49783   0.50461   0.51338   0.51626   0.52379
  Beta virt. eigenvalues --    0.52680   0.53309   0.54095   0.54987   0.55913
  Beta virt. eigenvalues --    0.56488   0.56745   0.57042   0.58847   0.59373
  Beta virt. eigenvalues --    0.60649   0.61150   0.61665   0.62752   0.64437
  Beta virt. eigenvalues --    0.65417   0.66853   0.68603   0.70068   0.70501
  Beta virt. eigenvalues --    0.71086   0.72151   0.72861   0.73509   0.73956
  Beta virt. eigenvalues --    0.74302   0.74578   0.74726   0.75622   0.76357
  Beta virt. eigenvalues --    0.76616   0.77221   0.78207   0.78729   0.79555
  Beta virt. eigenvalues --    0.79969   0.81581   0.82315   0.82847   0.84850
  Beta virt. eigenvalues --    0.86257   0.87653   0.87725   0.88794   0.90699
  Beta virt. eigenvalues --    0.91452   0.91951   0.92821   0.93104   0.94362
  Beta virt. eigenvalues --    0.94475   0.95523   0.96360   0.96894   0.97679
  Beta virt. eigenvalues --    0.98236   0.98934   0.99606   1.01605   1.04564
  Beta virt. eigenvalues --    1.05259   1.05677   1.05995   1.06944   1.07814
  Beta virt. eigenvalues --    1.10559   1.11243   1.13374   1.16032   1.16959
  Beta virt. eigenvalues --    1.18179   1.20458   1.22432   1.25068   1.26412
  Beta virt. eigenvalues --    1.27562   1.30289   1.30877   1.31598   1.33324
  Beta virt. eigenvalues --    1.34210   1.34881   1.35316   1.36444   1.38500
  Beta virt. eigenvalues --    1.38959   1.39731   1.42535   1.42835   1.44463
  Beta virt. eigenvalues --    1.46404   1.46890   1.47304   1.49041   1.52863
  Beta virt. eigenvalues --    1.55058   1.55659   1.56325   1.57103   1.57654
  Beta virt. eigenvalues --    1.58815   1.60654   1.62521   1.64251   1.65512
  Beta virt. eigenvalues --    1.66743   1.68658   1.70351   1.70690   1.73377
  Beta virt. eigenvalues --    1.74129   1.76390   1.76592   1.79040   1.80411
  Beta virt. eigenvalues --    1.81612   1.82530   1.83736   1.88172   1.92873
  Beta virt. eigenvalues --    1.94616   1.96032   1.96196   1.97953   1.99223
  Beta virt. eigenvalues --    2.00977   2.02751   2.04525   2.05893   2.07438
  Beta virt. eigenvalues --    2.10098   2.10572   2.11578   2.12161   2.12550
  Beta virt. eigenvalues --    2.14611   2.16455   2.17653   2.18784   2.19108
  Beta virt. eigenvalues --    2.22042   2.24027   2.24534   2.25073   2.27324
  Beta virt. eigenvalues --    2.28040   2.30050   2.32578   2.35760   2.38183
  Beta virt. eigenvalues --    2.39221   2.40362   2.43491   2.45489   2.47647
  Beta virt. eigenvalues --    2.50708   2.51335   2.52833   2.54734   2.55390
  Beta virt. eigenvalues --    2.59380   2.62252   2.63071   2.63978   2.66075
  Beta virt. eigenvalues --    2.70891   2.71862   2.73528   2.75026   2.75900
  Beta virt. eigenvalues --    2.76403   2.80360   2.80888   2.82352   2.83098
  Beta virt. eigenvalues --    2.87138   2.89205   2.89778   2.90671   2.91820
  Beta virt. eigenvalues --    2.94495   2.96254   2.97485   2.98493   2.99022
  Beta virt. eigenvalues --    2.99315   2.99909   3.00873   3.01378   3.03459
  Beta virt. eigenvalues --    3.05020   3.05531   3.06749   3.07172   3.10611
  Beta virt. eigenvalues --    3.11971   3.12013   3.13109   3.14138   3.15547
  Beta virt. eigenvalues --    3.17504   3.18961   3.20430   3.21464   3.22576
  Beta virt. eigenvalues --    3.23460   3.24252   3.24538   3.25110   3.25789
  Beta virt. eigenvalues --    3.26534   3.28993   3.30022   3.31029   3.31283
  Beta virt. eigenvalues --    3.32658   3.33935   3.34973   3.36150   3.38111
  Beta virt. eigenvalues --    3.39060   3.40023   3.41898   3.42118   3.43610
  Beta virt. eigenvalues --    3.45239   3.46668   3.49159   3.50484   3.51662
  Beta virt. eigenvalues --    3.52264   3.52659   3.53907   3.54237   3.55222
  Beta virt. eigenvalues --    3.57492   3.58775   3.59745   3.60230   3.60990
  Beta virt. eigenvalues --    3.64373   3.65527   3.67245   3.68166   3.69267
  Beta virt. eigenvalues --    3.71713   3.73370   3.75627   3.77455   3.79770
  Beta virt. eigenvalues --    3.81873   3.84356   3.87723   3.88657   3.91183
  Beta virt. eigenvalues --    3.92842   3.93698   3.97641   3.99313   4.00754
  Beta virt. eigenvalues --    4.05290   4.09289   4.10637   4.11489   4.14515
  Beta virt. eigenvalues --    4.16378   4.17741   4.18801   4.22162   4.24150
  Beta virt. eigenvalues --    4.24661   4.26674   4.27646   4.29391   4.29483
  Beta virt. eigenvalues --    4.31420   4.31663   4.34786   4.35513   4.37796
  Beta virt. eigenvalues --    4.38668   4.39298   4.40874   4.41983   4.42746
  Beta virt. eigenvalues --    4.43840   4.45118   4.46540   4.47987   4.49571
  Beta virt. eigenvalues --    4.51248   4.51948   4.52869   4.53771   4.56034
  Beta virt. eigenvalues --    4.59211   4.61139   4.61742   4.62725   4.63669
  Beta virt. eigenvalues --    4.64314   4.66568   4.67945   4.69344   4.72314
  Beta virt. eigenvalues --    4.74822   4.79378   4.79989   4.84306   4.86217
  Beta virt. eigenvalues --    4.88980   4.90716   4.92449   4.93463   4.94719
  Beta virt. eigenvalues --    4.95718   4.97075   4.99702   5.01670   5.04073
  Beta virt. eigenvalues --    5.06639   5.07325   5.09175   5.09508   5.09823
  Beta virt. eigenvalues --    5.13157   5.14837   5.16157   5.19550   5.24121
  Beta virt. eigenvalues --    5.24789   5.28502   5.30774   5.32695   5.33845
  Beta virt. eigenvalues --    5.37779   5.41461   5.45473   5.51783   5.52275
  Beta virt. eigenvalues --    5.54893   5.56272   5.67360   5.70492   5.72877
  Beta virt. eigenvalues --    5.82315   5.91967   5.97063   5.98911   5.99693
  Beta virt. eigenvalues --    6.04232   6.06948   6.07725   6.13253   6.14522
  Beta virt. eigenvalues --    6.38604   6.48025   6.79364   8.77649   9.65678
  Beta virt. eigenvalues --    9.85942  10.12854  10.18915  10.63872  10.90846
  Beta virt. eigenvalues --   11.17923  11.28678  11.71162  11.99179  12.02195
  Beta virt. eigenvalues --   12.05972  12.63159  12.97317
          Condensed to atoms (all electrons):
               1          2          3          4          5          6
     1  O    7.696816   0.696247  -0.065299   0.008204   0.000042  -0.000001
     2  C    0.696247   4.533649   0.315179   0.014166  -0.001910   0.000025
     3  C   -0.065299   0.315179   5.647544   0.546488  -0.111008   0.001949
     4  C    0.008204   0.014166   0.546488   4.835576   0.502198  -0.086180
     5  S    0.000042  -0.001910  -0.111008   0.502198  15.140694   0.214889
     6  C   -0.000001   0.000025   0.001949  -0.086180   0.214889   5.281319
     7  C    0.000000  -0.000009   0.000321   0.005627  -0.032481   0.550762
     8  C    0.000000  -0.000000  -0.000013  -0.000002   0.001697  -0.006486
     9  C   -0.000000   0.000001   0.000007  -0.000075  -0.000284  -0.010282
    10  C   -0.000000   0.000000   0.000000  -0.000001  -0.000028   0.000901
    11  C    0.000000  -0.000000  -0.000000   0.000000   0.000000   0.000009
    12  C    0.000000  -0.000000  -0.000000   0.000000   0.000000   0.000000
    13  C   -0.000000   0.000000   0.000000  -0.000000   0.000000  -0.000001
    14  C   -0.000000   0.000000  -0.000000  -0.000000   0.000009  -0.000035
    15  C    0.000000  -0.000000  -0.000000   0.000003   0.000184   0.000097
    16  H   -0.052316   0.383948  -0.125655  -0.003818  -0.000254  -0.000009
    17  H    0.000000  -0.000031   0.003959   0.001798   0.192083  -0.047931
    18  H   -0.000000   0.000225   0.002438   0.003238  -0.042636   0.353059
    19  H   -0.000000  -0.000000   0.000002   0.000521   0.004219  -0.076084
    20  H    0.000000  -0.000003   0.000009   0.000056   0.000475   0.004679
    21  H    0.000000  -0.000000  -0.000000   0.000000  -0.000001  -0.000058
    22  H   -0.000000   0.000000   0.000000  -0.000000  -0.000000   0.000000
    23  H   -0.000000   0.000000  -0.000000  -0.000000   0.000000   0.000000
    24  H    0.000000  -0.000000  -0.000000   0.000000   0.000000   0.000000
    25  H   -0.000000   0.000000   0.000000   0.000000  -0.000000  -0.000000
    26  H    0.000000  -0.000000  -0.000000   0.000001   0.000030  -0.000051
               7          8          9         10         11         12
     1  O    0.000000   0.000000  -0.000000  -0.000000   0.000000   0.000000
     2  C   -0.000009  -0.000000   0.000001   0.000000  -0.000000  -0.000000
     3  C    0.000321  -0.000013   0.000007   0.000000  -0.000000  -0.000000
     4  C    0.005627  -0.000002  -0.000075  -0.000001   0.000000   0.000000
     5  S   -0.032481   0.001697  -0.000284  -0.000028   0.000000   0.000000
     6  C    0.550762  -0.006486  -0.010282   0.000901   0.000009   0.000000
     7  C    5.022688   0.369257  -0.030223   0.005557   0.000204  -0.000103
     8  C    0.369257   4.719412   0.528364  -0.010149  -0.015175   0.000130
     9  C   -0.030223   0.528364   4.920458   0.460639  -0.014994  -0.012384
    10  C    0.005557  -0.010149   0.460639   4.784953   0.612115  -0.013206
    11  C    0.000204  -0.015175  -0.014994   0.612115   4.787431   0.480677
    12  C   -0.000103   0.000130  -0.012384  -0.013206   0.480677   4.767732
    13  C    0.000209  -0.008698   0.000809  -0.015460  -0.015037   0.631367
    14  C    0.005197  -0.007434  -0.015051   0.001958  -0.011593  -0.012125
    15  C   -0.042299   0.408762  -0.036589  -0.008834   0.001328  -0.014802
    16  H   -0.000001   0.000000  -0.000002  -0.000000   0.000000   0.000000
    17  H    0.000085   0.000079   0.000011   0.000000   0.000000   0.000000
    18  H   -0.016652  -0.005241   0.003106  -0.000224  -0.000012   0.000001
    19  H    0.350057  -0.031525   0.000049  -0.000188  -0.000006   0.000002
    20  H   -0.024240  -0.057029   0.347073  -0.035397   0.006805   0.000368
    21  H   -0.000220   0.007719  -0.040624   0.348939  -0.039243   0.005794
    22  H    0.000004   0.000355   0.006121  -0.032751   0.348422  -0.044961
    23  H   -0.000000  -0.000191   0.000333   0.005770  -0.042816   0.348997
    24  H    0.000002   0.000303  -0.000242   0.000413   0.005559  -0.036075
    25  H   -0.000228   0.006095   0.000465  -0.000255   0.000374   0.005291
    26  H   -0.012327  -0.063196   0.004859   0.000321  -0.000230   0.000365
              13         14         15         16         17         18
     1  O   -0.000000  -0.000000   0.000000  -0.052316   0.000000  -0.000000
     2  C    0.000000   0.000000  -0.000000   0.383948  -0.000031   0.000225
     3  C    0.000000  -0.000000  -0.000000  -0.125655   0.003959   0.002438
     4  C   -0.000000  -0.000000   0.000003  -0.003818   0.001798   0.003238
     5  S    0.000000   0.000009   0.000184  -0.000254   0.192083  -0.042636
     6  C   -0.000001  -0.000035   0.000097  -0.000009  -0.047931   0.353059
     7  C    0.000209   0.005197  -0.042299  -0.000001   0.000085  -0.016652
     8  C   -0.008698  -0.007434   0.408762   0.000000   0.000079  -0.005241
     9  C    0.000809  -0.015051  -0.036589  -0.000002   0.000011   0.003106
    10  C   -0.015460   0.001958  -0.008834  -0.000000   0.000000  -0.000224
    11  C   -0.015037  -0.011593   0.001328   0.000000   0.000000  -0.000012
    12  C    0.631367  -0.012125  -0.014802   0.000000   0.000000   0.000001
    13  C    4.779987   0.472284  -0.022189   0.000000  -0.000000  -0.000000
    14  C    0.472284   4.777555   0.586317  -0.000000  -0.000000   0.000015
    15  C   -0.022189   0.586317   4.971904   0.000000  -0.000008   0.000485
    16  H    0.000000  -0.000000   0.000000   0.692171  -0.000002   0.000209
    17  H   -0.000000  -0.000000  -0.000008  -0.000002   0.661088   0.000848
    18  H   -0.000000   0.000015   0.000485   0.000209   0.000848   0.532290
    19  H   -0.000001   0.000264   0.000518   0.000000   0.001770   0.006239
    20  H   -0.000236   0.000241   0.006421   0.000010   0.000013   0.003324
    21  H    0.000400  -0.000252   0.000388  -0.000000  -0.000000   0.000031
    22  H    0.005436   0.000376  -0.000233   0.000000   0.000000  -0.000000
    23  H   -0.034851   0.005652   0.000306  -0.000000  -0.000000   0.000000
    24  H    0.349191  -0.042941   0.006035   0.000000  -0.000000  -0.000000
    25  H   -0.047144   0.349057  -0.030448  -0.000000   0.000000   0.000000
    26  H    0.006267  -0.022282   0.343241   0.000000   0.000005   0.000024
              19         20         21         22         23         24
     1  O   -0.000000   0.000000   0.000000  -0.000000  -0.000000   0.000000
     2  C   -0.000000  -0.000003  -0.000000   0.000000   0.000000  -0.000000
     3  C    0.000002   0.000009  -0.000000   0.000000  -0.000000  -0.000000
     4  C    0.000521   0.000056   0.000000  -0.000000  -0.000000   0.000000
     5  S    0.004219   0.000475  -0.000001  -0.000000   0.000000   0.000000
     6  C   -0.076084   0.004679  -0.000058   0.000000   0.000000   0.000000
     7  C    0.350057  -0.024240  -0.000220   0.000004  -0.000000   0.000002
     8  C   -0.031525  -0.057029   0.007719   0.000355  -0.000191   0.000303
     9  C    0.000049   0.347073  -0.040624   0.006121   0.000333  -0.000242
    10  C   -0.000188  -0.035397   0.348939  -0.032751   0.005770   0.000413
    11  C   -0.000006   0.006805  -0.039243   0.348422  -0.042816   0.005559
    12  C    0.000002   0.000368   0.005794  -0.044961   0.348997  -0.036075
    13  C   -0.000001  -0.000236   0.000400   0.005436  -0.034851   0.349191
    14  C    0.000264   0.000241  -0.000252   0.000376   0.005652  -0.042941
    15  C    0.000518   0.006421   0.000388  -0.000233   0.000306   0.006035
    16  H    0.000000   0.000010  -0.000000   0.000000  -0.000000   0.000000
    17  H    0.001770   0.000013  -0.000000   0.000000  -0.000000  -0.000000
    18  H    0.006239   0.003324   0.000031  -0.000000   0.000000  -0.000000
    19  H    0.630146   0.000908   0.000006  -0.000000   0.000000  -0.000000
    20  H    0.000908   0.697059  -0.018967  -0.000346   0.000005  -0.000001
    21  H    0.000006  -0.018967   0.679008  -0.017346  -0.000323   0.000008
    22  H   -0.000000  -0.000346  -0.017346   0.667196  -0.012685  -0.000316
    23  H    0.000000   0.000005  -0.000323  -0.012685   0.667609  -0.016363
    24  H   -0.000000  -0.000001   0.000008  -0.000316  -0.016363   0.668355
    25  H   -0.000005   0.000007  -0.000001   0.000005  -0.000312  -0.014343
    26  H    0.004761  -0.000273   0.000005  -0.000001   0.000006  -0.000284
              25         26
     1  O   -0.000000   0.000000
     2  C    0.000000  -0.000000
     3  C    0.000000  -0.000000
     4  C    0.000000   0.000001
     5  S   -0.000000   0.000030
     6  C   -0.000000  -0.000051
     7  C   -0.000228  -0.012327
     8  C    0.006095  -0.063196
     9  C    0.000465   0.004859
    10  C   -0.000255   0.000321
    11  C    0.000374  -0.000230
    12  C    0.005291   0.000365
    13  C   -0.047144   0.006267
    14  C    0.349057  -0.022282
    15  C   -0.030448   0.343241
    16  H   -0.000000   0.000000
    17  H    0.000000   0.000005
    18  H    0.000000   0.000024
    19  H   -0.000005   0.004761
    20  H    0.000007  -0.000273
    21  H   -0.000001   0.000005
    22  H    0.000005  -0.000001
    23  H   -0.000312   0.000006
    24  H   -0.014343  -0.000284
    25  H    0.668744  -0.019146
    26  H   -0.019146   0.690101
          Atomic-Atomic Spin Densities.
               1          2          3          4          5          6
     1  O    0.180411  -0.042943  -0.006305   0.000626   0.000048   0.000000
     2  C   -0.042943   0.062918   0.040091  -0.004517  -0.000234   0.000159
     3  C   -0.006305   0.040091   0.163465  -0.053396  -0.014589   0.000736
     4  C    0.000626  -0.004517  -0.053396   0.129189   0.027218  -0.046447
     5  S    0.000048  -0.000234  -0.014589   0.027218   0.175220  -0.092650
     6  C    0.000000   0.000159   0.000736  -0.046447  -0.092650   0.289515
     7  C    0.000000  -0.000006  -0.000088   0.002210   0.010287  -0.058687
     8  C    0.000000  -0.000000  -0.000004   0.000071  -0.000725   0.006563
     9  C   -0.000000   0.000001   0.000007  -0.000056  -0.000471  -0.000543
    10  C   -0.000000   0.000000   0.000000  -0.000001  -0.000013  -0.000111
    11  C    0.000000  -0.000000  -0.000000   0.000000  -0.000000  -0.000001
    12  C    0.000000  -0.000000  -0.000000   0.000000   0.000000   0.000001
    13  C   -0.000000   0.000000   0.000000  -0.000000   0.000000  -0.000000
    14  C   -0.000000   0.000000   0.000000  -0.000000   0.000001  -0.000019
    15  C    0.000000  -0.000000  -0.000000   0.000003   0.000180  -0.001416
    16  H   -0.000964  -0.000163  -0.000616  -0.000490  -0.000060  -0.000044
    17  H   -0.000000  -0.000017   0.000591   0.011602  -0.009512  -0.021002
    18  H   -0.000000   0.000019   0.000015  -0.000309   0.001571  -0.000452
    19  H   -0.000000  -0.000000  -0.000003   0.000268   0.008642  -0.010943
    20  H    0.000000  -0.000002  -0.000009   0.000053   0.000553  -0.000051
    21  H    0.000000  -0.000000  -0.000000   0.000000   0.000001   0.000006
    22  H   -0.000000   0.000000   0.000000  -0.000000  -0.000000  -0.000000
    23  H   -0.000000   0.000000   0.000000  -0.000000  -0.000000   0.000000
    24  H    0.000000  -0.000000  -0.000000   0.000000   0.000000  -0.000000
    25  H   -0.000000   0.000000   0.000000  -0.000000  -0.000000   0.000000
    26  H    0.000000  -0.000000  -0.000000   0.000001   0.000070  -0.000258
               7          8          9         10         11         12
     1  O    0.000000   0.000000  -0.000000  -0.000000   0.000000   0.000000
     2  C   -0.000006  -0.000000   0.000001   0.000000  -0.000000  -0.000000
     3  C   -0.000088  -0.000004   0.000007   0.000000  -0.000000  -0.000000
     4  C    0.002210   0.000071  -0.000056  -0.000001   0.000000   0.000000
     5  S    0.010287  -0.000725  -0.000471  -0.000013  -0.000000   0.000000
     6  C   -0.058687   0.006563  -0.000543  -0.000111  -0.000001   0.000001
     7  C    0.104987   0.008320  -0.006401  -0.000047   0.000020   0.000004
     8  C    0.008320  -0.160748  -0.021697   0.003176   0.000159   0.000017
     9  C   -0.006401  -0.021697   0.341032   0.017858  -0.010104  -0.000599
    10  C   -0.000047   0.003176   0.017858  -0.196981  -0.016055   0.004307
    11  C    0.000020   0.000159  -0.010104  -0.016055   0.309553   0.015189
    12  C    0.000004   0.000017  -0.000599   0.004307   0.015189  -0.191650
    13  C   -0.000018  -0.000611   0.001162   0.000305  -0.009852  -0.014872
    14  C   -0.000014   0.002930   0.000593  -0.000144  -0.000673   0.003858
    15  C    0.002746   0.004079  -0.008137  -0.000734   0.000898   0.000199
    16  H    0.000002   0.000000  -0.000002  -0.000000   0.000000   0.000000
    17  H    0.002145  -0.000036  -0.000008  -0.000000   0.000000  -0.000000
    18  H   -0.001274  -0.000009   0.001145   0.000017  -0.000004   0.000000
    19  H    0.000570  -0.002954   0.000037  -0.000012  -0.000001  -0.000000
    20  H    0.000387  -0.000239   0.000956  -0.000469  -0.000137  -0.000020
    21  H   -0.000005   0.000165  -0.000571  -0.000880  -0.000275   0.000036
    22  H   -0.000000  -0.000016  -0.000098  -0.000153   0.001730   0.000413
    23  H    0.000000   0.000001   0.000003   0.000107  -0.000519  -0.000703
    24  H   -0.000000  -0.000010   0.000004  -0.000016  -0.000052   0.000060
    25  H   -0.000001   0.000096  -0.000000   0.000001   0.000000   0.000105
    26  H    0.000828  -0.001346   0.000051  -0.000022   0.000003  -0.000014
              13         14         15         16         17         18
     1  O   -0.000000  -0.000000   0.000000  -0.000964  -0.000000  -0.000000
     2  C    0.000000   0.000000  -0.000000  -0.000163  -0.000017   0.000019
     3  C    0.000000   0.000000  -0.000000  -0.000616   0.000591   0.000015
     4  C   -0.000000  -0.000000   0.000003  -0.000490   0.011602  -0.000309
     5  S    0.000000   0.000001   0.000180  -0.000060  -0.009512   0.001571
     6  C   -0.000000  -0.000019  -0.001416  -0.000044  -0.021002  -0.000452
     7  C   -0.000018  -0.000014   0.002746   0.000002   0.002145  -0.001274
     8  C   -0.000611   0.002930   0.004079   0.000000  -0.000036  -0.000009
     9  C    0.001162   0.000593  -0.008137  -0.000002  -0.000008   0.001145
    10  C    0.000305  -0.000144  -0.000734  -0.000000  -0.000000   0.000017
    11  C   -0.009852  -0.000673   0.000898   0.000000   0.000000  -0.000004
    12  C   -0.014872   0.003858   0.000199   0.000000  -0.000000   0.000000
    13  C    0.277015   0.015521  -0.008367  -0.000000   0.000000   0.000000
    14  C    0.015521  -0.177370  -0.015933  -0.000000   0.000000   0.000001
    15  C   -0.008367  -0.015933   0.273957   0.000000   0.000008  -0.000125
    16  H   -0.000000  -0.000000   0.000000   0.000460   0.000004  -0.000009
    17  H    0.000000   0.000000   0.000008   0.000004   0.016099  -0.000044
    18  H    0.000000   0.000001  -0.000125  -0.000009  -0.000044  -0.001091
    19  H    0.000002   0.000029   0.000690   0.000000   0.000593  -0.000030
    20  H    0.000006  -0.000017   0.000212   0.000004   0.000004  -0.000087
    21  H    0.000008  -0.000002   0.000011   0.000000   0.000000   0.000001
    22  H   -0.000082  -0.000009   0.000003  -0.000000  -0.000000  -0.000000
    23  H   -0.000066   0.000051   0.000008  -0.000000  -0.000000   0.000000
    24  H    0.001561   0.000238  -0.000104   0.000000   0.000000  -0.000000
    25  H   -0.000841  -0.000460  -0.000124  -0.000000  -0.000000   0.000000
    26  H    0.000027   0.000460   0.000915   0.000000   0.000005  -0.000002
              19         20         21         22         23         24
     1  O   -0.000000   0.000000   0.000000  -0.000000  -0.000000   0.000000
     2  C   -0.000000  -0.000002  -0.000000   0.000000   0.000000  -0.000000
     3  C   -0.000003  -0.000009  -0.000000   0.000000   0.000000  -0.000000
     4  C    0.000268   0.000053   0.000000  -0.000000  -0.000000   0.000000
     5  S    0.008642   0.000553   0.000001  -0.000000  -0.000000   0.000000
     6  C   -0.010943  -0.000051   0.000006  -0.000000   0.000000  -0.000000
     7  C    0.000570   0.000387  -0.000005  -0.000000   0.000000  -0.000000
     8  C   -0.002954  -0.000239   0.000165  -0.000016   0.000001  -0.000010
     9  C    0.000037   0.000956  -0.000571  -0.000098   0.000003   0.000004
    10  C   -0.000012  -0.000469  -0.000880  -0.000153   0.000107  -0.000016
    11  C   -0.000001  -0.000137  -0.000275   0.001730  -0.000519  -0.000052
    12  C   -0.000000  -0.000020   0.000036   0.000413  -0.000703   0.000060
    13  C    0.000002   0.000006   0.000008  -0.000082  -0.000066   0.001561
    14  C    0.000029  -0.000017  -0.000002  -0.000009   0.000051   0.000238
    15  C    0.000690   0.000212   0.000011   0.000003   0.000008  -0.000104
    16  H    0.000000   0.000004   0.000000  -0.000000  -0.000000   0.000000
    17  H    0.000593   0.000004   0.000000  -0.000000  -0.000000   0.000000
    18  H   -0.000030  -0.000087   0.000001  -0.000000   0.000000  -0.000000
    19  H    0.003538   0.000112   0.000000  -0.000000  -0.000000   0.000000
    20  H    0.000112  -0.014256   0.000250   0.000004  -0.000000   0.000000
    21  H    0.000000   0.000250   0.009389   0.000134  -0.000002  -0.000000
    22  H   -0.000000   0.000004   0.000134  -0.014776   0.000098   0.000003
    23  H   -0.000000  -0.000000  -0.000002   0.000098   0.008835   0.000113
    24  H    0.000000   0.000000  -0.000000   0.000003   0.000113  -0.013300
    25  H   -0.000000  -0.000000  -0.000000  -0.000000  -0.000001   0.000057
    26  H    0.000419   0.000014   0.000000   0.000000  -0.000000   0.000004
              25         26
     1  O   -0.000000   0.000000
     2  C    0.000000  -0.000000
     3  C    0.000000  -0.000000
     4  C   -0.000000   0.000001
     5  S   -0.000000   0.000070
     6  C    0.000000  -0.000258
     7  C   -0.000001   0.000828
     8  C    0.000096  -0.001346
     9  C   -0.000000   0.000051
    10  C    0.000001  -0.000022
    11  C    0.000000   0.000003
    12  C    0.000105  -0.000014
    13  C   -0.000841   0.000027
    14  C   -0.000460   0.000460
    15  C   -0.000124   0.000915
    16  H   -0.000000   0.000000
    17  H   -0.000000   0.000005
    18  H    0.000000  -0.000002
    19  H   -0.000000   0.000419
    20  H   -0.000000   0.000014
    21  H   -0.000000   0.000000
    22  H   -0.000000   0.000000
    23  H   -0.000001  -0.000000
    24  H    0.000057   0.000004
    25  H    0.008666   0.000056
    26  H    0.000056  -0.011420
 Mulliken charges and spin densities:
               1          2
     1  O   -0.283694   0.130872
     2  C    0.058513   0.055306
     3  C   -0.215921   0.129895
     4  C    0.172199   0.066023
     5  S    0.132081   0.105537
     6  C   -0.180572   0.064355
     7  C   -0.151185   0.065965
     8  C    0.162968  -0.162818
     9  C   -0.111545   0.314160
    10  C   -0.105073  -0.189867
    11  C   -0.103819   0.289881
    12  C   -0.107068  -0.183670
    13  C   -0.102332   0.260899
    14  C   -0.087214  -0.170959
    15  C   -0.170585   0.248970
    16  H    0.105719  -0.001878
    17  H    0.186233   0.000432
    18  H    0.159234  -0.000670
    19  H    0.108347   0.000957
    20  H    0.069041  -0.012733
    21  H    0.074740   0.008268
    22  H    0.080722  -0.012750
    23  H    0.078862   0.007926
    24  H    0.080698  -0.011444
    25  H    0.081846   0.007552
    26  H    0.067804  -0.010210
 Sum of Mulliken charges =  -0.00000   1.00000
 Mulliken charges and spin densities with hydrogens summed into heavy atoms:
               1          2
     1  O   -0.283694   0.130872
     2  C    0.164232   0.053428
     3  C   -0.215921   0.129895
     4  C    0.172199   0.066023
     5  S    0.318314   0.105969
     6  C   -0.021338   0.063686
     7  C   -0.042838   0.066922
     8  C    0.162968  -0.162818
     9  C   -0.042504   0.301427
    10  C   -0.030333  -0.181599
    11  C   -0.023096   0.277131
    12  C   -0.028206  -0.175744
    13  C   -0.021634   0.249455
    14  C   -0.005368  -0.163407
    15  C   -0.102780   0.238760
 Electronic spatial extent (au):  <R**2>=           6053.7779
 Charge=             -0.0000 electrons
 Dipole moment (field-independent basis, Debye):
    X=              0.0778    Y=             -4.6691    Z=             -1.2202  Tot=              4.8266
 Quadrupole moment (field-independent basis, Debye-Ang):
   XX=           -123.9153   YY=            -85.6451   ZZ=            -96.4722
   XY=            -18.0448   XZ=             -8.0541   YZ=             -3.8205
 Traceless Quadrupole moment (field-independent basis, Debye-Ang):
   XX=            -21.9044   YY=             16.3658   ZZ=              5.5387
   XY=            -18.0448   XZ=             -8.0541   YZ=             -3.8205
 Octapole moment (field-independent basis, Debye-Ang**2):
  XXX=           -172.0346  YYY=            -30.7071  ZZZ=              1.1083  XYY=             -2.3784
  XXY=            -88.0313  XXZ=            -25.9375  XZZ=             14.3091  YZZ=             -2.0977
  YYZ=             -7.1197  XYZ=            -10.5326
 Hexadecapole moment (field-independent basis, Debye-Ang**3):
 XXXX=          -7905.2266 YYYY=          -1152.5567 ZZZZ=           -265.0012 XXXY=           -523.1484
 XXXZ=           -282.1732 YYYX=           -107.1712 YYYZ=            -20.5076 ZZZX=              9.1601
 ZZZY=              9.5156 XXYY=          -1414.1992 XXZZ=          -1204.0129 YYZZ=           -248.3487
 XXYZ=           -113.2892 YYXZ=            -20.8111 ZZXY=             12.2917
 N-N= 9.005243998708D+02 E-N=-4.086104487729D+03  KE= 9.699574380892D+02
                          Isotropic Fermi Contact Couplings
        Atom                 a.u.       MegaHertz       Gauss      10(-4) cm-1
     1  O(17)              0.02173     -13.17191      -4.70007      -4.39368
     2  C(13)             -0.00345      -3.87302      -1.38199      -1.29190
     3  C(13)              0.00489       5.49904       1.96219       1.83428
     4  C(13)              0.00346       3.89501       1.38984       1.29924
     5  S(33)             -0.00067      -0.23099      -0.08242      -0.07705
     6  C(13)              0.13062     146.84665      52.39854      48.98277
     7  C(13)              0.01008      11.33717       4.04539       3.78167
     8  C(13)             -0.02190     -24.61937      -8.78480      -8.21214
     9  C(13)              0.02994      33.65831      12.01012      11.22721
    10  C(13)             -0.02580     -29.00763     -10.35065      -9.67591
    11  C(13)              0.02709      30.45179      10.86595      10.15762
    12  C(13)             -0.02398     -26.95344      -9.61766      -8.99070
    13  C(13)              0.02523      28.36377      10.12090       9.46113
    14  C(13)             -0.02320     -26.07732      -9.30504      -8.69846
    15  C(13)              0.02529      28.43540      10.14646       9.48503
    16  H(1)              -0.00066      -2.97194      -1.06046      -0.99133
    17  H(1)               0.00002       0.08894       0.03174       0.02967
    18  H(1)              -0.00004      -0.17314      -0.06178      -0.05775
    19  H(1)              -0.00108      -4.82422      -1.72140      -1.60918
    20  H(1)              -0.00454     -20.29752      -7.24266      -6.77052
    21  H(1)               0.00267      11.92424       4.25487       3.97750
    22  H(1)              -0.00423     -18.92682      -6.75356      -6.31331
    23  H(1)               0.00257      11.48998       4.09991       3.83265
    24  H(1)              -0.00380     -16.96418      -6.05324      -5.65864
    25  H(1)               0.00250      11.15373       3.97993       3.72048
    26  H(1)              -0.00362     -16.18215      -5.77419      -5.39778
 --------------------------------------------------------
       Center         ----  Spin Dipole Couplings  ----
                      3XX-RR        3YY-RR        3ZZ-RR
 --------------------------------------------------------
     1   Atom       -0.104077     -0.194889      0.298966
     2   Atom       -0.000172     -0.039849      0.040022
     3   Atom        0.111401     -0.040483     -0.070918
     4   Atom        0.060131     -0.062583      0.002452
     5   Atom        0.108653     -0.022004     -0.086649
     6   Atom        0.044989      0.046026     -0.091015
     7   Atom       -0.028056     -0.028492      0.056548
     8   Atom        0.050487      0.079606     -0.130093
     9   Atom       -0.112843     -0.115187      0.228029
    10   Atom        0.089884      0.059456     -0.149340
    11   Atom       -0.133730     -0.094124      0.227853
    12   Atom        0.065616      0.058056     -0.123672
    13   Atom       -0.086517     -0.083798      0.170315
    14   Atom        0.069398      0.050571     -0.119969
    15   Atom       -0.100673     -0.090822      0.191495
    16   Atom        0.001212      0.001271     -0.002483
    17   Atom        0.000300      0.002118     -0.002418
    18   Atom        0.003055      0.004467     -0.007523
    19   Atom       -0.001315      0.001573     -0.000258
    20   Atom        0.013833     -0.016479      0.002646
    21   Atom        0.006063     -0.000706     -0.005357
    22   Atom       -0.016444      0.016409      0.000036
    23   Atom       -0.002654      0.003067     -0.000413
    24   Atom        0.012862     -0.015300      0.002438
    25   Atom        0.005396     -0.000450     -0.004946
    26   Atom       -0.013581      0.014461     -0.000880
 --------------------------------------------------------
                        XY            XZ            YZ
 --------------------------------------------------------
     1   Atom       -0.109020     -0.304765      0.200735
     2   Atom        0.006193     -0.046419      0.007645
     3   Atom       -0.071481     -0.046076      0.019504
     4   Atom        0.003256     -0.088881      0.017310
     5   Atom       -0.098611      0.091163     -0.076541
     6   Atom       -0.115394      0.087719     -0.013694
     7   Atom       -0.005276      0.017786     -0.024932
     8   Atom       -0.028604     -0.096390     -0.065423
     9   Atom        0.057729      0.132807      0.158810
    10   Atom       -0.033034     -0.060170     -0.077671
    11   Atom        0.034037      0.105637      0.137391
    12   Atom       -0.020078     -0.066545     -0.100410
    13   Atom        0.054843      0.111098      0.139821
    14   Atom       -0.036698     -0.073697     -0.073170
    15   Atom        0.033519      0.113058      0.101016
    16   Atom       -0.004946      0.000763     -0.005078
    17   Atom        0.001319     -0.000763     -0.003098
    18   Atom       -0.004523      0.003186      0.003603
    19   Atom        0.000496      0.001146      0.002639
    20   Atom        0.012698     -0.008291      0.001771
    21   Atom       -0.010853      0.000892      0.001127
    22   Atom       -0.008803      0.008101     -0.002669
    23   Atom        0.008325     -0.003995     -0.005685
    24   Atom        0.008027     -0.007910      0.004276
    25   Atom       -0.009214      0.000283      0.002116
    26   Atom       -0.004602      0.006894     -0.003141
 --------------------------------------------------------


 ---------------------------------------------------------------------------------
              Anisotropic Spin Dipole Couplings in Principal Axis System
 ---------------------------------------------------------------------------------

       Atom             a.u.   MegaHertz   Gauss  10(-4) cm-1        Axes

              Baa    -0.2684    19.419     6.929     6.477  0.8550  0.4136  0.3129
     1 O(17)  Bbb    -0.2660    19.247     6.868     6.420 -0.2540  0.8600 -0.4426
              Bcc     0.5344   -38.666   -13.797   -12.898 -0.4522  0.2989  0.8403
 
              Baa    -0.0457    -6.139    -2.191    -2.048 -0.4289  0.8493 -0.3078
     2 C(13)  Bbb    -0.0248    -3.333    -1.189    -1.112  0.7192  0.5273  0.4525
              Bcc     0.0706     9.472     3.380     3.160 -0.5466  0.0273  0.8369
 
              Baa    -0.0823   -11.042    -3.940    -3.683  0.1731 -0.1576  0.9722
     3 C(13)  Bbb    -0.0687    -9.224    -3.291    -3.077  0.3853  0.9193  0.0804
              Bcc     0.1510    20.266     7.231     6.760  0.9064 -0.3607 -0.2199
 
              Baa    -0.0784   -10.524    -3.755    -3.511 -0.3895  0.7147 -0.5810
     4 C(13)  Bbb    -0.0466    -6.255    -2.232    -2.086  0.4454  0.6982  0.5604
              Bcc     0.1250    16.779     5.987     5.597  0.8062 -0.0405 -0.5902
 
              Baa    -0.1406    -5.764    -2.057    -1.923 -0.1451  0.4486  0.8819
     5 S(33)  Bbb    -0.0674    -2.765    -0.987    -0.922  0.5780  0.7618 -0.2925
              Bcc     0.2080     8.529     3.043     2.845  0.8030 -0.4673  0.3698
 
              Baa    -0.1447   -19.412    -6.927    -6.475 -0.5328 -0.2647  0.8037
     6 C(13)  Bbb    -0.0359    -4.819    -1.720    -1.608  0.4469  0.7185  0.5330
              Bcc     0.1806    24.231     8.646     8.083  0.7186 -0.6432  0.2645
 
              Baa    -0.0353    -4.738    -1.691    -1.581  0.1134  0.9642  0.2397
     7 C(13)  Bbb    -0.0316    -4.244    -1.514    -1.416  0.9749 -0.0614 -0.2140
              Bcc     0.0669     8.983     3.205     2.996  0.1916 -0.2580  0.9470
 
              Baa    -0.1907   -25.595    -9.133    -8.537  0.3847  0.2554  0.8870
     8 C(13)  Bbb     0.0923    12.381     4.418     4.130  0.9133  0.0337 -0.4058
              Bcc     0.0985    13.214     4.715     4.408 -0.1336  0.9663 -0.2202
 
              Baa    -0.1787   -23.983    -8.558    -8.000 -0.2421  0.9280 -0.2833
     9 C(13)  Bbb    -0.1581   -21.214    -7.570    -7.076  0.9206  0.1275 -0.3691
              Bcc     0.3368    45.198    16.128    15.076  0.3064  0.3501  0.8852
 
              Baa    -0.1913   -25.671    -9.160    -8.563  0.2339  0.3157  0.9196
    10 C(13)  Bbb     0.0797    10.691     3.815     3.566  0.4025  0.8295 -0.3871
              Bcc     0.1116    14.980     5.345     4.997  0.8850 -0.4607 -0.0669
 
              Baa    -0.1628   -21.843    -7.794    -7.286  0.9413  0.1443 -0.3053
    11 C(13)  Bbb    -0.1437   -19.280    -6.879    -6.431 -0.2331  0.9318 -0.2783
              Bcc     0.3064    41.122    14.674    13.717  0.2443  0.3331  0.9107
 
              Baa    -0.1871   -25.103    -8.957    -8.374  0.2636  0.3841  0.8849
    12 C(13)  Bbb     0.0812    10.897     3.888     3.635  0.8983 -0.4320 -0.0800
              Bcc     0.1059    14.207     5.069     4.739  0.3515  0.8160 -0.4589
 
              Baa    -0.1470   -19.728    -7.039    -6.580 -0.2497  0.9154 -0.3159
    13 C(13)  Bbb    -0.1276   -17.124    -6.110    -5.712  0.9124  0.1131 -0.3933
              Bcc     0.2746    36.852    13.150    12.292  0.3243  0.3864  0.8634
 
[...]
   R13        2.71889   0.00450   0.00312   0.00566   0.00878   2.72768
   R14        2.56905   0.01010   0.01238  -0.00015   0.01223   2.58128
   R15        2.05291   0.00058  -0.00069   0.00287   0.00218   2.05508
   R16        2.68502   0.00188  -0.01065   0.01972   0.00908   2.69410
   R17        2.05933  -0.00062  -0.00034  -0.00141  -0.00175   2.05758
   R18        2.61102   0.00516   0.00999  -0.00468   0.00531   2.61633
   R19        2.05884  -0.00063  -0.00037  -0.00138  -0.00175   2.05709
   R20        2.63892   0.00157  -0.00675   0.01333   0.00657   2.64549
   R21        2.05788  -0.00056  -0.00025  -0.00141  -0.00166   2.05622
   R22        2.65818   0.00433   0.00598  -0.00078   0.00519   2.66337
   R23        2.05849  -0.00056  -0.00032  -0.00132  -0.00164   2.05685
   R24        2.60885  -0.00211  -0.00293   0.00258  -0.00035   2.60849
   R25        2.05772  -0.00030  -0.00012  -0.00101  -0.00112   2.05660
   R26        2.05703   0.00026  -0.00047   0.00026  -0.00021   2.05682
    A1        2.18758  -0.00285   0.00256  -0.01140  -0.00886   2.17872
    A2        2.12710   0.00065  -0.00041   0.00053   0.00010   2.12721
    A3        1.96845   0.00221  -0.00216   0.01098   0.00881   1.97725
    A4        3.04402  -0.02803  -0.02627  -0.00039  -0.02667   3.01735
    A5        1.94587   0.01143   0.00091   0.04831   0.04928   1.99515
    A6        1.67224  -0.00179   0.00998  -0.02118  -0.01118   1.66105
    A7        1.86321  -0.00262  -0.00964   0.00214  -0.00713   1.85608
    A8        1.98921   0.00446   0.00988   0.00455   0.01419   2.00340
    A9        1.98959   0.00324  -0.00747   0.02856   0.02095   2.01054
   A10        2.22602  -0.00681  -0.00152  -0.01843  -0.02037   2.20565
   A11        2.29924  -0.00763  -0.01069  -0.01753  -0.02830   2.27094
   A12        1.98641   0.00206   0.00759  -0.00359   0.00392   1.99032
   A13        1.99531   0.00557   0.00172   0.02455   0.02619   2.02151
   A14        2.04650  -0.00186   0.00050  -0.01152  -0.01104   2.03546
   A15        1.99153   0.00064  -0.00699   0.01261   0.00560   1.99714
   A16        2.24512   0.00122   0.00642  -0.00131   0.00508   2.25020
   A17        2.38944  -0.00082  -0.00249  -0.00226  -0.00476   2.38468
   A18        1.96081  -0.00258   0.00096  -0.01736  -0.01646   1.94435
   A19        1.93228   0.00342   0.00136   0.02041   0.02171   1.95400
   A20        2.38080  -0.00025  -0.00052  -0.00053  -0.00100   2.37981
   A21        1.95664   0.00070  -0.00206   0.00680   0.00474   1.96138
   A22        1.94528  -0.00045   0.00268  -0.00699  -0.00432   1.94096
   A23        2.36006  -0.00112   0.00033  -0.00240  -0.00203   2.35803
   A24        1.95753  -0.00036   0.00151  -0.00609  -0.00461   1.95292
   A25        1.96552   0.00148  -0.00184   0.00855   0.00669   1.97220
   A26        2.33290   0.00026   0.00151  -0.00004   0.00152   2.33442
   A27        1.97143   0.00078  -0.00200   0.00664   0.00463   1.97605
   A28        1.97814  -0.00103   0.00060  -0.00681  -0.00622   1.97191
   A29        2.35487   0.00039  -0.00074   0.00157   0.00084   2.35571
   A30        1.96832  -0.00011   0.00183  -0.00278  -0.00096   1.96737
   A31        1.95998  -0.00028  -0.00113   0.00126   0.00013   1.96011
   A32        2.37729   0.00096  -0.00104   0.00147   0.00044   2.37773
   A33        1.95135  -0.00015  -0.00061   0.00303   0.00242   1.95376
   A34        1.95415  -0.00081   0.00174  -0.00492  -0.00319   1.95096
   A35        2.39498  -0.00059  -0.00166  -0.00225  -0.00389   2.39109
   A36        1.94307  -0.00014  -0.00027   0.00157   0.00130   1.94437
   A37        1.94503   0.00073   0.00187   0.00080   0.00266   1.94768
   A38        3.05245   0.02022   0.03014  -0.00044   0.02974   3.08219
   A39        2.78420   0.00482   0.03313   0.09343   0.12650   2.91070
    D1        3.04370   0.00111  -0.01680   0.02110   0.00430   3.04800
    D2       -3.13096  -0.00032   0.00083  -0.01065  -0.00982  -3.14079
    D3       -0.10853   0.00143  -0.01762   0.03175   0.01413  -0.09440
    D4       -1.48635   0.00534  -0.02113   0.31334   0.29181  -1.19454
    D5        2.83192   0.00326  -0.01498   0.31842   0.30384   3.13576
    D6        1.87361  -0.00051   0.01947  -0.14939  -0.12965   1.74397
    D7       -0.88588  -0.00086   0.01786  -0.17860  -0.16116  -1.04705
    D8       -2.60446   0.00080   0.02662  -0.15319  -0.12615  -2.73060
    D9        0.91923   0.00045   0.02500  -0.18240  -0.15766   0.76157
   D10       -2.86464  -0.00187  -0.00380  -0.00967  -0.01327  -2.87791
   D11        0.35409  -0.00227   0.01206  -0.07018  -0.05779   0.29630
   D12       -0.16711   0.00172  -0.00284   0.03770   0.03453  -0.13257
   D13        3.05162   0.00132   0.01303  -0.02281  -0.00999   3.04163
   D14        0.10381   0.00037   0.02122  -0.08927  -0.06821   0.03561
   D15       -3.04568   0.00012   0.02834  -0.11577  -0.08739  -3.13307
   D16       -3.11523   0.00065   0.00569  -0.02950  -0.02385  -3.13907
   D17        0.01847   0.00039   0.01281  -0.05600  -0.04303  -0.02456
   D18       -3.04604   0.00007  -0.00295   0.01173   0.00870  -3.03734
   D19        0.13955  -0.00040   0.00151  -0.01529  -0.01368   0.12587
   D20        0.10478   0.00037  -0.01150   0.04263   0.03117   0.13595
   D21       -2.99281  -0.00010  -0.00705   0.01561   0.00879  -2.98402
   D22        3.01627   0.00025  -0.00115   0.00875   0.00771   3.02398
   D23       -0.10798   0.00026   0.00246  -0.00193   0.00061  -0.10737
   D24       -0.13431  -0.00005   0.00709  -0.02145  -0.01442  -0.14874
   D25        3.02462  -0.00005   0.01070  -0.03213  -0.02152   3.00310
   D26        0.07544  -0.00049  -0.00351  -0.00437  -0.00784   0.06760
   D27       -3.10288  -0.00047   0.00679  -0.03307  -0.02625  -3.12913
   D28       -3.10966  -0.00013  -0.00792   0.02170   0.01396  -3.09570
   D29       -0.00479  -0.00011   0.00238  -0.00700  -0.00445  -0.00924
   D30       -0.08637   0.00010   0.01054  -0.02642  -0.01578  -0.10215
   D31        3.07060  -0.00014   0.01063  -0.03261  -0.02191   3.04869
   D32        3.09178   0.00007   0.00027   0.00195   0.00234   3.09412
   D33       -0.03443  -0.00017   0.00036  -0.00424  -0.00379  -0.03822
   D34       -0.06434   0.00038   0.00345  -0.00173   0.00176  -0.06257
   D35        3.12200   0.00017  -0.00060   0.00490   0.00427   3.12628
   D36        3.06182   0.00061   0.00338   0.00438   0.00787   3.06969
   D37       -0.03502   0.00040  -0.00067   0.01101   0.01038  -0.02464
   D38        0.05428  -0.00008  -0.00928   0.02123   0.01192   0.06621
   D39       -3.08138  -0.00014  -0.00496   0.00927   0.00424  -3.07714
   D40       -3.13219   0.00016  -0.00524   0.01483   0.00963  -3.12256
   D41        0.01533   0.00010  -0.00092   0.00288   0.00195   0.01728
   D42        0.08231  -0.00012  -0.00359   0.00785   0.00420   0.08651
   D43       -3.09334  -0.00020   0.00253  -0.01032  -0.00785  -3.10118
   D44       -3.06519  -0.00006  -0.00786   0.01976   0.01186  -3.05333
   D45        0.04235  -0.00014  -0.00174   0.00158  -0.00019   0.04215
   D46       -0.03169  -0.00001   0.00686  -0.01830  -0.01150  -0.04319
   D47        3.09254  -0.00002   0.00322  -0.00761  -0.00439   3.08815
   D48       -3.13919   0.00007   0.00075  -0.00021   0.00046  -3.13873
   D49       -0.01496   0.00006  -0.00290   0.01048   0.00756  -0.00739
         Item               Value     Threshold  Converged?
 Maximum Force            0.028035     0.000450     NO 
 RMS     Force            0.004778     0.000300     NO 
 Maximum Displacement     1.645245     0.001800     NO 
 RMS     Displacement     0.275349     0.001200     NO 
 Predicted change in Energy=-4.367235D-03
 GradGradGradGradGradGradGradGradGradGradGradGradGradGradGradGradGradGrad

                          Input orientation:                          
 ---------------------------------------------------------------------
 Center     Atomic      Atomic             Coordinates (Angstroms)
 Number     Number       Type             X           Y           Z
 ---------------------------------------------------------------------
      1          8           0        2.439678   -0.136259    2.336931
      2          6           0        3.552648   -0.419064    1.955309
      3          6           0        3.894197   -0.767100    0.599065
      4          6           0        4.325526   -1.062109   -0.497508
      5         16           0        5.190508   -1.322710   -1.951396
      6          6           0        5.771967    0.095511   -2.682958
      7          6           0        7.139433    0.368816   -2.443405
      8          6           0        7.862310    1.533831   -2.631982
      9          6           0        7.121791    2.689889   -3.114790
     10          6           0        7.418200    3.959164   -3.523344
     11          6           0        8.601923    4.726117   -3.730897
     12          6           0        9.953133    4.524583   -3.506265
     13          6           0       10.693388    3.491759   -2.918798
     14          6           0       10.384909    2.225085   -2.383290
     15          6           0        9.259013    1.432956   -2.281954
     16          1           0        4.421140   -0.432825    2.643021
     17          1           0        4.101403   -1.708823   -2.674812
     18          1           0        5.013915    0.813860   -2.960997
     19          1           0        7.706065   -0.487672   -2.079438
     20          1           0        6.052428    2.493760   -3.140492
     21          1           0        6.529585    4.522731   -3.803153
     22          1           0        8.383189    5.701808   -4.161201
     23          1           0       10.570047    5.364299   -3.819732
     24          1           0       11.756911    3.716317   -2.862271
     25          1           0       11.264775    1.730233   -1.976642
     26          1           0        9.484976    0.472544   -1.822371
 ---------------------------------------------------------------------
                    Distance matrix (angstroms):
                    1          2          3          4          5
     1  O    0.000000
     2  C    1.210089   0.000000
     3  C    2.352395   1.441243   0.000000
     4  C    3.528125   2.650879   1.214721   0.000000
     5  S    5.231107   4.331455   2.914443   1.711694   0.000000
     6  C    6.029689   5.167561   3.878375   2.865042   1.698419
     7  C    6.722679   5.730137   4.591131   3.708387   2.627098
     8  C    7.542164   6.590161   5.610692   4.878906   3.970082
     9  C    7.722082   6.936157   6.013390   5.361600   4.602639
    10  C    8.712118   8.007935   7.193777   6.628235   5.944058
    11  C    9.921416   9.181558   8.431292   7.889609   7.168869
    12  C   10.598037   9.758824   9.031409   8.481374   7.700068
    13  C   10.435944   9.489027   8.760265   8.194512   7.375409
    14  C    9.538508   8.514386   7.744479   7.146884   6.305171
    15  C    8.384501   7.344861   6.474702   5.809379   4.925007
    16  H    2.026779   1.107888   2.137093   3.204382   4.742625
    17  H    5.509252   4.837627   3.412924   2.282351   1.363292
    18  H    5.966361   5.274986   4.053054   3.172053   2.369686
    19  H    6.882051   5.790920   4.667204   3.776310   2.653622
    20  H    7.069026   6.379705   5.410680   4.755182   4.089290
    21  H    8.725489   8.151281   7.369336   6.853875   6.276250
    22  H   10.565702   9.910141   9.200976   8.697002   8.026226
    23  H   11.587214  10.772292  10.083987   9.556670   8.783291
    24  H   11.343935  10.374025   9.690415   9.146088   8.327012
    25  H    9.998652   8.919452   8.197339   7.624840   6.798369
    26  H    8.204063   7.089312   6.217465   5.543495   4.656397
                    6          7          8          9         10
     6  C    0.000000
     7  C    1.414936   0.000000
     8  C    2.537892   1.383969   0.000000
     9  C    2.956231   2.416288   1.455315   0.000000
    10  C    4.283007   3.759598   2.621831   1.365955   0.000000
    11  C    5.527146   4.773110   3.456202   2.591641   1.425657
    12  C    6.146272   5.130008   3.752401   3.396447   2.597283
    13  C    5.984188   4.754931   3.454092   3.665748   3.363153
    14  C    5.089609   3.739313   2.627392   3.376251   3.620513
    15  C    3.756201   2.377199   1.443424   2.615571   3.363238
    16  H    5.519957   5.822669   6.598109   7.085002   8.142235
    17  H    2.458958   3.687786   4.965991   5.353970   6.621724
    18  H    1.080729   2.232441   2.956342   2.826000   3.998719
    19  H    2.108334   1.089548   2.101473   3.392672   4.684237
    20  H    2.457559   2.486543   2.110857   1.087504   2.039440
    21  H    4.629158   4.413144   3.475819   2.045449   1.088824
    22  H    6.358793   5.739212   4.470107   3.428958   2.091620
    23  H    7.216229   6.214357   4.838913   4.420394   3.463581
    24  H    6.997281   5.718593   4.470369   4.754120   4.395498
    25  H    5.774265   4.369184   3.470564   4.402344   4.707076
    26  H    3.830039   2.428583   2.101153   3.488783   4.395610
                   11         12         13         14         15
    11  C    0.000000
    12  C    1.384501   0.000000
    13  C    2.560736   1.399936   0.000000
    14  C    3.354138   2.595225   1.409394   0.000000
    15  C    3.657337   3.396895   2.588759   1.380356   0.000000
    16  H    9.204372   9.643265   9.256203   8.239833   7.151331
    17  H    7.923286   8.590077   8.399991   7.419102   6.051946
    18  H    5.363982   6.201827   6.279278   5.583268   4.343412
    19  H    5.541974   5.675196   5.046236   3.824602   2.478199
    20  H    3.439756   4.412883   4.752227   4.406351   3.484907
    21  H    2.083548   3.436397   4.379753   4.707304   4.394375
    22  H    1.088568   2.068702   3.430000   4.388104   4.745707
    23  H    2.070913   1.088103   2.081658   3.457210   4.420298
    24  H    3.424639   2.078854   1.088440   2.082206   3.433657
    25  H    4.375330   3.445075   2.077767   1.088304   2.050530
    26  H    4.745012   4.412900   3.431919   2.048392   1.088424
                   16         17         18         19         20
    16  H    0.000000
    17  H    5.478116   0.000000
    18  H    5.771536   2.697872   0.000000
    19  H    5.752856   3.852177   3.117499   0.000000
    20  H    6.683938   4.656722   1.983126   3.570614   0.000000
    21  H    8.399776   6.782440   4.094167   5.427654   2.187127
    22  H    9.981432   8.686800   6.056775   6.565203   4.094614
    23  H   10.638744   9.653148   7.232878   6.743633   5.395391
    24  H   10.066636   9.384780   7.341798   5.890306   5.840648
    25  H    8.535541   7.976745   6.393899   4.194531   5.395005
    26  H    6.811890   5.870935   4.626375   2.037798   4.195848
                   21         22         23         24         25
    21  H    0.000000
    22  H    2.225818   0.000000
    23  H    4.127208   2.238942   0.000000
    24  H    5.372196   4.124487   2.245267   0.000000
    25  H    5.792772   5.371149   4.133529   2.229588   0.000000
    26  H    5.390904   5.833460   5.394080   4.094526   2.184781
                   26
    26  H    0.000000
 Stoichiometry    C13H11OS(2)
 Framework group  C1[X(C13H11OS)]
 Deg. of freedom    72
 Full point group                 C1      NOp   1
 Largest Abelian subgroup         C1      NOp   1
 Largest concise Abelian subgroup C1      NOp   1
                         Standard orientation:                         
 ---------------------------------------------------------------------
 Center     Atomic      Atomic             Coordinates (Angstroms)
 Number     Number       Type             X           Y           Z
 ---------------------------------------------------------------------
      1          8           0        5.672539    2.279124   -0.340693
      2          6           0        4.864696    1.573229   -0.900530
      3          6           0        4.185944    0.456633   -0.292509
      4          6           0        3.535143   -0.494366    0.091688
      5         16           0        2.395375   -1.722312    0.442365
      6          6           0        0.883575   -1.146225    0.959290
      7          6           0       -0.116816   -1.124996   -0.041117
      8          6           0       -1.341250   -0.480327   -0.064249
      9          6           0       -1.665436    0.345386    1.089458
     10          6           0       -2.747059    1.052563    1.531979
     11          6           0       -4.090381    1.259767    1.101804
     12          6           0       -4.830212    0.899852   -0.011728
     13          6           0       -4.523991    0.230478   -1.202521
     14          6           0       -3.376694   -0.400757   -1.723714
     15          6           0       -2.109550   -0.701246   -1.266074
     16          1           0        4.577422    1.737481   -1.957843
     17          1           0        3.037204   -2.170607    1.558453
     18          1           0        0.902186   -0.549077    1.859869
     19          1           0        0.113570   -1.737575   -0.912199
     20          1           0       -0.818045    0.433100    1.765402
     21          1           0       -2.553821    1.557385    2.477151
     22          1           0       -4.660776    1.846001    1.820107
     23          1           0       -5.862229    1.242158    0.029926
     24          1           0       -5.368371    0.183957   -1.887766
     25          1           0       -3.542294   -0.778048   -2.731004
     26          1           0       -1.538977   -1.260732   -2.005053
 ---------------------------------------------------------------------
 Rotational constants (GHZ):           0.9767931           0.1838116           0.1759737
 Standard basis: 6-31G(2df,p) (6D, 7F)
 There are   524 symmetry adapted cartesian basis functions of A   symmetry.
 There are   479 symmetry adapted basis functions of A   symmetry.
   479 basis functions,   761 primitive gaussians,   524 cartesian basis functions
    57 alpha electrons       56 beta electrons
       nuclear repulsion energy       895.1478238878 Hartrees.
 NAtoms=   26 NActive=   26 NUniq=   26 SFac= 1.00D+00 NAtFMM=   60 NAOKFM=F Big=F
 Integral buffers will be    131072 words long.
 Raffenetti 2 integral format.
 Two-electron integral symmetry is turned on.
 One-electron integrals computed using PRISM.
 PrsmSu:  requested number of processors reduced to:  12 ShMem   1 Linda.
 NBasis=   479 RedAO= T EigKep=  1.44D-04  NBF=   479
 NBsUse=   479 1.00D-06 EigRej= -1.00D+00 NBFU=   479
 Initial guess from the checkpoint file:  "OdC[C]dCd[SH]CdCC1dCCdCCdCCdC1.chk"
 B after Tr=     0.000000   -0.000000    0.000000
         Rot=    0.998078   -0.061083    0.005241    0.009037 Ang=  -7.11 deg.
 Initial guess <Sx>= 0.0000 <Sy>= 0.0000 <Sz>= 0.5000 <S**2>= 0.8352 S= 0.5417
 ExpMin= 1.17D-01 ExpMax= 2.19D+04 ExpMxC= 3.30D+03 IAcc=2 IRadAn=         4 AccDes= 0.00D+00
 Harris functional with IExCor=  402 and IRadAn=       4 diagonalized for initial guess.
 HarFok:  IExCor=  402 AccDes= 0.00D+00 IRadAn=         4 IDoV= 1 UseB2=F ITyADJ=14
 ICtDFT=  3500011 ScaDFX=  1.000000  1.000000  1.000000  1.000000
 FoFCou: FMM=F IPFlag=           0 FMFlag=      100000 FMFlg1=           0
         NFxFlg=           0 DoJE=T BraDBF=F KetDBF=T FulRan=T
         wScrn=  0.000000 ICntrl=       500 IOpCl=  0 I1Cent=   200000004 NGrid=           0
         NMat0=    1 NMatS0=      1 NMatT0=    0 NMatD0=    1 NMtDS0=    0 NMtDT0=    0
 Petite list used in FoFCou.
 Requested convergence on RMS density matrix=1.00D-08 within 128 cycles.
 Requested convergence on MAX density matrix=1.00D-06.
 Requested convergence on             energy=1.00D-06.
 No special actions if energy rises.
 Integral accuracy reduced to 1.0D-05 until final iterations.
slurmstepd: error: *** JOB 27446934 ON lewis4-r630-hpc4rc-node355 CANCELLED AT 2023-05-17T00:34:18 DUE TO TIME LIMIT ***
