### Starting Gaussian ###
 Entering Gaussian System, Link 0=g16
 Initial command:
 /cluster/software/gaussian/gaussian-16-A.03/avx2/g16/l1.exe "/local/scratch/yxie/Gau-30108.inp" -scrdir="/local/scratch/yxie/"
 Entering Link 1 = /cluster/software/gaussian/gaussian-16-A.03/avx2/g16/l1.exe PID=     30109.
  
 Copyright (c) 1988,1990,1992,1993,1995,1998,2003,2009,2016,
            Gaussian, Inc.  All Rights Reserved.
  
 This is part of the Gaussian(R) 16 program.  It is based on
 the Gaussian(R) 09 system (copyright 2009, Gaussian, Inc.),
 the Gaussian(R) 03 system (copyright 2003, Gaussian, Inc.),
 the Gaussian(R) 98 system (copyright 1998, Gaussian, Inc.),
 the Gaussian(R) 94 system (copyright 1995, Gaussian, Inc.),
 the Gaussian 92(TM) system (copyright 1992, Gaussian, Inc.),
 the Gaussian 90(TM) system (copyright 1990, Gaussian, Inc.),
 the Gaussian 88(TM) system (copyright 1988, Gaussian, Inc.),
 the Gaussian 86(TM) system (copyright 1986, Carnegie Mellon
 University), and the Gaussian 82(TM) system (copyright 1983,
 Carnegie Mellon University). Gaussian is a federally registered
 trademark of Gaussian, Inc.
  
 This software contains proprietary and confidential information,
 including trade secrets, belonging to Gaussian, Inc.
  
 This software is provided under written license and may be
 used, copied, transmitted, or stored only in accord with that
 written license.
  
 The following legend is applicable only to US Government
 contracts under FAR:
  
                    RESTRICTED RIGHTS LEGEND
  
 Use, reproduction and disclosure by the US Government is
 subject to restrictions as set forth in subparagraphs (a)
 and (c) of the Commercial Computer Software - Restricted
 Rights clause in FAR 52.227-19.
  
 Gaussian, Inc.
 340 Quinnipiac St., Bldg. 40, Wallingford CT 06492
  
  
 ---------------------------------------------------------------
 Warning -- This program may not be used in any manner that
 competes with the business of Gaussian, Inc. or will provide
 assistance to any competitor of Gaussian, Inc.  The licensee
 of this program is prohibited from giving any competitor of
 Gaussian, Inc. access to this program.  By using this program,
 the user acknowledges that Gaussian, Inc. is engaged in the
 business of creating and licensing software in the field of
 computational chemistry and represents and warrants to the
 licensee that it is not a competitor of Gaussian, Inc. and that
 it will not use this program in any manner prohibited above.
 ---------------------------------------------------------------
  

 Cite this work as:
 Gaussian 16, Revision A.03,
 M. J. Frisch, G. W. Trucks, H. B. Schlegel, G. E. Scuseria, 
 M. A. Robb, J. R. Cheeseman, G. Scalmani, V. Barone, 
 G. A. Petersson, H. Nakatsuji, X. Li, M. Caricato, A. V. Marenich, 
 J. Bloino, B. G. Janesko, R. Gomperts, B. Mennucci, H. P. Hratchian, 
 J. V. Ortiz, A. F. Izmaylov, J. L. Sonnenberg, D. Williams-Young, 
 F. Ding, F. Lipparini, F. Egidi, J. Goings, B. Peng, A. Petrone, 
 T. Henderson, D. Ranasinghe, V. G. Zakrzewski, J. Gao, N. Rega, 
 G. Zheng, W. Liang, M. Hada, M. Ehara, K. Toyota, R. Fukuda, 
 J. Hasegawa, M. Ishida, T. Nakajima, Y. Honda, O. Kitao, H. Nakai, 
 T. Vreven, K. Throssell, J. A. Montgomery, Jr., J. E. Peralta, 
 F. Ogliaro, M. J. Bearpark, J. J. Heyd, E. N. Brothers, K. N. Kudin, 
 V. N. Staroverov, T. A. Keith, R. Kobayashi, J. Normand, 
 K. Raghavachari, A. P. Rendell, J. C. Burant, S. S. Iyengar, 
 J. Tomasi, M. Cossi, J. M. Millam, M. Klene, C. Adamo, R. Cammi, 
 J. W. Ochterski, R. L. Martin, K. Morokuma, O. Farkas, 
 J. B. Foresman, and D. J. Fox, Gaussian, Inc., Wallingford CT, 2016.
 
 ******************************************
 Gaussian 16:  ES64L-G16RevA.03 25-Dec-2016
                18-May-2023 
 ******************************************
 %chk=OdCCtCC1dCNdCCdCC2dCCdC2CCC1.chk
 %NProcShared=20
 Will use up to   20 processors via shared memory.
 -----------------------------
 # opt freq b3lyp/6-31g(2df,p)
 -----------------------------
 1/18=20,19=15,26=3,38=1/1,3;
 2/9=110,12=2,17=6,18=5,40=1/2;
 3/5=1,6=6,7=104,11=2,25=1,30=1,71=1,74=-5/1,2,3;
 4//1;
 5/5=2,38=5/2;
 6/7=2,8=2,9=2,10=2,28=1/1;
 7//1,2,3,16;
 1/18=20,19=15,26=3/3(2);
 2/9=110/2;
 99//99;
 2/9=110/2;
 3/5=1,6=6,7=104,11=2,25=1,30=1,71=1,74=-5/1,2,3;
 4/5=5,16=3,69=1/1;
 5/5=2,38=5/2;
 7//1,2,3,16;
 1/18=20,19=15,26=3/3(-5);
 2/9=110/2;
 6/7=2,8=2,9=2,10=2,19=2,28=1/1;
 99/9=1/99;
 -------------------
 Title Card Required
 -------------------
 Symbolic Z-matrix:
 Charge =  0 Multiplicity = 1
 O                     1.39761  -0.20986   0.63754 
 C                     2.62291  -0.33417   0.78193 
 C                     3.29607  -1.05773   2.07967 
 C                     3.85689  -1.57567   3.08629 
 C                     4.95074  -1.91038   4.33325 
 C                     5.93249  -1.02154   4.15254 
 N                     6.8075   -1.24348   5.05772 
 C                     7.8912   -0.5717    5.23348 
 C                     8.50456  -1.17722   6.35917 
 C                     9.63426  -0.81934   6.90574 
 C                     10.24529  -1.47059   8.09415 
 C                     11.48268  -0.88667   8.50038 
 C                     12.19186  -1.46534   9.65611 
 C                     9.67951  -2.64166   8.88083 
 C                     8.35373  -3.26242   8.47171 
 C                     6.66829  -3.41859   7.3637 
 C                     5.39842  -3.00376   5.8507 
 H                     3.2346    0.09993  -0.06283 
 H                     6.00147  -0.25504   3.38427 
 H                     8.26933   0.26227   4.67938 
 H                     7.93999  -1.98049   6.7383 
 H                     10.13229   0.01429   6.43492 
 H                     11.93328  -0.04031   7.95483 
 H                     13.07828  -1.60359   10.23943 
 H                     8.80622  -3.67809   7.56206 
 H                     7.84144  -2.34041   8.77915 
 H                     5.94024  -3.40448   8.2021 
 H                     6.72293  -4.51864   7.20849 
 H                     4.43835  -2.89516   6.39571 
 H                     5.30084  -3.99234   5.35997 
 
 Add virtual bond connecting atoms C17        and C5         Dist= 3.63D+00.
 Add virtual bond connecting atoms C15        and C16        Dist= 3.82D+00.
 Add virtual bond connecting atoms C17        and C16        Dist= 3.81D+00.
 Add virtual bond connecting atoms H21        and C16        Dist= 3.82D+00.
 Add virtual bond connecting atoms H25        and C16        Dist= 4.09D+00.
 Add virtual bond connecting atoms H26        and C16        Dist= 4.03D+00.

 GradGradGradGradGradGradGradGradGradGradGradGradGradGradGradGradGradGrad
 Berny optimization.
 Initialization pass.
                           ----------------------------
                           !    Initial Parameters    !
                           ! (Angstroms and Degrees)  !
 --------------------------                            --------------------------
 ! Name  Definition              Value          Derivative Info.                !
 --------------------------------------------------------------------------------
 ! R1    R(1,2)                  1.24           estimate D2E/DX2                !
 ! R2    R(2,3)                  1.6312         estimate D2E/DX2                !
 ! R3    R(2,18)                 1.1297         estimate D2E/DX2                !
 ! R4    R(3,4)                  1.2634         estimate D2E/DX2                !
 ! R5    R(4,5)                  1.6922         estimate D2E/DX2                !
 ! R6    R(5,6)                  1.3366         estimate D2E/DX2                !
 ! R7    R(5,17)                 1.9232         estimate D2E/DX2                !
 ! R8    R(6,7)                  1.2784         estimate D2E/DX2                !
 ! R9    R(6,19)                 1.0874         estimate D2E/DX2                !
 ! R10   R(7,8)                  1.2871         estimate D2E/DX2                !
 ! R11   R(8,9)                  1.4178         estimate D2E/DX2                !
 ! R12   R(8,20)                 1.0703         estimate D2E/DX2                !
 ! R13   R(9,10)                 1.305          estimate D2E/DX2                !
 ! R14   R(9,21)                 1.0525         estimate D2E/DX2                !
 ! R15   R(10,11)                1.4865         estimate D2E/DX2                !
 ! R16   R(10,22)                1.0792         estimate D2E/DX2                !
 ! R17   R(11,12)                1.4273         estimate D2E/DX2                !
 ! R18   R(11,14)                1.52           estimate D2E/DX2                !
 ! R19   R(12,13)                1.4743         estimate D2E/DX2                !
 ! R20   R(12,23)                1.1032         estimate D2E/DX2                !
 ! R21   R(13,24)                1.0701         estimate D2E/DX2                !
 ! R22   R(14,15)                1.52           estimate D2E/DX2                !
 ! R23   R(15,16)                2.0231         estimate D2E/DX2                !
 ! R24   R(15,25)                1.0977         estimate D2E/DX2                !
 ! R25   R(15,26)                1.0987         estimate D2E/DX2                !
 ! R26   R(16,17)                2.0184         estimate D2E/DX2                !
 ! R27   R(16,21)                2.019          estimate D2E/DX2                !
 ! R28   R(16,25)                2.1627         estimate D2E/DX2                !
 ! R29   R(16,26)                2.1313         estimate D2E/DX2                !
 ! R30   R(16,27)                1.1105         estimate D2E/DX2                !
 ! R31   R(16,28)                1.1123         estimate D2E/DX2                !
 ! R32   R(17,29)                1.1093         estimate D2E/DX2                !
 ! R33   R(17,30)                1.108          estimate D2E/DX2                !
 ! A1    A(1,2,3)              123.0166         estimate D2E/DX2                !
 ! A2    A(1,2,18)             114.1696         estimate D2E/DX2                !
 ! A3    A(3,2,18)             122.8136         estimate D2E/DX2                !
 ! A4    A(3,4,5)              162.7837         estimate D2E/DX2                !
 ! A5    A(4,5,6)              104.1011         estimate D2E/DX2                !
 ! A6    A(4,5,17)             147.6048         estimate D2E/DX2                !
 ! A7    A(6,5,17)             108.2865         estimate D2E/DX2                !
 ! A8    A(5,6,7)              106.9517         estimate D2E/DX2                !
 ! A9    A(5,6,19)             127.6507         estimate D2E/DX2                !
 ! A10   A(7,6,19)             125.3945         estimate D2E/DX2                !
 ! A11   A(6,7,8)              125.6186         estimate D2E/DX2                !
 ! A12   A(7,8,9)              104.4639         estimate D2E/DX2                !
 ! A13   A(7,8,20)             129.3065         estimate D2E/DX2                !
 ! A14   A(9,8,20)             126.2285         estimate D2E/DX2                !
 ! A15   A(8,9,10)             126.152          estimate D2E/DX2                !
 ! A16   A(8,9,21)             112.3283         estimate D2E/DX2                !
 ! A17   A(10,9,21)            121.5195         estimate D2E/DX2                !
 ! A18   A(9,10,11)            124.7859         estimate D2E/DX2                !
 ! A19   A(9,10,22)            115.3793         estimate D2E/DX2                !
 ! A20   A(11,10,22)           119.8348         estimate D2E/DX2                !
 ! A21   A(10,11,12)           113.8699         estimate D2E/DX2                !
 ! A22   A(10,11,14)           126.7474         estimate D2E/DX2                !
 ! A23   A(12,11,14)           119.3799         estimate D2E/DX2                !
 ! A24   A(11,12,13)           118.6577         estimate D2E/DX2                !
 ! A25   A(11,12,23)           121.8191         estimate D2E/DX2                !
 ! A26   A(13,12,23)           119.4937         estimate D2E/DX2                !
 ! A27   A(12,13,24)           151.223          estimate D2E/DX2                !
 ! A28   A(11,14,15)           120.0002         estimate D2E/DX2                !
 ! A29   A(14,15,16)           154.9041         estimate D2E/DX2                !
 ! A30   A(14,15,25)            91.04           estimate D2E/DX2                !
 ! A31   A(14,15,26)            89.3501         estimate D2E/DX2                !
 ! A32   A(25,15,26)           137.8914         estimate D2E/DX2                !
 ! A33   A(15,16,17)           156.7582         estimate D2E/DX2                !
 ! A34   A(15,16,21)            65.7903         estimate D2E/DX2                !
 ! A35   A(15,16,27)            97.5692         estimate D2E/DX2                !
 ! A36   A(15,16,28)            96.4217         estimate D2E/DX2                !
 ! A37   A(17,16,21)            91.0137         estimate D2E/DX2                !
 ! A38   A(17,16,25)           135.6721         estimate D2E/DX2                !
 ! A39   A(17,16,26)           137.7478         estimate D2E/DX2                !
 ! A40   A(17,16,27)            98.6764         estimate D2E/DX2                !
 ! A41   A(17,16,28)            97.4448         estimate D2E/DX2                !
 ! A42   A(21,16,25)            59.4188         estimate D2E/DX2                !
 ! A43   A(21,16,26)            59.9128         estimate D2E/DX2                !
 ! A44   A(21,16,27)           129.6245         estimate D2E/DX2                !
 ! A45   A(21,16,28)           129.0702         estimate D2E/DX2                !
 ! A46   A(25,16,26)            57.0198         estimate D2E/DX2                !
 ! A47   A(25,16,27)           125.477          estimate D2E/DX2                !
 ! A48   A(25,16,28)            81.1163         estimate D2E/DX2                !
 ! A49   A(26,16,27)            81.5492         estimate D2E/DX2                !
 ! A50   A(26,16,28)           124.4688         estimate D2E/DX2                !
 ! A51   A(27,16,28)            98.6341         estimate D2E/DX2                !
 ! A52   A(5,17,16)            148.7355         estimate D2E/DX2                !
 ! A53   A(5,17,29)             97.5005         estimate D2E/DX2                !
 ! A54   A(5,17,30)             97.8913         estimate D2E/DX2                !
 ! A55   A(16,17,29)           101.3233         estimate D2E/DX2                !
 ! A56   A(16,17,30)           101.7732         estimate D2E/DX2                !
 ! A57   A(29,17,30)           103.2222         estimate D2E/DX2                !
 ! A58   L(2,3,4,19,-1)        177.4032         estimate D2E/DX2                !
 ! A59   L(9,21,16,1,-1)       173.6461         estimate D2E/DX2                !
 ! A60   L(2,3,4,19,-2)        179.4825         estimate D2E/DX2                !
 ! A61   L(9,21,16,1,-2)       182.2899         estimate D2E/DX2                !
 ! D1    D(1,2,3,18)          -179.8365         estimate D2E/DX2                !
 ! D2    D(1,2,4,5)           -144.5258         estimate D2E/DX2                !
 ! D3    D(18,2,4,5)            34.3016         estimate D2E/DX2                !
 ! D4    D(3,4,5,6)             -1.0224         estimate D2E/DX2                !
 ! D5    D(3,4,5,17)          -179.7607         estimate D2E/DX2                !
 ! D6    D(4,5,6,7)           -178.8262         estimate D2E/DX2                !
 ! D7    D(4,5,6,19)             0.5513         estimate D2E/DX2                !
 ! D8    D(17,5,6,7)             0.4619         estimate D2E/DX2                !
 ! D9    D(17,5,6,19)          179.8395         estimate D2E/DX2                !
 ! D10   D(4,5,17,16)         -178.7616         estimate D2E/DX2                !
 ! D11   D(4,5,17,29)          -52.0038         estimate D2E/DX2                !
 ! D12   D(4,5,17,30)           52.5422         estimate D2E/DX2                !
 ! D13   D(6,5,17,16)            2.5271         estimate D2E/DX2                !
 ! D14   D(6,5,17,29)          129.2849         estimate D2E/DX2                !
 ! D15   D(6,5,17,30)         -126.1691         estimate D2E/DX2                !
 ! D16   D(5,6,7,8)           -178.3325         estimate D2E/DX2                !
 ! D17   D(19,6,7,8)             2.2721         estimate D2E/DX2                !
 ! D18   D(6,7,8,9)            178.9176         estimate D2E/DX2                !
 ! D19   D(6,7,8,20)            -0.716          estimate D2E/DX2                !
 ! D20   D(7,8,9,10)          -179.774          estimate D2E/DX2                !
 ! D21   D(7,8,9,21)             0.0432         estimate D2E/DX2                !
 ! D22   D(20,8,9,10)           -0.1255         estimate D2E/DX2                !
 ! D23   D(20,8,9,21)          179.6917         estimate D2E/DX2                !
 ! D24   D(8,9,10,11)          179.5113         estimate D2E/DX2                !
 ! D25   D(8,9,10,22)           -0.4024         estimate D2E/DX2                !
 ! D26   D(21,9,10,11)          -0.2903         estimate D2E/DX2                !
 ! D27   D(21,9,10,22)         179.796          estimate D2E/DX2                !
 ! D28   D(8,9,16,15)          179.6074         estimate D2E/DX2                !
 ! D29   D(8,9,16,17)            1.4969         estimate D2E/DX2                !
 ! D30   D(8,9,16,25)          146.8731         estimate D2E/DX2                !
 ! D31   D(8,9,16,26)         -147.2975         estimate D2E/DX2                !
 ! D32   D(8,9,16,27)          -98.8109         estimate D2E/DX2                !
 ! D33   D(8,9,16,28)          100.3505         estimate D2E/DX2                !
 ! D34   D(10,9,16,15)          -2.435          estimate D2E/DX2                !
 ! D35   D(10,9,16,17)         179.4545         estimate D2E/DX2                !
 ! D36   D(10,9,16,25)         -35.1694         estimate D2E/DX2                !
 ! D37   D(10,9,16,26)          30.6601         estimate D2E/DX2                !
 ! D38   D(10,9,16,27)          79.1467         estimate D2E/DX2                !
 ! D39   D(10,9,16,28)         -81.6919         estimate D2E/DX2                !
 ! D40   D(9,10,11,12)        -179.7271         estimate D2E/DX2                !
 ! D41   D(9,10,11,14)          -0.3458         estimate D2E/DX2                !
 ! D42   D(22,10,11,12)          0.183          estimate D2E/DX2                !
 ! D43   D(22,10,11,14)        179.5643         estimate D2E/DX2                !
 ! D44   D(10,11,12,13)       -179.0103         estimate D2E/DX2                !
 ! D45   D(10,11,12,23)         -0.9976         estimate D2E/DX2                !
 ! D46   D(14,11,12,13)          1.5586         estimate D2E/DX2                !
 ! D47   D(14,11,12,23)        179.5713         estimate D2E/DX2                !
 ! D48   D(10,11,14,15)         -0.1587         estimate D2E/DX2                !
 ! D49   D(12,11,14,15)        179.192          estimate D2E/DX2                !
 ! D50   D(11,12,13,24)        161.2836         estimate D2E/DX2                !
 ! D51   D(23,12,13,24)        -16.7764         estimate D2E/DX2                !
 ! D52   D(11,14,15,16)         -3.3532         estimate D2E/DX2                !
 ! D53   D(11,14,15,25)         69.7531         estimate D2E/DX2                !
 ! D54   D(11,14,15,26)        -68.1351         estimate D2E/DX2                !
 ! D55   D(14,15,16,17)          8.5308         estimate D2E/DX2                !
 ! D56   D(14,15,16,21)          4.714          estimate D2E/DX2                !
 ! D57   D(14,15,16,27)       -125.5007         estimate D2E/DX2                !
 ! D58   D(14,15,16,28)        134.8651         estimate D2E/DX2                !
 ! D59   D(15,16,17,5)          -7.1235         estimate D2E/DX2                !
 ! D60   D(15,16,17,29)       -133.0192         estimate D2E/DX2                !
 ! D61   D(15,16,17,30)        120.7196         estimate D2E/DX2                !
 ! D62   D(21,16,17,5)          -3.6422         estimate D2E/DX2                !
 ! D63   D(21,16,17,29)       -129.5379         estimate D2E/DX2                !
 ! D64   D(21,16,17,30)        124.2009         estimate D2E/DX2                !
 ! D65   D(25,16,17,5)         -48.4005         estimate D2E/DX2                !
 ! D66   D(25,16,17,29)       -174.2962         estimate D2E/DX2                !
 ! D67   D(25,16,17,30)         79.4426         estimate D2E/DX2                !
 ! D68   D(26,16,17,5)          39.7883         estimate D2E/DX2                !
 ! D69   D(26,16,17,29)        -86.1074         estimate D2E/DX2                !
 ! D70   D(26,16,17,30)        167.6314         estimate D2E/DX2                !
 ! D71   D(27,16,17,5)         126.7441         estimate D2E/DX2                !
 ! D72   D(27,16,17,29)          0.8484         estimate D2E/DX2                !
 ! D73   D(27,16,17,30)       -105.4128         estimate D2E/DX2                !
 ! D74   D(28,16,17,5)        -133.2882         estimate D2E/DX2                !
 ! D75   D(28,16,17,29)        100.8161         estimate D2E/DX2                !
 ! D76   D(28,16,17,30)         -5.4451         estimate D2E/DX2                !
 --------------------------------------------------------------------------------
 Trust Radius=3.00D-01 FncErr=1.00D-07 GrdErr=1.00D-06 EigMax=2.50D+02 EigMin=1.00D-04
 Number of steps in this run=    180 maximum allowed number of steps=    180.
 GradGradGradGradGradGradGradGradGradGradGradGradGradGradGradGradGradGrad

                          Input orientation:                          
 ---------------------------------------------------------------------
 Center     Atomic      Atomic             Coordinates (Angstroms)
 Number     Number       Type             X           Y           Z
 ---------------------------------------------------------------------
      1          8           0        1.397610   -0.209860    0.637540
      2          6           0        2.622910   -0.334170    0.781930
      3          6           0        3.296070   -1.057730    2.079670
      4          6           0        3.856890   -1.575670    3.086290
      5          6           0        4.950740   -1.910380    4.333250
      6          6           0        5.932490   -1.021540    4.152540
      7          7           0        6.807500   -1.243480    5.057720
      8          6           0        7.891200   -0.571700    5.233480
      9          6           0        8.504560   -1.177220    6.359170
     10          6           0        9.634260   -0.819340    6.905740
     11          6           0       10.245290   -1.470590    8.094150
     12          6           0       11.482680   -0.886670    8.500380
     13          6           0       12.191860   -1.465340    9.656110
     14          6           0        9.679510   -2.641660    8.880830
     15          6           0        8.353730   -3.262420    8.471710
     16          6           0        6.668290   -3.418590    7.363700
     17          6           0        5.398420   -3.003760    5.850700
     18          1           0        3.234600    0.099930   -0.062830
     19          1           0        6.001470   -0.255040    3.384270
     20          1           0        8.269330    0.262270    4.679380
     21          1           0        7.939990   -1.980490    6.738300
     22          1           0       10.132290    0.014290    6.434920
     23          1           0       11.933280   -0.040310    7.954830
     24          1           0       13.078280   -1.603590   10.239430
     25          1           0        8.806220   -3.678090    7.562060
     26          1           0        7.841440   -2.340410    8.779150
     27          1           0        5.940240   -3.404480    8.202100
     28          1           0        6.722930   -4.518640    7.208490
     29          1           0        4.438350   -2.895160    6.395710
     30          1           0        5.300840   -3.992340    5.359970
 ---------------------------------------------------------------------
                    Distance matrix (angstroms):
                    1          2          3          4          5
     1  O    0.000000
     2  C    1.240025   0.000000
     3  C    2.530370   1.631200   0.000000
     4  C    3.729594   2.893804   1.263355   0.000000
     5  C    5.401368   4.529360   2.922938   1.692173   0.000000
     6  C    5.794755   4.773553   3.353925   2.398346   1.336610
     7  N    7.062101   6.051448   4.607974   3.564125   2.101706
     8  C    7.963687   6.901275   5.594458   4.679107   3.353921
     9  C    9.175052   8.149242   6.742163   5.698363   4.155901
    10  C   10.368423   9.321774   7.969971   6.966939   5.453754
    11  C   11.639240  10.623591   9.199787   8.117965   6.509228
    12  C   12.805896  11.763301  10.405545   9.377620   7.815318
    13  C   14.121851  13.099444  11.692034  10.613502   8.998040
    14  C   11.935466  10.986915   9.461127   8.283473   6.601251
    15  C   10.912376  10.027445   8.443859   7.215916   5.525867
    16  C    9.127828   8.318560   6.698246   5.440272   3.795827
    17  C    7.140686   6.365736   4.735776   3.472423   1.923162
    18  H    1.990231   1.129702   2.436034   3.621027   5.129523
    19  H    5.361165   4.265337   3.108936   2.536154   2.178244
    20  H    7.986233   6.886793   5.764912   5.038411   3.981614
    21  H    9.119054   8.152304   6.642312   5.492974   3.837290
    22  H   10.485919   9.405770   8.176266   7.288480   5.913530
    23  H   12.828555  11.756693  10.495430   9.554480   8.085102
    24  H   15.184756  14.155229  12.750344  11.670571  10.051566
    25  H   10.717514   9.766539   8.202721   6.996324   5.330548
    26  H   10.599434   9.757745   8.196871   6.990717   5.320442
    27  H    9.384224   8.688521   7.069867   5.818626   4.263736
    28  H    9.492207   8.696012   7.072910   5.819604   4.267398
    29  H    7.043682   6.431875   4.827955   3.609904   2.342237
    30  H    7.200257   6.442978   4.836466   3.618688   2.347612
                    6          7          8          9         10
     6  C    0.000000
     7  N    1.278378   0.000000
     8  C    2.281958   1.287084   0.000000
     9  C    3.392491   2.139667   1.417760   0.000000
    10  C    4.617802   3.403769   2.428176   1.305005   0.000000
    11  C    5.859879   4.592373   3.812240   2.475149   1.486540
    12  C    7.051703   5.816918   4.865241   3.679456   2.442144
    13  C    8.346613   7.084190   6.233292   4.954696   3.810928
    14  C    6.246733   4.981919   4.559161   3.143861   2.687727
    15  C    5.434995   4.257026   4.235569   2.972143   3.171854
    16  C    4.074162   3.173015   3.760070   3.066710   3.970240
    17  C    2.664240   2.390169   3.536924   3.639079   4.881305
    18  H    5.128903   6.386736   7.084201   8.405098   9.505876
    19  H    1.087437   2.104075   2.662880   3.995736   5.090810
    20  H    2.717821   2.132457   1.070287   2.224671   2.826587
    21  H    3.411128   2.156401   2.061929   1.052484   2.060790
    22  H    4.890861   3.812203   2.609469   2.018648   1.079187
    23  H    7.171450   6.009533   4.901687   3.949027   2.644423
    24  H    9.404857   8.142633   7.282179   6.013079   4.856934
    25  H    5.190415   4.024168   3.988635   2.791468   3.047763
    26  H    5.175812   4.015137   3.962649   2.765690   3.006247
    27  H    4.698659   3.912696   4.543522   3.864300   4.691405
    28  H    4.710980   3.919137   4.565507   3.880804   4.717237
    29  H    3.282487   3.182945   4.321044   4.414376   5.618420
    30  H    3.268413   3.149224   4.292638   4.380311   5.588905
                   11         12         13         14         15
    11  C    0.000000
    12  C    1.427277   0.000000
    13  C    2.495773   1.474282   0.000000
    14  C    1.519993   2.544829   2.880398   0.000000
    15  C    2.632718   3.928783   4.400402   1.520005   0.000000
    16  C    4.138018   5.557069   6.291276   3.460166   2.023063
    17  C    5.556602   6.965708   7.937173   5.257427   3.958593
    18  H   10.869804  11.930330  13.309409  11.359676  10.504726
    19  H    6.455272   7.524440   8.895040   7.031081   6.360779
    20  H    4.309046   5.123058   6.568007   5.298453   5.178062
    21  H    2.722634   4.105121   5.182412   2.837871   2.195276
    22  H    2.229503   2.627053   4.099658   3.638895   4.248366
    23  H    2.216849   1.103173   2.234262   3.564264   4.843794
    24  H    3.556086   2.466619   1.070101   3.804605   5.310172
    25  H    2.688326   3.979436   4.554543   1.891025   1.097721
    26  H    2.646565   3.930611   4.523379   1.865366   1.098664
    27  H    4.720703   6.094832   6.705010   3.876172   2.432654
    28  H    4.741521   6.124982   6.724781   3.880868   2.415227
    29  H    6.215678   7.621434   8.531794   5.806018   4.446893
    30  H    6.187289   7.597533   8.504628   5.778715   4.419937
                   16         17         18         19         20
    16  C    0.000000
    17  C    2.018371   0.000000
    18  H    8.906377   7.020317   0.000000
    19  H    5.127237   3.741979   4.434419   0.000000
    20  H    4.828834   4.503451   6.918339   2.662350   0.000000
    21  H    2.019029   2.880016   8.527849   4.240820   3.062285
    22  H    4.964534   5.644419   9.476614   5.142244   2.571777
    23  H    6.283497   7.477553  11.830874   7.491495   4.923886
    24  H    7.256171   8.955539  14.350490   9.944498   7.584299
    25  H    2.162737   3.872541  10.171299   6.085871   4.911673
    26  H    2.131256   3.870943  10.264446   6.069513   4.874951
    27  H    1.110482   2.446064   9.376057   5.756232   5.592787
    28  H    1.112288   2.427505   9.293639   5.772647   5.625376
    29  H    2.486688   1.109308   7.220271   4.299110   5.252767
    30  H    2.492798   1.107984   7.100900   4.285054   5.232288
                   21         22         23         24         25
    21  H    0.000000
    22  H    2.979491   0.000000
    23  H    4.603326   2.357260   0.000000
    24  H    6.229124   5.076484   2.995708   0.000000
    25  H    2.076242   4.081982   4.813130   5.451821   0.000000
    26  H    2.074686   4.035842   4.765828   5.486330   2.049755
    27  H    2.858226   5.690711   6.877159   7.638425   2.949297
    28  H    2.853860   5.724474   6.910876   7.620668   2.274123
    29  H    3.635309   6.394325   8.170373   9.544146   4.588207
    30  H    3.593389   6.368007   8.145005   9.487035   4.151583
                   26         27         28         29         30
    26  H    0.000000
    27  H    2.253840   0.000000
    28  H    2.909076   1.685591   0.000000
    29  H    4.191605   2.403773   2.918151   0.000000
    30  H    4.568842   2.971887   2.390891   1.737944   0.000000
 Stoichiometry    C15H13NO
 Framework group  C1[X(C15H13NO)]
 Deg. of freedom    84
 Full point group                 C1      NOp   1
 Largest Abelian subgroup         C1      NOp   1
 Largest concise Abelian subgroup C1      NOp   1
                         Standard orientation:                         
 ---------------------------------------------------------------------
 Center     Atomic      Atomic             Coordinates (Angstroms)
 Number     Number       Type             X           Y           Z
 ---------------------------------------------------------------------
      1          8           0        7.560341   -0.490154    0.423572
      2          6           0        6.543885   -0.918798   -0.142768
      3          6           0        5.116401   -0.129650   -0.124118
      4          6           0        3.984407    0.430785   -0.100296
      5          6           0        2.314028    0.698946   -0.063266
      6          6           0        1.786803   -0.529269   -0.070303
      7          7           0        0.516097   -0.389443   -0.068106
      8          6           0       -0.343354   -1.347192   -0.042676
      9          6           0       -1.601415   -0.693696   -0.026279
     10          6           0       -2.769951   -1.273848    0.005137
     11          6           0       -4.072116   -0.557295    0.031978
     12          6           0       -5.206697   -1.422373    0.070508
     13          6           0       -6.553355   -0.822394    0.077346
     14          6           0       -4.281781    0.948164    0.035323
     15          6           0       -3.083060    1.882504    0.013140
     16          6           0       -1.110855    2.333051    0.027189
     17          6           0        0.874140    1.973580   -0.039156
     18          1           0        6.690690   -1.906171   -0.671700
     19          1           0        2.315899   -1.479178   -0.086083
     20          1           0       -0.179721   -2.404817   -0.029657
     21          1           0       -1.507699    0.354525   -0.039349
     22          1           0       -2.750624   -2.352836    0.012609
     23          1           0       -5.101384   -2.520479    0.062587
     24          1           0       -7.611127   -0.890159   -0.069765
     25          1           0       -2.852705    1.594832   -1.020868
     26          1           0       -2.822824    1.552458    1.028231
     27          1           0       -1.126125    3.029750    0.891797
     28          1           0       -1.148874    3.083647   -0.792778
     29          1           0        1.234514    2.583002    0.814834
     30          1           0        1.182082    2.567668   -0.922252
 ---------------------------------------------------------------------
 Rotational constants (GHZ):           1.4548599           0.1352577           0.1243217
 Standard basis: 6-31G(2df,p) (6D, 7F)
 There are   592 symmetry adapted cartesian basis functions of A   symmetry.
 There are   541 symmetry adapted basis functions of A   symmetry.
   541 basis functions,   839 primitive gaussians,   592 cartesian basis functions
    59 alpha electrons       59 beta electrons
       nuclear repulsion energy       942.7174230353 Hartrees.
 NAtoms=   30 NActive=   30 NUniq=   30 SFac= 1.00D+00 NAtFMM=   60 NAOKFM=F Big=F
 Integral buffers will be    131072 words long.
 Raffenetti 2 integral format.
 Two-electron integral symmetry is turned on.
 One-electron integrals computed using PRISM.
 PrsmSu:  requested number of processors reduced to:  12 ShMem   1 Linda.
 NBasis=   541 RedAO= T EigKep=  1.62D-04  NBF=   541
 NBsUse=   541 1.00D-06 EigRej= -1.00D+00 NBFU=   541
 ExpMin= 1.61D-01 ExpMax= 5.48D+03 ExpMxC= 8.25D+02 IAcc=3 IRadAn=         5 AccDes= 0.00D+00
 Harris functional with IExCor=  402 and IRadAn=       5 diagonalized for initial guess.
 HarFok:  IExCor=  402 AccDes= 0.00D+00 IRadAn=         5 IDoV= 1 UseB2=F ITyADJ=14
 ICtDFT=  3500011 ScaDFX=  1.000000  1.000000  1.000000  1.000000
 FoFCou: FMM=F IPFlag=           0 FMFlag=      100000 FMFlg1=           0
         NFxFlg=           0 DoJE=T BraDBF=F KetDBF=T FulRan=T
         wScrn=  0.000000 ICntrl=       500 IOpCl=  0 I1Cent=   200000004 NGrid=           0
         NMat0=    1 NMatS0=      1 NMatT0=    0 NMatD0=    1 NMtDS0=    0 NMtDT0=    0
 Petite list used in FoFCou.
 Requested convergence on RMS density matrix=1.00D-08 within 128 cycles.
 Requested convergence on MAX density matrix=1.00D-06.
 Requested convergence on             energy=1.00D-06.
 No special actions if energy rises.
 Integral accuracy reduced to 1.0D-05 until final iterations.
 EnCoef did     5 forward-backward iterations
 EnCoef did   100 forward-backward iterations
 EnCoef did    13 forward-backward iterations
 EnCoef did     5 forward-backward iterations
 EnCoef did     1 forward-backward iterations
 EnCoef did     7 forward-backward iterations
 EnCoef did   100 forward-backward iterations
 Initial convergence to 1.0D-05 achieved.  Increase integral accuracy.
 SCF Done:  E(RB3LYP) =  -708.543021734     A.U. after   29 cycles
            NFock= 29  Conv=0.28D-08     -V/T= 2.0096

 **********************************************************************

            Population analysis using the SCF density.

 **********************************************************************

 Orbital symmetries:
       Occupied  (A) (A) (A) (A) (A) (A) (A) (A) (A) (A) (A) (A)
                 (A) (A) (A) (A) (A) (A) (A) (A) (A) (A) (A) (A)
                 (A) (A) (A) (A) (A) (A) (A) (A) (A) (A) (A) (A)
                 (A) (A) (A) (A) (A) (A) (A) (A) (A) (A) (A) (A)
                 (A) (A) (A) (A) (A) (A) (A) (A) (A) (A) (A)
       Virtual   (A) (A) (A) (A) (A) (A) (A) (A) (A) (A) (A) (A)
                 (A) (A) (A) (A) (A) (A) (A) (A) (A) (A) (A) (A)
                 (A) (A) (A) (A) (A) (A) (A) (A) (A) (A) (A) (A)
                 (A) (A) (A) (A) (A) (A) (A) (A) (A) (A) (A) (A)
                 (A) (A) (A) (A) (A) (A) (A) (A) (A) (A) (A) (A)
                 (A) (A) (A) (A) (A) (A) (A) (A) (A) (A) (A) (A)
                 (A) (A) (A) (A) (A) (A) (A) (A) (A) (A) (A) (A)
                 (A) (A) (A) (A) (A) (A) (A) (A) (A) (A) (A) (A)
                 (A) (A) (A) (A) (A) (A) (A) (A) (A) (A) (A) (A)
                 (A) (A) (A) (A) (A) (A) (A) (A) (A) (A) (A) (A)
                 (A) (A) (A) (A) (A) (A) (A) (A) (A) (A) (A) (A)
                 (A) (A) (A) (A) (A) (A) (A) (A) (A) (A) (A) (A)
                 (A) (A) (A) (A) (A) (A) (A) (A) (A) (A) (A) (A)
                 (A) (A) (A) (A) (A) (A) (A) (A) (A) (A) (A) (A)
                 (A) (A) (A) (A) (A) (A) (A) (A) (A) (A) (A) (A)
                 (A) (A) (A) (A) (A) (A) (A) (A) (A) (A) (A) (A)
                 (A) (A) (A) (A) (A) (A) (A) (A) (A) (A) (A) (A)
                 (A) (A) (A) (A) (A) (A) (A) (A) (A) (A) (A) (A)
                 (A) (A) (A) (A) (A) (A) (A) (A) (A) (A) (A) (A)
                 (A) (A) (A) (A) (A) (A) (A) (A) (A) (A) (A) (A)
                 (A) (A) (A) (A) (A) (A) (A) (A) (A) (A) (A) (A)
                 (A) (A) (A) (A) (A) (A) (A) (A) (A) (A) (A) (A)
                 (A) (A) (A) (A) (A) (A) (A) (A) (A) (A) (A) (A)
                 (A) (A) (A) (A) (A) (A) (A) (A) (A) (A) (A) (A)
                 (A) (A) (A) (A) (A) (A) (A) (A) (A) (A) (A) (A)
                 (A) (A) (A) (A) (A) (A) (A) (A) (A) (A) (A) (A)
                 (A) (A) (A) (A) (A) (A) (A) (A) (A) (A) (A) (A)
                 (A) (A) (A) (A) (A) (A) (A) (A) (A) (A) (A) (A)
                 (A) (A) (A) (A) (A) (A) (A) (A) (A) (A) (A) (A)
                 (A) (A) (A) (A) (A) (A) (A) (A) (A) (A) (A) (A)
                 (A) (A) (A) (A) (A) (A) (A) (A) (A) (A) (A) (A)
                 (A) (A) (A) (A) (A) (A) (A) (A) (A) (A) (A) (A)
                 (A) (A) (A) (A) (A) (A) (A) (A) (A) (A) (A) (A)
                 (A) (A) (A) (A) (A) (A) (A) (A) (A) (A) (A) (A)
                 (A) (A) (A) (A) (A) (A) (A) (A) (A) (A) (A) (A)
                 (A) (A) (A) (A) (A) (A) (A) (A) (A) (A) (A) (A)
                 (A) (A) (A) (A) (A) (A) (A) (A) (A) (A) (A) (A)
                 (A) (A) (A) (A) (A) (A) (A) (A) (A) (A) (A) (A)
                 (A) (A) (A) (A) (A) (A) (A) (A) (A) (A) (A) (A)
                 (A) (A) (A) (A) (A) (A) (A) (A) (A) (A) (A) (A)
                 (A) (A)
 The electronic state is 1-A.
 Alpha  occ. eigenvalues --  -19.15058 -14.33053 -10.31249 -10.25667 -10.25421
 Alpha  occ. eigenvalues --  -10.25310 -10.24840 -10.24582 -10.24234 -10.22972
 Alpha  occ. eigenvalues --  -10.22461 -10.22420 -10.21631 -10.21019 -10.20711
 Alpha  occ. eigenvalues --  -10.19852 -10.17052  -1.03527  -0.97191  -0.84276
 Alpha  occ. eigenvalues --   -0.80970  -0.76964  -0.76296  -0.73363  -0.70716
 Alpha  occ. eigenvalues --   -0.67231  -0.65151  -0.63206  -0.61286  -0.58410
 Alpha  occ. eigenvalues --   -0.58130  -0.55074  -0.52695  -0.50361  -0.49498
 Alpha  occ. eigenvalues --   -0.49180  -0.47591  -0.46636  -0.43826  -0.42615
 Alpha  occ. eigenvalues --   -0.42025  -0.40776  -0.39428  -0.38808  -0.38435
 Alpha  occ. eigenvalues --   -0.37642  -0.37066  -0.34997  -0.33890  -0.32878
 Alpha  occ. eigenvalues --   -0.30715  -0.27937  -0.27425  -0.27005  -0.26311
 Alpha  occ. eigenvalues --   -0.25103  -0.23183  -0.19386  -0.18171
 Alpha virt. eigenvalues --   -0.15184  -0.08710  -0.08593  -0.06393  -0.05227
 Alpha virt. eigenvalues --   -0.04277   0.02020   0.03208   0.04685   0.06045
 Alpha virt. eigenvalues --    0.08355   0.08559   0.09913   0.09952   0.10417
 Alpha virt. eigenvalues --    0.11121   0.11515   0.12073   0.13050   0.13365
 Alpha virt. eigenvalues --    0.15282   0.16985   0.18122   0.18597   0.19576
 Alpha virt. eigenvalues --    0.20837   0.22885   0.24161   0.25469   0.27714
 Alpha virt. eigenvalues --    0.29306   0.30911   0.32652   0.33605   0.34753
 Alpha virt. eigenvalues --    0.38666   0.40983   0.41189   0.41736   0.42565
 Alpha virt. eigenvalues --    0.43348   0.45093   0.46301   0.46414   0.47487
 Alpha virt. eigenvalues --    0.48702   0.49091   0.49630   0.49975   0.51072
 Alpha virt. eigenvalues --    0.51945   0.52222   0.52600   0.53055   0.53400
 Alpha virt. eigenvalues --    0.53595   0.54618   0.54816   0.55215   0.56555
 Alpha virt. eigenvalues --    0.56965   0.57557   0.58377   0.59189   0.59603
 Alpha virt. eigenvalues --    0.60231   0.61292   0.62655   0.63567   0.64148
 Alpha virt. eigenvalues --    0.65983   0.66352   0.66967   0.67291   0.67981
 Alpha virt. eigenvalues --    0.68983   0.70325   0.71379   0.71915   0.72290
 Alpha virt. eigenvalues --    0.72874   0.73335   0.73501   0.74036   0.74204
 Alpha virt. eigenvalues --    0.74482   0.75334   0.76795   0.77226   0.77669
 Alpha virt. eigenvalues --    0.78152   0.79063   0.79518   0.79590   0.80295
 Alpha virt. eigenvalues --    0.80726   0.81810   0.82151   0.82664   0.83417
 Alpha virt. eigenvalues --    0.84127   0.85007   0.85488   0.86433   0.87192
 Alpha virt. eigenvalues --    0.87838   0.90072   0.90750   0.91260   0.92211
 Alpha virt. eigenvalues --    0.92937   0.94347   0.95129   0.95480   0.96339
 Alpha virt. eigenvalues --    0.96838   0.97691   0.98361   0.98799   0.99394
 Alpha virt. eigenvalues --    1.00001   1.01413   1.01787   1.04833   1.05986
 Alpha virt. eigenvalues --    1.06304   1.07335   1.08472   1.11161   1.12992
 Alpha virt. eigenvalues --    1.13711   1.14489   1.14940   1.18613   1.19173
 Alpha virt. eigenvalues --    1.19803   1.21349   1.22202   1.23379   1.24683
 Alpha virt. eigenvalues --    1.26675   1.27285   1.28591   1.29768   1.31970
 Alpha virt. eigenvalues --    1.32743   1.33840   1.34172   1.35277   1.37230
 Alpha virt. eigenvalues --    1.37603   1.38803   1.39363   1.39704   1.41749
 Alpha virt. eigenvalues --    1.42557   1.43274   1.44659   1.44794   1.46045
 Alpha virt. eigenvalues --    1.47900   1.48304   1.50150   1.50993   1.51861
 Alpha virt. eigenvalues --    1.53236   1.54041   1.54928   1.56664   1.57795
 Alpha virt. eigenvalues --    1.58085   1.59780   1.60549   1.61188   1.63220
 Alpha virt. eigenvalues --    1.64587   1.66351   1.66704   1.68741   1.69040
 Alpha virt. eigenvalues --    1.71256   1.73756   1.74808   1.75979   1.77559
 Alpha virt. eigenvalues --    1.78505   1.80194   1.80597   1.83932   1.85644
 Alpha virt. eigenvalues --    1.86267   1.87294   1.89180   1.91346   1.95206
 Alpha virt. eigenvalues --    1.99891   2.00694   2.03535   2.05275   2.09361
 Alpha virt. eigenvalues --    2.11472   2.13741   2.14225   2.15555   2.16228
 Alpha virt. eigenvalues --    2.16541   2.17623   2.20453   2.21843   2.24336
 Alpha virt. eigenvalues --    2.26726   2.27230   2.29345   2.29877   2.31398
 Alpha virt. eigenvalues --    2.34084   2.35105   2.36702   2.38542   2.40004
 Alpha virt. eigenvalues --    2.42551   2.43660   2.44362   2.44656   2.47322
 Alpha virt. eigenvalues --    2.48355   2.53592   2.54922   2.55515   2.58543
 Alpha virt. eigenvalues --    2.59388   2.61377   2.63334   2.64168   2.65679
 Alpha virt. eigenvalues --    2.66223   2.66799   2.67658   2.69376   2.69690
 Alpha virt. eigenvalues --    2.71720   2.72784   2.73824   2.74570   2.76753
 Alpha virt. eigenvalues --    2.77154   2.78752   2.79643   2.80271   2.81788
 Alpha virt. eigenvalues --    2.82931   2.83994   2.85535   2.85845   2.86881
 Alpha virt. eigenvalues --    2.87306   2.88270   2.88634   2.89262   2.89671
 Alpha virt. eigenvalues --    2.92541   2.93858   2.94235   2.96818   2.97948
 Alpha virt. eigenvalues --    2.98431   2.99702   3.00448   3.01864   3.02608
 Alpha virt. eigenvalues --    3.02913   3.04358   3.05870   3.06235   3.06588
 Alpha virt. eigenvalues --    3.07712   3.08253   3.09785   3.10242   3.10527
 Alpha virt. eigenvalues --    3.11465   3.12601   3.12795   3.14689   3.15572
 Alpha virt. eigenvalues --    3.16651   3.17265   3.19355   3.20496   3.22002
 Alpha virt. eigenvalues --    3.23179   3.25785   3.26107   3.27352   3.28126
 Alpha virt. eigenvalues --    3.30660   3.31456   3.32092   3.35242   3.37479
 Alpha virt. eigenvalues --    3.38658   3.39534   3.40193   3.40437   3.43128
 Alpha virt. eigenvalues --    3.43541   3.44885   3.46306   3.47473   3.48142
 Alpha virt. eigenvalues --    3.48857   3.51571   3.52130   3.53308   3.54534
 Alpha virt. eigenvalues --    3.55366   3.56065   3.57888   3.58167   3.58828
 Alpha virt. eigenvalues --    3.60496   3.62348   3.63378   3.64775   3.65719
 Alpha virt. eigenvalues --    3.66671   3.68917   3.70408   3.71106   3.71851
 Alpha virt. eigenvalues --    3.73351   3.73994   3.74795   3.76679   3.77014
 Alpha virt. eigenvalues --    3.78348   3.80565   3.82739   3.83934   3.87240
 Alpha virt. eigenvalues --    3.89119   3.90162   3.91222   3.91356   3.92713
 Alpha virt. eigenvalues --    3.99262   4.00582   4.03506   4.06577   4.07293
 Alpha virt. eigenvalues --    4.08083   4.09487   4.10847   4.13103   4.13497
 Alpha virt. eigenvalues --    4.15712   4.17987   4.19007   4.19453   4.20812
 Alpha virt. eigenvalues --    4.21622   4.22752   4.23044   4.25528   4.26435
 Alpha virt. eigenvalues --    4.27750   4.29209   4.30492   4.31217   4.31608
 Alpha virt. eigenvalues --    4.32666   4.33723   4.34307   4.36561   4.37890
 Alpha virt. eigenvalues --    4.38408   4.39606   4.39946   4.40600   4.42078
 Alpha virt. eigenvalues --    4.43739   4.44168   4.45268   4.45988   4.47288
 Alpha virt. eigenvalues --    4.47751   4.47885   4.48890   4.50665   4.52230
 Alpha virt. eigenvalues --    4.52998   4.54755   4.55196   4.57717   4.58251
 Alpha virt. eigenvalues --    4.58894   4.59889   4.60375   4.61622   4.63412
 Alpha virt. eigenvalues --    4.63594   4.64872   4.67903   4.68274   4.69976
 Alpha virt. eigenvalues --    4.70595   4.71309   4.73282   4.74714   4.74965
 Alpha virt. eigenvalues --    4.76651   4.77219   4.79655   4.80547   4.83372
 Alpha virt. eigenvalues --    4.83932   4.86213   4.86446   4.87953   4.89423
 Alpha virt. eigenvalues --    4.91911   4.92964   4.93661   4.95156   4.97730
 Alpha virt. eigenvalues --    5.00063   5.02434   5.05746   5.05860   5.08449
 Alpha virt. eigenvalues --    5.09641   5.09819   5.11017   5.14134   5.17541
 Alpha virt. eigenvalues --    5.21403   5.23199   5.24054   5.26408   5.30281
 Alpha virt. eigenvalues --    5.33391   5.35499   5.38023   5.41384   5.43243
 Alpha virt. eigenvalues --    5.48380   5.51521   5.53644   5.57899   5.60798
 Alpha virt. eigenvalues --    5.62015   5.65789   5.69229   5.73905   5.78139
 Alpha virt. eigenvalues --    5.90123   5.91853   5.98708   6.06139   6.21390
 Alpha virt. eigenvalues --    6.29263   6.36242   6.64447   6.69705   9.60265
 Alpha virt. eigenvalues --    9.61265  10.11878  10.18595  10.41521  10.64736
 Alpha virt. eigenvalues --   10.77868  11.01163  11.11235  11.34610  11.38419
 Alpha virt. eigenvalues --   11.47317  11.60499  11.77465  11.84306  12.17175
 Alpha virt. eigenvalues --   12.82873  18.85870
          Condensed to atoms (all electrons):
               1          2          3          4          5          6
     1  O    7.636156   0.708531  -0.067932  -0.007137  -0.000012  -0.000000
     2  C    0.708531   4.691353   0.251221  -0.069291  -0.000781  -0.000033
     3  C   -0.067932   0.251221   5.047515   0.792996  -0.038193  -0.004866
     4  C   -0.007137  -0.069291   0.792996   5.240327   0.282136  -0.016145
     5  C   -0.000012  -0.000781  -0.038193   0.282136   5.285101   0.498400
     6  C   -0.000000  -0.000033  -0.004866  -0.016145   0.498400   4.683340
     7  N   -0.000000   0.000001   0.000252   0.003130  -0.051672   0.494669
     8  C   -0.000000  -0.000000  -0.000015  -0.000525   0.011897  -0.142349
     9  C    0.000000   0.000000   0.000000   0.000006   0.001055   0.008901
    10  C   -0.000000  -0.000000  -0.000000   0.000000   0.000049  -0.000709
    11  C    0.000000  -0.000000  -0.000000  -0.000000  -0.000001   0.000005
    12  C    0.000000   0.000000   0.000000  -0.000000  -0.000000  -0.000000
    13  C    0.000000   0.000000  -0.000000  -0.000000  -0.000000   0.000000
    14  C    0.000000   0.000000   0.000000   0.000000   0.000001  -0.000001
    15  C    0.000000   0.000000   0.000000  -0.000000  -0.000004  -0.000011
    16  C   -0.000000   0.000000   0.000000   0.000026   0.002123  -0.001185
    17  C    0.000000  -0.000000  -0.000351  -0.017401   0.256267   0.006833
    18  H   -0.052511   0.379317  -0.087110  -0.004198  -0.000015  -0.000004
    19  H    0.000000   0.000011   0.000366   0.004025  -0.076307   0.380248
    20  H   -0.000000  -0.000000  -0.000004   0.000025  -0.000937  -0.006277
    21  H   -0.000000   0.000000   0.000000   0.000007  -0.000580   0.000526
    22  H    0.000000   0.000000   0.000000   0.000000   0.000001  -0.000016
    23  H    0.000000  -0.000000  -0.000000  -0.000000  -0.000000  -0.000000
    24  H    0.000000   0.000000   0.000000   0.000000   0.000000   0.000000
    25  H   -0.000000  -0.000000  -0.000000   0.000000  -0.000001  -0.000005
    26  H    0.000000   0.000000  -0.000000   0.000000   0.000002  -0.000006
    27  H    0.000000   0.000000  -0.000000   0.000000  -0.000027   0.000015
    28  H    0.000000   0.000000  -0.000000   0.000000  -0.000003   0.000015
    29  H   -0.000000   0.000000   0.000053   0.001459  -0.026360  -0.000185
    30  H   -0.000000   0.000000   0.000047   0.001326  -0.024083  -0.000429
               7          8          9         10         11         12
     1  O   -0.000000  -0.000000   0.000000  -0.000000   0.000000   0.000000
     2  C    0.000001  -0.000000   0.000000  -0.000000  -0.000000   0.000000
     3  C    0.000252  -0.000015   0.000000  -0.000000  -0.000000   0.000000
     4  C    0.003130  -0.000525   0.000006   0.000000  -0.000000  -0.000000
     5  C   -0.051672   0.011897   0.001055   0.000049  -0.000001  -0.000000
     6  C    0.494669  -0.142349   0.008901  -0.000709   0.000005  -0.000000
     7  N    6.151405   0.630821  -0.048191   0.001446   0.000085   0.000003
     8  C    0.630821   4.909019   0.422047   0.009349   0.003778  -0.000230
     9  C   -0.048191   0.422047   4.909848   0.512078  -0.006254   0.008038
    10  C    0.001446   0.009349   0.512078   5.001285   0.476915  -0.043509
    11  C    0.000085   0.003778  -0.006254   0.476915   4.726342   0.290666
    12  C    0.000003  -0.000230   0.008038  -0.043509   0.290666   5.004166
    13  C   -0.000000   0.000001  -0.000303   0.002657  -0.020908   0.584563
    14  C   -0.000007   0.000870  -0.017659  -0.037186   0.489346  -0.028622
    15  C   -0.000033   0.001633  -0.001247  -0.028259  -0.055617   0.008931
    16  C   -0.021082   0.000085  -0.022883  -0.005339   0.003111   0.000033
    17  C    0.004312  -0.002717   0.002232   0.000719  -0.000047  -0.000000
    18  H   -0.000000  -0.000000  -0.000000  -0.000000  -0.000000   0.000000
    19  H   -0.057147  -0.006785  -0.000407   0.000026   0.000000   0.000000
    20  H   -0.035497   0.330213  -0.052986  -0.004929  -0.000132   0.000000
    21  H   -0.005637  -0.035212   0.337065  -0.086185  -0.018795   0.000412
    22  H   -0.000058  -0.017376  -0.035652   0.342178  -0.045597  -0.011457
    23  H    0.000000  -0.000001   0.001377  -0.006615  -0.039228   0.372724
    24  H   -0.000000  -0.000000  -0.000002  -0.000091   0.004103  -0.029960
    25  H    0.000002   0.000228  -0.000364   0.001741  -0.002443  -0.000187
    26  H   -0.000046   0.000139   0.001681   0.001407  -0.003049   0.000056
    27  H    0.000602   0.000025   0.000989   0.000082  -0.000052  -0.000001
    28  H    0.000603   0.000012   0.000928   0.000060  -0.000041  -0.000000
    29  H    0.003236   0.000068  -0.000166  -0.000007   0.000001   0.000000
    30  H    0.002910   0.000072  -0.000151  -0.000007   0.000001   0.000000
              13         14         15         16         17         18
     1  O    0.000000   0.000000   0.000000  -0.000000   0.000000  -0.052511
     2  C    0.000000   0.000000   0.000000   0.000000  -0.000000   0.379317
     3  C   -0.000000   0.000000   0.000000   0.000000  -0.000351  -0.087110
     4  C   -0.000000   0.000000  -0.000000   0.000026  -0.017401  -0.004198
     5  C   -0.000000   0.000001  -0.000004   0.002123   0.256267  -0.000015
     6  C    0.000000  -0.000001  -0.000011  -0.001185   0.006833  -0.000004
     7  N   -0.000000  -0.000007  -0.000033  -0.021082   0.004312  -0.000000
     8  C    0.000001   0.000870   0.001633   0.000085  -0.002717  -0.000000
     9  C   -0.000303  -0.017659  -0.001247  -0.022883   0.002232  -0.000000
    10  C    0.002657  -0.037186  -0.028259  -0.005339   0.000719  -0.000000
    11  C   -0.020908   0.489346  -0.055617   0.003111  -0.000047  -0.000000
    12  C    0.584563  -0.028622   0.008931   0.000033  -0.000000   0.000000
    13  C    5.336380   0.020511   0.000618   0.000009  -0.000000   0.000000
    14  C    0.020511   5.438562   0.408889  -0.025034   0.000098   0.000000
    15  C    0.000618   0.408889   5.310927   0.051638  -0.000026   0.000000
    16  C    0.000009  -0.025034   0.051638   5.513779   0.200099   0.000000
    17  C   -0.000000   0.000098  -0.000026   0.200099   5.216289   0.000000
    18  H    0.000000   0.000000   0.000000   0.000000   0.000000   0.635100
    19  H   -0.000000   0.000000  -0.000000  -0.000057   0.004977  -0.000012
    20  H   -0.000000   0.000008  -0.000006  -0.000224   0.000100  -0.000000
    21  H   -0.000000   0.000674  -0.002539  -0.007255  -0.004878  -0.000000
    22  H    0.000605   0.004198  -0.000279  -0.000145   0.000000  -0.000000
    23  H   -0.046145   0.004719   0.000056   0.000002  -0.000000   0.000000
    24  H    0.329602  -0.001755  -0.000029  -0.000000   0.000000   0.000000
    25  H   -0.000040  -0.014338   0.346747   0.006778   0.000144   0.000000
    26  H   -0.000057  -0.022839   0.354897   0.002477   0.000443  -0.000000
    27  H   -0.000000   0.000839  -0.002827   0.329099  -0.016412   0.000000
    28  H   -0.000000   0.000896  -0.001343   0.323292  -0.015294  -0.000000
    29  H    0.000000  -0.000003   0.000004  -0.020667   0.341815   0.000000
    30  H    0.000000  -0.000004  -0.000016  -0.020897   0.343825  -0.000000
              19         20         21         22         23         24
     1  O    0.000000  -0.000000  -0.000000   0.000000   0.000000   0.000000
     2  C    0.000011  -0.000000   0.000000   0.000000  -0.000000   0.000000
     3  C    0.000366  -0.000004   0.000000   0.000000  -0.000000   0.000000
     4  C    0.004025   0.000025   0.000007   0.000000  -0.000000   0.000000
     5  C   -0.076307  -0.000937  -0.000580   0.000001  -0.000000   0.000000
     6  C    0.380248  -0.006277   0.000526  -0.000016  -0.000000   0.000000
     7  N   -0.057147  -0.035497  -0.005637  -0.000058   0.000000  -0.000000
     8  C   -0.006785   0.330213  -0.035212  -0.017376  -0.000001  -0.000000
     9  C   -0.000407  -0.052986   0.337065  -0.035652   0.001377  -0.000002
    10  C    0.000026  -0.004929  -0.086185   0.342178  -0.006615  -0.000091
    11  C    0.000000  -0.000132  -0.018795  -0.045597  -0.039228   0.004103
    12  C    0.000000   0.000000   0.000412  -0.011457   0.372724  -0.029960
    13  C   -0.000000  -0.000000  -0.000000   0.000605  -0.046145   0.329602
    14  C    0.000000   0.000008   0.000674   0.004198   0.004719  -0.001755
    15  C   -0.000000  -0.000006  -0.002539  -0.000279   0.000056  -0.000029
    16  C   -0.000057  -0.000224  -0.007255  -0.000145   0.000002  -0.000000
    17  C    0.004977   0.000100  -0.004878   0.000000  -0.000000   0.000000
    18  H   -0.000012  -0.000000  -0.000000  -0.000000   0.000000   0.000000
    19  H    0.627078   0.008376   0.000070   0.000001   0.000000  -0.000000
    20  H    0.008376   0.635220   0.007703   0.006668   0.000007  -0.000000
    21  H    0.000070   0.007703   0.697916   0.009915   0.000019  -0.000000
    22  H    0.000001   0.006668   0.009915   0.665811  -0.000244   0.000011
    23  H    0.000000   0.000007   0.000019  -0.000244   0.560127  -0.000098
    24  H   -0.000000  -0.000000  -0.000000   0.000011  -0.000098   0.498877
    25  H   -0.000000   0.000001  -0.001811   0.000034  -0.000006   0.000002
    26  H   -0.000000  -0.000000  -0.002905   0.000054   0.000001   0.000000
    27  H    0.000001   0.000003  -0.001234   0.000002  -0.000000   0.000000
    28  H    0.000001   0.000003  -0.000918   0.000001  -0.000000   0.000000
    29  H   -0.000043   0.000006   0.000312   0.000000   0.000000  -0.000000
    30  H   -0.000052   0.000005   0.000309   0.000000   0.000000  -0.000000
              25         26         27         28         29         30
     1  O   -0.000000   0.000000   0.000000   0.000000  -0.000000  -0.000000
     2  C   -0.000000   0.000000   0.000000   0.000000   0.000000   0.000000
     3  C   -0.000000  -0.000000  -0.000000  -0.000000   0.000053   0.000047
     4  C    0.000000   0.000000   0.000000   0.000000   0.001459   0.001326
     5  C   -0.000001   0.000002  -0.000027  -0.000003  -0.026360  -0.024083
     6  C   -0.000005  -0.000006   0.000015   0.000015  -0.000185  -0.000429
     7  N    0.000002  -0.000046   0.000602   0.000603   0.003236   0.002910
     8  C    0.000228   0.000139   0.000025   0.000012   0.000068   0.000072
     9  C   -0.000364   0.001681   0.000989   0.000928  -0.000166  -0.000151
    10  C    0.001741   0.001407   0.000082   0.000060  -0.000007  -0.000007
    11  C   -0.002443  -0.003049  -0.000052  -0.000041   0.000001   0.000001
    12  C   -0.000187   0.000056  -0.000001  -0.000000   0.000000   0.000000
    13  C   -0.000040  -0.000057  -0.000000  -0.000000   0.000000   0.000000
    14  C   -0.014338  -0.022839   0.000839   0.000896  -0.000003  -0.000004
    15  C    0.346747   0.354897  -0.002827  -0.001343   0.000004  -0.000016
    16  C    0.006778   0.002477   0.329099   0.323292  -0.020667  -0.020897
    17  C    0.000144   0.000443  -0.016412  -0.015294   0.341815   0.343825
    18  H    0.000000  -0.000000   0.000000  -0.000000   0.000000  -0.000000
    19  H   -0.000000  -0.000000   0.000001   0.000001  -0.000043  -0.000052
    20  H    0.000001  -0.000000   0.000003   0.000003   0.000006   0.000005
    21  H   -0.001811  -0.002905  -0.001234  -0.000918   0.000312   0.000309
    22  H    0.000034   0.000054   0.000002   0.000001   0.000000   0.000000
    23  H   -0.000006   0.000001  -0.000000  -0.000000   0.000000   0.000000
    24  H    0.000002   0.000000   0.000000   0.000000  -0.000000  -0.000000
    25  H    0.441868  -0.028218   0.000376  -0.005705   0.000007   0.000013
    26  H   -0.028218   0.442031  -0.004949   0.000382  -0.000011   0.000002
    27  H    0.000376  -0.004949   0.569236  -0.037138  -0.000876   0.002240
    28  H   -0.005705   0.000382  -0.037138   0.574690   0.002260  -0.001275
    29  H    0.000007  -0.000011  -0.000876   0.002260   0.574666  -0.034469
    30  H    0.000013   0.000002   0.002240  -0.001275  -0.034469   0.570909
 Mulliken charges:
               1
     1  O   -0.217095
     2  C    0.039671
     3  C    0.106022
     4  C   -0.210767
     5  C   -0.118055
     6  C    0.099270
     7  N   -0.074104
     8  C   -0.115050
     9  C   -0.019978
    10  C   -0.137153
    11  C    0.197813
    12  C   -0.155626
    13  C   -0.207492
    14  C   -0.222163
    15  C   -0.392104
    16  C   -0.307785
    17  C   -0.321025
    18  H    0.129432
    19  H    0.115627
    20  H    0.112657
    21  H    0.113021
    22  H    0.081345
    23  H    0.153305
    24  H    0.199339
    25  H    0.255178
    26  H    0.258507
    27  H    0.160009
    28  H    0.158577
    29  H    0.158900
    30  H    0.159727
 Sum of Mulliken charges =  -0.00000
 Mulliken charges with hydrogens summed into heavy atoms:
               1
     1  O   -0.217095
     2  C    0.169103
     3  C    0.106022
     4  C   -0.210767
     5  C   -0.118055
     6  C    0.214897
     7  N   -0.074104
     8  C   -0.002393
     9  C    0.093043
    10  C   -0.055809
    11  C    0.197813
    12  C   -0.002321
    13  C   -0.008154
    14  C   -0.222163
    15  C    0.121581
    16  C    0.010801
    17  C   -0.002398
 Electronic spatial extent (au):  <R**2>=           7923.5792
 Charge=             -0.0000 electrons
 Dipole moment (field-independent basis, Debye):
    X=             -5.0559    Y=             -3.0705    Z=             -1.2189  Tot=              6.0395
 Quadrupole moment (field-independent basis, Debye-Ang):
   XX=           -128.2208   YY=            -87.0711   ZZ=           -100.4678
   XY=              3.5256   XZ=             -5.6227   YZ=              0.6411
 Traceless Quadrupole moment (field-independent basis, Debye-Ang):
   XX=            -22.9675   YY=             18.1821   ZZ=              4.7854
   XY=              3.5256   XZ=             -5.6227   YZ=              0.6411
 Octapole moment (field-independent basis, Debye-Ang**2):
  XXX=           -350.0962  YYY=            -26.4992  ZZZ=              1.3962  XYY=             24.9052
  XXY=           -112.2331  XXZ=            -68.2955  XZZ=             16.5145  YZZ=              4.6000
  YYZ=             -1.0973  XYZ=              7.2106
 Hexadecapole moment (field-independent basis, Debye-Ang**3):
 XXXX=         -11115.0554 YYYY=          -1022.7332 ZZZZ=           -129.7534 XXXY=            140.7757
 XXXZ=           -323.4090 YYYX=             56.8727 YYYZ=              0.7260 ZZZX=             19.3058
 ZZZY=             -0.2454 XXYY=          -1676.4413 XXZZ=          -1692.9239 YYZZ=           -196.2805
 XXYZ=             39.3223 YYXZ=             -3.8493 ZZXY=            -28.1874
 N-N= 9.427174230353D+02 E-N=-3.530130108207D+03  KE= 7.018034081707D+02
 PrsmSu:  requested number of processors reduced to:  13 ShMem   1 Linda.
 Calling FoFJK, ICntrl=      2127 FMM=F ISym2X=0 I1Cent= 0 IOpClX= 0 NMat=1 NMatS=1 NMatT=0.
 ***** Axes restored to original set *****
 -------------------------------------------------------------------
 Center     Atomic                   Forces (Hartrees/Bohr)
 Number     Number              X              Y              Z
 -------------------------------------------------------------------
      1        8           0.056823165   -0.011237006    0.016481346
      2        6          -0.040738141   -0.014280683    0.026728160
      3        6           0.010028740    0.000476349    0.001652802
      4        6           0.005077529    0.004418271    0.003201284
      5        6          -0.054803788    0.000881481   -0.047273863
      6        6          -0.042407123   -0.001163010   -0.035774061
      7        7           0.064340554    0.030714415    0.021431724
      8        6          -0.006198181   -0.032175419    0.027032911
      9        6          -0.001736375    0.012504434   -0.016199646
     10        6           0.038707051   -0.007544112    0.039315299
     11        6          -0.030480961   -0.040525953    0.016662573
     12        6           0.075560022   -0.060845146    0.111627734
     13        6          -0.062948445    0.051789261   -0.094955342
     14        6          -0.003463343    0.077748621   -0.084011009
     15        6           0.041522961    0.011561432    0.029655943
     16        6          -0.052716459   -0.028229279   -0.018222764
     17        6          -0.037597861   -0.003300367   -0.025377237
     18        1           0.009100452   -0.012583809    0.023327172
     19        1          -0.002168470   -0.000310543   -0.001235789
     20        1           0.002436870    0.012176649   -0.010332344
     21        1          -0.007145251   -0.006990042    0.002169732
     22        1           0.010938612    0.004968180    0.004203999
     23        1          -0.004857415   -0.006624340    0.008210095
     24        1           0.006848487    0.000465970   -0.000049014
     25        1          -0.012187355   -0.005293560    0.001999611
     26        1          -0.010730605   -0.013654124   -0.000417996
     27        1           0.010029283    0.015758138   -0.002933305
     28        1           0.012045222    0.011040223   -0.007041506
     29        1           0.013553285    0.004418793    0.005110171
     30        1           0.013167538    0.005835174    0.005013320
 -------------------------------------------------------------------
 Cartesian Forces:  Max     0.111627734 RMS     0.031777399

 GradGradGradGradGradGradGradGradGradGradGradGradGradGradGradGradGradGrad
 Berny optimization.
 FormGI is forming the generalized inverse of G from B-inverse, IUseBI=4.
 Internal  Forces:  Max     0.121972393 RMS     0.023124215
 Search for a local minimum.
 Step number   1 out of a maximum of  180
 All quantities printed in internal units (Hartrees-Bohrs-Radians)
 Mixed Optimization -- RFO/linear search
 Second derivative matrix not updated -- first step.
 ITU=  0
     Eigenvalues ---    0.00230   0.00230   0.00230   0.00244   0.00485
     Eigenvalues ---    0.00535   0.00605   0.00657   0.00821   0.01009
     Eigenvalues ---    0.01106   0.01203   0.01531   0.01571   0.01728
     Eigenvalues ---    0.01817   0.02186   0.02193   0.02365   0.02981
     Eigenvalues ---    0.03137   0.03396   0.03639   0.03896   0.04441
     Eigenvalues ---    0.04773   0.04954   0.05995   0.06076   0.06958
     Eigenvalues ---    0.07474   0.08704   0.08781   0.09500   0.10073
     Eigenvalues ---    0.10769   0.10991   0.14010   0.14875   0.15906
     Eigenvalues ---    0.15996   0.15999   0.15999   0.16000   0.16000
     Eigenvalues ---    0.16000   0.17705   0.18387   0.21394   0.21756
     Eigenvalues ---    0.21999   0.22001   0.22222   0.23380   0.24375
     Eigenvalues ---    0.24579   0.24993   0.24999   0.25000   0.25985
     Eigenvalues ---    0.27459   0.29644   0.30148   0.30600   0.32359
     Eigenvalues ---    0.32549   0.32673   0.32814   0.33235   0.33334
     Eigenvalues ---    0.35111   0.35233   0.36093   0.37194   0.37217
     Eigenvalues ---    0.37601   0.41383   0.42044   0.56319   0.64169
     Eigenvalues ---    0.68462   0.72229   0.78491   0.87034
 RFO step:  Lambda=-1.82614775D-01 EMin= 2.30000000D-03
 Linear search not attempted -- first point.
 Maximum step size (   0.300) exceeded in Quadratic search.
    -- Step size scaled by   0.472
 Iteration  1 RMS(Cart)=  0.12092590 RMS(Int)=  0.00204140
 Iteration  2 RMS(Cart)=  0.00525181 RMS(Int)=  0.00012965
 Iteration  3 RMS(Cart)=  0.00000500 RMS(Int)=  0.00012961
 Iteration  4 RMS(Cart)=  0.00000000 RMS(Int)=  0.00012961
 Variable       Old X    -DE/DX   Delta X   Delta X   Delta X     New X
                                 (Linear)    (Quad)   (Total)
    R1        2.34331  -0.05918   0.00000  -0.02651  -0.02651   2.31680
    R2        3.08252  -0.08023   0.00000  -0.09455  -0.09455   2.98797
    R3        2.13483  -0.01735   0.00000  -0.01675  -0.01675   2.11808
    R4        2.38739  -0.08539   0.00000  -0.04162  -0.04162   2.34577
    R5        3.19774  -0.08522   0.00000  -0.10966  -0.10966   3.08808
    R6        2.52583   0.03560   0.00000   0.02363   0.02364   2.54946
    R7        3.63425  -0.04521   0.00000  -0.07546  -0.07563   3.55862
    R8        2.41578   0.08936   0.00000   0.04709   0.04727   2.46305
    R9        2.05496   0.00052   0.00000   0.00046   0.00046   2.05542
   R10        2.43224   0.01147   0.00000   0.00764   0.00772   2.43995
   R11        2.67918   0.01699   0.00000   0.01425   0.01443   2.69361
   R12        2.02255   0.01570   0.00000   0.01335   0.01335   2.03590
   R13        2.46610   0.06357   0.00000   0.03598   0.03580   2.50190
   R14        1.98891   0.03586   0.00000   0.02812   0.02808   2.01698
   R15        2.80915  -0.01924   0.00000  -0.01745  -0.01757   2.79158
   R16        2.03937   0.00705   0.00000   0.00612   0.00612   2.04549
   R17        2.69716   0.01350   0.00000   0.01068   0.01068   2.70784
   R18        2.87237  -0.09556   0.00000  -0.09326  -0.09322   2.77915
   R19        2.78599  -0.12197   0.00000  -0.10753  -0.10753   2.67846
   R20        2.08469  -0.01113   0.00000  -0.01017  -0.01017   2.07452
   R21        2.02220   0.00559   0.00000   0.00475   0.00475   2.02695
   R22        2.87239  -0.02745   0.00000  -0.02726  -0.02709   2.84530
   R23        3.82303   0.01551   0.00000   0.02204   0.02188   3.84492
   R24        2.07439  -0.00560   0.00000  -0.00461  -0.00459   2.06981
   R25        2.07617  -0.00798   0.00000  -0.00677  -0.00674   2.06944
   R26        3.81417  -0.02678   0.00000  -0.05101  -0.05119   3.76298
   R27        3.81541   0.02691   0.00000   0.05358   0.05351   3.86892
   R28        4.08698  -0.00722   0.00000  -0.01432  -0.01421   4.07277
   R29        4.02749  -0.00873   0.00000  -0.01623  -0.01604   4.01145
   R30        2.09851  -0.00859   0.00000  -0.00797  -0.00797   2.09053
   R31        2.10192  -0.00934   0.00000  -0.00871  -0.00871   2.09322
   R32        2.09629  -0.00879   0.00000  -0.00814  -0.00814   2.08815
   R33        2.09379  -0.00859   0.00000  -0.00793  -0.00793   2.08586
    A1        2.14705  -0.00166   0.00000  -0.00193  -0.00193   2.14512
    A2        1.99264   0.02431   0.00000   0.03329   0.03329   2.02593
    A3        2.14350  -0.02266   0.00000  -0.03137  -0.03137   2.11214
    A4        2.84111   0.01560   0.00000   0.01701   0.01701   2.85812
    A5        1.81691   0.03878   0.00000   0.04141   0.04158   1.85849
    A6        2.57619  -0.05218   0.00000  -0.05776  -0.05759   2.51860
    A7        1.88996   0.01340   0.00000   0.01635   0.01601   1.90596
    A8        1.86666   0.02105   0.00000   0.02978   0.02976   1.89642
    A9        2.22792  -0.01305   0.00000  -0.01837  -0.01835   2.20957
   A10        2.18855  -0.00799   0.00000  -0.01140  -0.01139   2.17716
   A11        2.19246   0.06763   0.00000   0.07185   0.07176   2.26422
   A12        1.82324   0.00979   0.00000   0.01423   0.01456   1.83780
   A13        2.25682  -0.00875   0.00000  -0.01242  -0.01259   2.24424
   A14        2.20310  -0.00104   0.00000  -0.00181  -0.00198   2.20112
   A15        2.20177   0.02210   0.00000   0.02632   0.02629   2.22806
   A16        1.96050  -0.01834   0.00000  -0.02760  -0.02718   1.93331
   A17        2.12091  -0.00376   0.00000   0.00128   0.00089   2.12180
   A18        2.17793  -0.00851   0.00000  -0.00874  -0.00902   2.16891
   A19        2.01375   0.01506   0.00000   0.01924   0.01938   2.03312
   A20        2.09151  -0.00654   0.00000  -0.01050  -0.01036   2.08115
   A21        1.98740   0.03770   0.00000   0.04127   0.04128   2.02868
   A22        2.21216  -0.01237   0.00000  -0.01383  -0.01385   2.19831
   A23        2.08357  -0.02532   0.00000  -0.02743  -0.02742   2.05615
   A24        2.07097   0.01221   0.00000   0.01432   0.01432   2.08529
   A25        2.12614  -0.00453   0.00000  -0.00497  -0.00497   2.12117
   A26        2.08556  -0.00762   0.00000  -0.00922  -0.00922   2.07634
   A27        2.63934  -0.00766   0.00000  -0.01054  -0.01054   2.62880
   A28        2.09440   0.06005   0.00000   0.06365   0.06412   2.15852
   A29        2.70359  -0.01188   0.00000  -0.01610  -0.01562   2.68796
   A30        1.58895   0.00720   0.00000   0.01309   0.01324   1.60219
   A31        1.55945   0.00784   0.00000   0.01545   0.01577   1.57523
   A32        2.40666   0.00502   0.00000   0.00836   0.00797   2.41463
   A33        2.73595   0.00318   0.00000   0.00261   0.00239   2.73834
   A34        1.14826  -0.01231   0.00000  -0.01493  -0.01489   1.13337
   A35        1.70290   0.00286   0.00000   0.00175   0.00172   1.70462
   A36        1.68288   0.00361   0.00000   0.00250   0.00250   1.68538
   A37        1.58849   0.01550   0.00000   0.01756   0.01730   1.60579
   A38        2.36792   0.00489   0.00000   0.00473   0.00472   2.37265
   A39        2.40415   0.00645   0.00000   0.00735   0.00737   2.41152
   A40        1.72223  -0.00649   0.00000  -0.00589  -0.00570   1.71653
   A41        1.70073  -0.00725   0.00000  -0.00684  -0.00669   1.69404
   A42        1.03705  -0.00711   0.00000  -0.00733  -0.00711   1.02995
   A43        1.04568  -0.00594   0.00000  -0.00514  -0.00494   1.04074
   A44        2.26237  -0.00674   0.00000  -0.01093  -0.01090   2.25148
   A45        2.25270  -0.00563   0.00000  -0.00884  -0.00881   2.24389
   A46        0.99518  -0.00038   0.00000   0.00285   0.00274   0.99793
   A47        2.18999   0.00163   0.00000   0.00112   0.00094   2.19093
   A48        1.41575  -0.00107   0.00000  -0.00525  -0.00531   1.41044
   A49        1.42330  -0.00277   0.00000  -0.00829  -0.00831   1.41499
   A50        2.17239   0.00104   0.00000  -0.00016  -0.00033   2.17206
   A51        1.72149   0.01044   0.00000   0.01671   0.01665   1.73814
   A52        2.59592   0.01502   0.00000   0.01018   0.00968   2.60561
   A53        1.70170   0.00269   0.00000   0.00746   0.00768   1.70938
   A54        1.70853   0.00165   0.00000   0.00597   0.00619   1.71472
   A55        1.76842  -0.01310   0.00000  -0.01594  -0.01581   1.75262
   A56        1.77628  -0.01233   0.00000  -0.01451  -0.01437   1.76190
   A57        1.80157   0.00740   0.00000   0.01188   0.01167   1.81324
   A58        3.09627   0.00646   0.00000   0.01388   0.01389   3.11016
   A59        3.03070   0.01129   0.00000   0.01140   0.01169   3.04238
   A60        3.13256  -0.00167   0.00000  -0.00336  -0.00334   3.12922
   A61        3.18156   0.00038   0.00000  -0.00075  -0.00067   3.18089
    D1       -3.13874   0.00077   0.00000   0.00147   0.00144  -3.13730
    D2       -2.52245  -0.00102   0.00000  -0.00220  -0.00216  -2.52462
    D3        0.59868   0.00022   0.00000   0.00006   0.00002   0.59870
    D4       -0.01784  -0.00004   0.00000  -0.00041  -0.00043  -0.01827
    D5       -3.13742  -0.00065   0.00000  -0.00131  -0.00130  -3.13872
    D6       -3.12111  -0.00079   0.00000  -0.00167  -0.00171  -3.12281
    D7        0.00962   0.00037   0.00000   0.00013   0.00010   0.00972
    D8        0.00806  -0.00152   0.00000  -0.00236  -0.00235   0.00571
    D9        3.13879  -0.00036   0.00000  -0.00056  -0.00055   3.13824
   D10       -3.11998   0.00090   0.00000   0.00203   0.00201  -3.11796
   D11       -0.90764  -0.00351   0.00000  -0.00560  -0.00559  -0.91322
   D12        0.91703   0.00483   0.00000   0.00891   0.00889   0.92593
   D13        0.04411   0.00016   0.00000   0.00099   0.00100   0.04510
   D14        2.25645  -0.00426   0.00000  -0.00663  -0.00660   2.24984
   D15       -2.20207   0.00408   0.00000   0.00788   0.00787  -2.19419
   D16       -3.11249   0.00083   0.00000   0.00066   0.00065  -3.11184
   D17        0.03965  -0.00026   0.00000  -0.00103  -0.00105   0.03860
   D18        3.12270   0.00019   0.00000   0.00076   0.00074   3.12344
   D19       -0.01250   0.00042   0.00000   0.00070   0.00068  -0.01181
   D20       -3.13765   0.00078   0.00000   0.00063   0.00062  -3.13703
   D21        0.00075  -0.00004   0.00000  -0.00034  -0.00036   0.00039
   D22       -0.00219   0.00052   0.00000   0.00063   0.00062  -0.00157
   D23        3.13621  -0.00030   0.00000  -0.00034  -0.00036   3.13585
   D24        3.13306  -0.00021   0.00000   0.00014   0.00015   3.13321
   D25       -0.00702  -0.00053   0.00000  -0.00079  -0.00078  -0.00780
   D26       -0.00507   0.00070   0.00000   0.00124   0.00127  -0.00380
   D27        3.13803   0.00038   0.00000   0.00031   0.00034   3.13837
   D28        3.13474  -0.00016   0.00000  -0.00016  -0.00014   3.13460
   D29        0.02613  -0.00006   0.00000   0.00005   0.00007   0.02620
   D30        2.56342  -0.00355   0.00000  -0.00538  -0.00534   2.55808
   D31       -2.57083   0.00275   0.00000   0.00478   0.00471  -2.56612
   D32       -1.72458  -0.00642   0.00000  -0.00857  -0.00840  -1.73297
   D33        1.75145   0.00604   0.00000   0.00828   0.00813   1.75958
   D34       -0.04250   0.00065   0.00000   0.00119   0.00120  -0.04130
   D35        3.13207   0.00076   0.00000   0.00139   0.00141   3.13349
   D36       -0.61382  -0.00273   0.00000  -0.00403  -0.00400  -0.61782
   D37        0.53512   0.00357   0.00000   0.00613   0.00605   0.54117
   D38        1.38137  -0.00561   0.00000  -0.00722  -0.00706   1.37431
   D39       -1.42579   0.00685   0.00000   0.00963   0.00948  -1.41632
   D40       -3.13683  -0.00073   0.00000  -0.00203  -0.00201  -3.13884
   D41       -0.00603  -0.00063   0.00000  -0.00172  -0.00169  -0.00773
   D42        0.00319  -0.00038   0.00000  -0.00104  -0.00103   0.00216
   D43        3.13399  -0.00028   0.00000  -0.00073  -0.00071   3.13328
   D44       -3.12432   0.00020   0.00000   0.00046   0.00047  -3.12385
   D45       -0.01741   0.00206   0.00000   0.00487   0.00487  -0.01254
   D46        0.02720   0.00006   0.00000   0.00013   0.00013   0.02733
   D47        3.13411   0.00192   0.00000   0.00453   0.00453   3.13864
   D48       -0.00277   0.00084   0.00000   0.00224   0.00225  -0.00052
   D49        3.12749   0.00130   0.00000   0.00295   0.00296   3.13045
   D50        2.81493   0.00032   0.00000   0.00070   0.00069   2.81562
   D51       -0.29280  -0.00154   0.00000  -0.00367  -0.00367  -0.29647
   D52       -0.05852   0.00059   0.00000   0.00096   0.00091  -0.05761
   D53        1.21742   0.00057   0.00000   0.00006   0.00016   1.21758
   D54       -1.18918  -0.00459   0.00000  -0.00857  -0.00864  -1.19782
   D55        0.14889  -0.00067   0.00000  -0.00187  -0.00187   0.14702
   D56        0.08227  -0.00156   0.00000  -0.00338  -0.00337   0.07891
   D57       -2.19040   0.00479   0.00000   0.00657   0.00656  -2.18384
   D58        2.35384  -0.00679   0.00000  -0.01107  -0.01103   2.34281
   D59       -0.12433  -0.00056   0.00000  -0.00095  -0.00093  -0.12526
   D60       -2.32162  -0.00011   0.00000   0.00115   0.00123  -2.32040
   D61        2.10695  -0.00100   0.00000  -0.00310  -0.00313   2.10383
   D62       -0.06357  -0.00007   0.00000   0.00004   0.00004  -0.06353
   D63       -2.26086   0.00038   0.00000   0.00215   0.00220  -2.25867
   D64        2.16771  -0.00051   0.00000  -0.00210  -0.00216   2.16556
   D65       -0.84475  -0.00495   0.00000  -0.00759  -0.00761  -0.85235
   D66       -3.04204  -0.00450   0.00000  -0.00548  -0.00545  -3.04749
   D67        1.38654  -0.00539   0.00000  -0.00973  -0.00980   1.37673
   D68        0.69444   0.00600   0.00000   0.00984   0.00985   0.70428
   D69       -1.50286   0.00645   0.00000   0.01194   0.01200  -1.49085
   D70        2.92572   0.00556   0.00000   0.00770   0.00765   2.93337
   D71        2.21210  -0.00462   0.00000  -0.00826  -0.00826   2.20384
   D72        0.01481  -0.00418   0.00000  -0.00615  -0.00611   0.00870
   D73       -1.83980  -0.00507   0.00000  -0.01040  -0.01046  -1.85026
   D74       -2.32632   0.00375   0.00000   0.00670   0.00671  -2.31961
   D75        1.75957   0.00419   0.00000   0.00880   0.00886   1.76844
   D76       -0.09503   0.00330   0.00000   0.00455   0.00451  -0.09053
         Item               Value     Threshold  Converged?
 Maximum Force            0.121972     0.000450     NO 
 RMS     Force            0.023124     0.000300     NO 
 Maximum Displacement     0.498628     0.001800     NO 
 RMS     Displacement     0.119739     0.001200     NO 
 Predicted change in Energy=-7.418955D-02
 GradGradGradGradGradGradGradGradGradGradGradGradGradGradGradGradGradGrad

                          Input orientation:                          
 ---------------------------------------------------------------------
[...]
 SLEqS3 Cycle:   901 Max:0.130978E-01 RMS:0.205789E-02 Conv:0.260264E-03
 SLEqS3 Cycle:    90 Max:0.299208E-01 RMS: 41.4165     Conv:0.260264E-03
 Iteration 24 RMS(Cart)=  0.00214438 RMS(Int)=  0.00531582
 SLEqS3 Cycle:    44 Max:0.290975E-01 RMS:0.428099E-02 Conv:0.358791E-04
 Iteration 25 RMS(Cart)=  0.00012690 RMS(Int)=  0.00530959
 SLEqS3 Cycle:    30 Max:0.291040E-01 RMS: 7.41099     Conv:0.465733E-04
 Iteration 26 RMS(Cart)=  0.00026667 RMS(Int)=  0.00532380
 SLEqS3 Cycle:    30 Max:0.291884E-01 RMS: 13.2103     Conv:0.830217E-04
 Iteration 27 RMS(Cart)=  0.00022405 RMS(Int)=  0.00531233
 SLEqS3 Cycle:    15 Max:0.300834E-01 RMS: 1.75711     Conv:0.110365E-04
 Iteration 28 RMS(Cart)=  0.00204405 RMS(Int)=  0.00521886
 SLEqS3 Cycle:    15 Max:0.300568E-01 RMS: 19.4394     Conv:0.122206E-03
 Iteration 29 RMS(Cart)=  0.00123737 RMS(Int)=  0.00514620
 SLEqS3 Cycle:   901 Max:0.125919E-01 RMS:0.209773E-02 Conv:0.919759E-04
 SLEqS3 Cycle:    90 Max:0.297258E-01 RMS: 14.6284     Conv:0.919759E-04
 Iteration 30 RMS(Cart)=  0.00143576 RMS(Int)=  0.00508402
 SLEqS3 Cycle:    15 Max:0.291728E-01 RMS: 25.4679     Conv:0.160182E-03
 Iteration 31 RMS(Cart)=  0.00092768 RMS(Int)=  0.00513410
 SLEqS3 Cycle:    45 Max:0.284481E-01 RMS: 5.50868     Conv:0.346498E-04
 Iteration 32 RMS(Cart)=  0.00175439 RMS(Int)=  0.00521605
 SLEqS3 Cycle:    15 Max:0.294688E-01 RMS: 46.4375     Conv:0.291999E-03
 Iteration 33 RMS(Cart)=  0.00108620 RMS(Int)=  0.00518942
 SLEqS3 Cycle:   901 Max:0.453180E-02 RMS:0.776871E-03 Conv:0.889714E-04
 SLEqS3 Cycle:    90 Max:0.294133E-01 RMS: 14.1485     Conv:0.889714E-04
 Iteration 34 RMS(Cart)=  0.00000701 RMS(Int)=  0.00518926
 SLEqS3 Cycle:   901 Max:0.298174E-01 RMS:0.425830E-02 Conv:0.475856E-05
 SLEqS3 Cycle:   901 Max:0.298174E-01 RMS:0.425830E-02 Conv:0.475856E-05
 Iteration 35 RMS(Cart)=  0.00165882 RMS(Int)=  0.00512247
 SLEqS3 Cycle:   901 Max:0.125338E-01 RMS:0.208242E-02 Conv:0.580106E-04
 SLEqS3 Cycle:    90 Max:0.294513E-01 RMS: 9.22613     Conv:0.580106E-04
 Iteration 36 RMS(Cart)=  0.00061453 RMS(Int)=  0.00509816
 SLEqS3 Cycle:   901 Max:0.294438E-01 RMS:0.419635E-02 Conv:0.610096E-05
 SLEqS3 Cycle:   104 Max:0.293066E-01 RMS:0.419628E-02 Conv:0.610096E-05
 Iteration 37 RMS(Cart)=  0.00071609 RMS(Int)=  0.00512630
 SLEqS3 Cycle:    29 Max:0.293494E-01 RMS:0.421591E-02 Conv:0.275162E-04
 Iteration 38 RMS(Cart)=  0.00013978 RMS(Int)=  0.00511939
 SLEqS3 Cycle:    29 Max:0.294750E-01 RMS:0.421269E-02 Conv:0.705088E-05
 Iteration 39 RMS(Cart)=  0.00074651 RMS(Int)=  0.00508270
 SLEqS3 Cycle:   901 Max:0.117287E-01 RMS:0.198944E-02 Conv:0.420398E-04
 SLEqS3 Cycle:    90 Max:0.291292E-01 RMS: 6.68588     Conv:0.420398E-04
 Iteration 40 RMS(Cart)=  0.00033865 RMS(Int)=  0.00507733
 SLEqS3 Cycle:    29 Max:0.290792E-01 RMS:0.418722E-02 Conv:0.163950E-04
 Iteration 41 RMS(Cart)=  0.00008315 RMS(Int)=  0.00507283
 SLEqS3 Cycle:   901 Max:0.294299E-01 RMS:0.419698E-02 Conv:0.424652E-05
 SLEqS3 Cycle:   901 Max:0.294299E-01 RMS:0.419698E-02 Conv:0.424652E-05
 Iteration 42 RMS(Cart)=  0.00119032 RMS(Int)=  0.00501315
 SLEqS3 Cycle:    30 Max:0.292544E-01 RMS: 11.1364     Conv:0.700437E-04
 Iteration 43 RMS(Cart)=  0.00101444 RMS(Int)=  0.00496131
 SLEqS3 Cycle:   901 Max:0.988282E-02 RMS:0.156364E-02 Conv:0.109641E-03
 SLEqS3 Cycle:    90 Max:0.289931E-01 RMS: 17.4262     Conv:0.109641E-03
 Iteration 44 RMS(Cart)=  0.00120489 RMS(Int)=  0.00491375
 SLEqS3 Cycle:   901 Max:0.107530E-01 RMS:0.189659E-02 Conv:0.276479E-04
 SLEqS3 Cycle:    90 Max:0.288103E-01 RMS: 4.39513     Conv:0.276479E-04
 Iteration 45 RMS(Cart)=  0.00110590 RMS(Int)=  0.00487166
 SLEqS3 Cycle:   901 Max:0.104190E-01 RMS:0.185640E-02 Conv:0.105977E-03
 SLEqS3 Cycle:    90 Max:0.285849E-01 RMS: 16.8383     Conv:0.105977E-03
 Iteration 46 RMS(Cart)=  0.00128878 RMS(Int)=  0.00483081
 SLEqS3 Cycle:   901 Max:0.888310E-02 RMS:0.140539E-02 Conv:0.831005E-04
 SLEqS3 Cycle:    90 Max:0.275995E-01 RMS: 13.2016     Conv:0.831005E-04
 Iteration 47 RMS(Cart)=  0.00095870 RMS(Int)=  0.00480879
 SLEqS3 Cycle:   901 Max:0.281004E-01 RMS:0.402491E-02 Conv:0.367041E-05
 SLEqS3 Cycle:   901 Max:0.281004E-01 RMS:0.402491E-02 Conv:0.367041E-05
 Iteration 48 RMS(Cart)=  0.00138039 RMS(Int)=  0.00477402
 SLEqS3 Cycle:    29 Max:0.279505E-01 RMS:0.399837E-02 Conv:0.310199E-04
 Iteration 49 RMS(Cart)=  0.00075712 RMS(Int)=  0.00474307
 SLEqS3 Cycle:    29 Max:0.278223E-01 RMS:0.398331E-02 Conv:0.393941E-04
 Iteration 50 RMS(Cart)=  0.00076033 RMS(Int)=  0.00471365
 SLEqS3 Cycle:   901 Max:0.881493E-02 RMS:0.169595E-02 Conv:0.354629E-04
 SLEqS3 Cycle:    90 Max:0.277360E-01 RMS: 5.63335     Conv:0.354629E-04
 Iteration 51 RMS(Cart)=  0.00083984 RMS(Int)=  0.00468861
 SLEqS3 Cycle:   901 Max:0.733981E-02 RMS:0.123536E-02 Conv:0.112854E-03
 SLEqS3 Cycle:    90 Max:0.275196E-01 RMS: 17.9202     Conv:0.112854E-03
 Iteration 52 RMS(Cart)=  0.00081483 RMS(Int)=  0.00466539
 SLEqS3 Cycle:    15 Max:0.272583E-01 RMS: 5.75802     Conv:0.362706E-04
 Iteration 53 RMS(Cart)=  0.00028145 RMS(Int)=  0.00467374
 SLEqS3 Cycle:   901 Max:0.845453E-02 RMS:0.165333E-02 Conv:0.301285E-04
 SLEqS3 Cycle:    90 Max:0.273426E-01 RMS: 4.78281     Conv:0.301285E-04
 Iteration 54 RMS(Cart)=  0.00064825 RMS(Int)=  0.00465036
 SLEqS3 Cycle:    30 Max:0.273118E-01 RMS: 3.02007     Conv:0.190146E-04
 Iteration 55 RMS(Cart)=  0.00083689 RMS(Int)=  0.00463024
 SLEqS3 Cycle:   901 Max:0.787595E-02 RMS:0.160131E-02 Conv:0.404748E-04
 SLEqS3 Cycle:    90 Max:0.270563E-01 RMS: 6.42482     Conv:0.404748E-04
 Iteration 56 RMS(Cart)=  0.00075386 RMS(Int)=  0.00461224
 SLEqS3 Cycle:    29 Max:0.269854E-01 RMS:0.389599E-02 Conv:0.995573E-05
 Iteration 57 RMS(Cart)=  0.00054419 RMS(Int)=  0.00459589
 SLEqS3 Cycle:    29 Max:0.268739E-01 RMS:0.388563E-02 Conv:0.152782E-04
 Iteration 58 RMS(Cart)=  0.00052356 RMS(Int)=  0.00458102
 SLEqS3 Cycle:   901 Max:0.738064E-02 RMS:0.157490E-02 Conv:0.583386E-04
 SLEqS3 Cycle:    90 Max:0.267308E-01 RMS: 9.25876     Conv:0.583386E-04
 Iteration 59 RMS(Cart)=  0.00064584 RMS(Int)=  0.00456761
 SLEqS3 Cycle:    29 Max:0.266273E-01 RMS:0.386370E-02 Conv:0.786664E-05
 Iteration 60 RMS(Cart)=  0.00046915 RMS(Int)=  0.00455536
 SLEqS3 Cycle:    29 Max:0.265283E-01 RMS:0.385534E-02 Conv:0.113106E-04
 Iteration 61 RMS(Cart)=  0.00045057 RMS(Int)=  0.00454425
 SLEqS3 Cycle:    15 Max:0.264299E-01 RMS: 2.11852     Conv:0.133430E-04
 Iteration 62 RMS(Cart)=  0.00042061 RMS(Int)=  0.00453438
 SLEqS3 Cycle:    29 Max:0.263870E-01 RMS:0.385191E-02 Conv:0.116046E-04
 Iteration 63 RMS(Cart)=  0.00041066 RMS(Int)=  0.00452521
 SLEqS3 Cycle:   901 Max:0.700212E-02 RMS:0.148434E-02 Conv:0.374282E-04
 SLEqS3 Cycle:    90 Max:0.262184E-01 RMS: 5.93787     Conv:0.374282E-04
 Iteration 64 RMS(Cart)=  0.00048731 RMS(Int)=  0.00451682
 SLEqS3 Cycle:   901 Max:0.698084E-02 RMS:0.148799E-02 Conv:0.688535E-05
 SLEqS3 Cycle:   104 Max:0.252867E-01 RMS:0.383729E-02 Conv:0.688535E-05
 Iteration 65 RMS(Cart)=  0.00215634 RMS(Int)=  0.00448450
 SLEqS3 Cycle:   901 Max:0.721990E-02 RMS:0.143888E-02 Conv:0.254588E-03
 SLEqS3 Cycle:    90 Max:0.251033E-01 RMS: 40.3806     Conv:0.254588E-03
 Iteration 66 RMS(Cart)=  0.00001843 RMS(Int)=  0.00448370
 SLEqS3 Cycle:    15 Max:0.257011E-01 RMS:0.277992     Conv:0.174601E-05
 Iteration 67 RMS(Cart)=  0.00052643 RMS(Int)=  0.00447478
 SLEqS3 Cycle:   901 Max:0.624838E-02 RMS:0.974064E-03 Conv:0.228948E-04
 SLEqS3 Cycle:    90 Max:0.252817E-01 RMS: 3.63039     Conv:0.228948E-04
 Iteration 68 RMS(Cart)=  0.00105825 RMS(Int)=  0.00446649
 SLEqS3 Cycle:    30 Max:0.252058E-01 RMS: 2.22794     Conv:0.140414E-04
 Iteration 69 RMS(Cart)=  0.00008731 RMS(Int)=  0.00446550
 SLEqS3 Cycle:   901 Max:0.741881E-02 RMS:0.142265E-02 Conv:0.579003E-05
 SLEqS3 Cycle:    90 Max:0.251603E-01 RMS:0.919256     Conv:0.579003E-05
 Iteration 70 RMS(Cart)=  0.00000141 RMS(Int)=  0.00446548
 SLEqS3 Cycle:   901 Max:0.253268E-01 RMS:0.378508E-02 Conv:0.291757E-07
 SLEqS3 Cycle:   901 Max:0.250588E-01 RMS:0.377633E-02 Conv:0.291757E-07
 Iteration 71 RMS(Cart)=  0.00056856 RMS(Int)=  0.00447360
 SLEqS3 Cycle:   901 Max:0.765556E-02 RMS:0.140809E-02 Conv:0.684738E-04
 SLEqS3 Cycle:    90 Max:0.250035E-01 RMS: 10.8613     Conv:0.684738E-04
 Iteration 72 RMS(Cart)=  0.00000946 RMS(Int)=  0.00447318
 SLEqS3 Cycle:   901 Max:0.253815E-01 RMS:0.376491E-02 Conv:0.297682E-06
 SLEqS3 Cycle:   901 Max:0.253821E-01 RMS:0.376497E-02 Conv:0.297682E-06
 Iteration 73 RMS(Cart)=  0.00090559 RMS(Int)=  0.00446608
 SLEqS3 Cycle:   901 Max:0.628870E-02 RMS:0.970582E-03 Conv:0.669602E-05
 SLEqS3 Cycle:    90 Max:0.254192E-01 RMS: 1.06311     Conv:0.669602E-05
 Iteration 74 RMS(Cart)=  0.00012528 RMS(Int)=  0.00446488
 SLEqS3 Cycle:   901 Max:0.253246E-01 RMS:0.376137E-02 Conv:0.111268E-05
 SLEqS3 Cycle:   901 Max:0.253238E-01 RMS:0.376122E-02 Conv:0.111268E-05
 Iteration 75 RMS(Cart)=  0.00023543 RMS(Int)=  0.00446215
 SLEqS3 Cycle:   901 Max:0.757963E-02 RMS:0.143252E-02 Conv:0.522265E-05
 SLEqS3 Cycle:    90 Max:0.253702E-01 RMS:0.829289     Conv:0.522265E-05
 Iteration 76 RMS(Cart)=  0.00027210 RMS(Int)=  0.00445975
 SLEqS3 Cycle:    29 Max:0.252839E-01 RMS:0.376753E-02 Conv:0.219859E-05
 Iteration 77 RMS(Cart)=  0.00019190 RMS(Int)=  0.00445758
 SLEqS3 Cycle:    29 Max:0.251985E-01 RMS:0.375463E-02 Conv:0.353594E-05
 Iteration 78 RMS(Cart)=  0.00018717 RMS(Int)=  0.00445562
 SLEqS3 Cycle:   901 Max:0.795501E-02 RMS:0.140869E-02 Conv:0.278294E-04
 SLEqS3 Cycle:    90 Max:0.251874E-01 RMS: 4.41414     Conv:0.278294E-04
 Iteration 79 RMS(Cart)=  0.00022709 RMS(Int)=  0.00445386
 SLEqS3 Cycle:    15 Max:0.251628E-01 RMS:0.295312     Conv:0.185601E-05
 Iteration 80 RMS(Cart)=  0.00014321 RMS(Int)=  0.00445250
 SLEqS3 Cycle:    15 Max:0.251981E-01 RMS:0.490994     Conv:0.309000E-05
 Iteration 81 RMS(Cart)=  0.00001180 RMS(Int)=  0.00445262
 SLEqS3 Cycle:    15 Max:0.251974E-01 RMS:0.469857     Conv:0.295670E-05
 Iteration 82 RMS(Cart)=  0.00001842 RMS(Int)=  0.00445244
 SLEqS3 Cycle:   901 Max:0.799716E-02 RMS:0.140159E-02 Conv:0.173760E-05
 SLEqS3 Cycle:   104 Max:0.251148E-01 RMS:0.375922E-02 Conv:0.173760E-05
 Iteration 83 RMS(Cart)=  0.00021552 RMS(Int)=  0.00445093
 SLEqS3 Cycle:    29 Max:0.251291E-01 RMS:0.376799E-02 Conv:0.844503E-05
 Iteration 84 RMS(Cart)=  0.00015775 RMS(Int)=  0.00444958
 SLEqS3 Cycle:   901 Max:0.782198E-02 RMS:0.142107E-02 Conv:0.138367E-04
 SLEqS3 Cycle:    90 Max:0.250852E-01 RMS: 2.19303     Conv:0.138367E-04
 Iteration 85 RMS(Cart)=  0.00019205 RMS(Int)=  0.00444836
 SLEqS3 Cycle:    29 Max:0.249594E-01 RMS:0.374158E-02 Conv:0.215950E-05
 Iteration 86 RMS(Cart)=  0.00013828 RMS(Int)=  0.00444727
 SLEqS3 Cycle:   901 Max:0.785725E-02 RMS:0.142845E-02 Conv:0.211151E-04
 SLEqS3 Cycle:    90 Max:0.250153E-01 RMS: 3.34897     Conv:0.211151E-04
 Iteration 87 RMS(Cart)=  0.00016483 RMS(Int)=  0.00444628
 SLEqS3 Cycle:    15 Max:0.249572E-01 RMS: 1.25489     Conv:0.792055E-05
 Iteration 88 RMS(Cart)=  0.00004679 RMS(Int)=  0.00444662
 SLEqS3 Cycle:    15 Max:0.249600E-01 RMS: 1.02048     Conv:0.644206E-05
 Iteration 89 RMS(Cart)=  0.00004062 RMS(Int)=  0.00444634
 SLEqS3 Cycle:    15 Max:0.249553E-01 RMS:0.163141     Conv:0.102260E-05
 Iteration 90 RMS(Cart)=  0.00000875 RMS(Int)=  0.00444627
 SLEqS3 Cycle:    29 Max:0.249941E-01 RMS:0.376104E-02 Conv:0.128956E-05
 Iteration 91 RMS(Cart)=  0.00011653 RMS(Int)=  0.00444544
 SLEqS3 Cycle:    30 Max:0.249177E-01 RMS: 1.82446     Conv:0.115129E-04
 Iteration 92 RMS(Cart)=  0.00012516 RMS(Int)=  0.00444458
 SLEqS3 Cycle:    29 Max:0.248903E-01 RMS:0.374700E-02 Conv:0.397441E-05
 Iteration 93 RMS(Cart)=  0.00011348 RMS(Int)=  0.00444385
 SLEqS3 Cycle:   901 Max:0.794869E-02 RMS:0.142210E-02 Conv:0.114634E-04
 SLEqS3 Cycle:    90 Max:0.248566E-01 RMS: 1.81655     Conv:0.114634E-04
 Iteration 94 RMS(Cart)=  0.00013921 RMS(Int)=  0.00444316
 SLEqS3 Cycle:    15 Max:0.248852E-01 RMS: 1.08633     Conv:0.685792E-05
 Iteration 95 RMS(Cart)=  0.00010867 RMS(Int)=  0.00444253
 SLEqS3 Cycle:    15 Max:0.248587E-01 RMS: 1.46458     Conv:0.924382E-05
 Iteration 96 RMS(Cart)=  0.00010710 RMS(Int)=  0.00444194
 SLEqS3 Cycle:   901 Max:0.601349E-02 RMS:0.929544E-03 Conv:0.107495E-04
 SLEqS3 Cycle:    90 Max:0.248815E-01 RMS: 1.70325     Conv:0.107495E-04
 Iteration 97 RMS(Cart)=  0.00011865 RMS(Int)=  0.00444144
 SLEqS3 Cycle:    15 Max:0.247624E-01 RMS:0.903281     Conv:0.570347E-05
 Iteration 98 RMS(Cart)=  0.00009304 RMS(Int)=  0.00444097
 SLEqS3 Cycle:    29 Max:0.248417E-01 RMS:0.376406E-02 Conv:0.759355E-05
 Iteration 99 RMS(Cart)=  0.00008652 RMS(Int)=  0.00444056
 SLEqS3 Cycle:    15 Max:0.247693E-01 RMS: 3.11101     Conv:0.196295E-04
 Iteration100 RMS(Cart)=  0.00008200 RMS(Int)=  0.00444019
 New curvilinear step not converged.
 ITry= 4 IFail=1 DXMaxC= 8.80D-01 DCOld= 1.00D+10 DXMaxT= 2.12D+00 DXLimC= 3.00D+00 Rises=F
 Iteration  1 RMS(Cart)=  0.00228933 RMS(Int)=  0.09517203
 Iteration  2 RMS(Cart)=  0.02293998 RMS(Int)=  0.06620257
 Iteration  3 RMS(Cart)=  0.02625495 RMS(Int)=  0.04143505
 Iteration  4 RMS(Cart)=  0.00206681 RMS(Int)=  0.02331997
 Iteration  5 RMS(Cart)=  0.00193484 RMS(Int)=  0.00825737
 Iteration  6 RMS(Cart)=  0.00445070 RMS(Int)=  0.00719920
 SLEqS3 Cycle:    75 Max:0.305737E-01 RMS: 320.875     Conv:0.202577E-02
 Iteration  7 RMS(Cart)=  0.00431264 RMS(Int)=  0.00705551
 SLEqS3 Cycle:    24 Max:0.269485E-01 RMS: 328.202     Conv:0.207144E-02
 Iteration  8 RMS(Cart)=  0.00438306 RMS(Int)=  0.00691668
 SLEqS3 Cycle:    25 Max:0.292549E-01 RMS: 339.712     Conv:0.214347E-02
 Iteration  9 RMS(Cart)=  0.00408956 RMS(Int)=  0.00679370
 SLEqS3 Cycle:   104 Max:0.181455E-01 RMS:0.308217E-02 Conv:0.234228E-02
 Iteration 10 RMS(Cart)=  0.00003136 RMS(Int)=  0.34073402
 Iteration 11 RMS(Cart)=  0.00001490 RMS(Int)=  0.00679488
 SLEqS3 Cycle:   901 Max:0.183273E-01 RMS:0.307573E-02 Conv:0.342495E-04
 SLEqS3 Cycle:   100 Max:0.271306E-01 RMS:0.448899E-02 Conv:0.342495E-04
 Iteration 12 RMS(Cart)=  0.00632866 RMS(Int)=  0.00656806
 SLEqS3 Cycle:    35 Max:0.262049E-01 RMS:0.446213E-02 Conv:0.304085E-04
 Iteration 13 RMS(Cart)=  0.00390523 RMS(Int)=  0.00646781
 SLEqS3 Cycle:   901 Max:0.228259E-01 RMS:0.309613E-02 Conv:0.282774E-04
 SLEqS3 Cycle:   901 Max:0.299451E-01 RMS:0.445023E-02 Conv:0.282774E-04
 Iteration 14 RMS(Cart)=  0.00349962 RMS(Int)=  0.00638202
 SLEqS3 Cycle:   901 Max:0.298714E-01 RMS:0.443982E-02 Conv:0.272505E-04
 SLEqS3 Cycle:   901 Max:0.298719E-01 RMS:0.443995E-02 Conv:0.272505E-04
 Iteration 15 RMS(Cart)=  0.00349437 RMS(Int)=  0.00629998
 SLEqS3 Cycle:   901 Max:0.297991E-01 RMS:0.442921E-02 Conv:0.260219E-04
 SLEqS3 Cycle:   901 Max:0.298025E-01 RMS:0.442980E-02 Conv:0.260219E-04
 Iteration 16 RMS(Cart)=  0.00350063 RMS(Int)=  0.00622132
 SLEqS3 Cycle:   901 Max:0.297330E-01 RMS:0.441912E-02 Conv:0.243337E-04
 SLEqS3 Cycle:   901 Max:0.297373E-01 RMS:0.441985E-02 Conv:0.243337E-04
 Iteration 17 RMS(Cart)=  0.00352031 RMS(Int)=  0.00614568
 SLEqS3 Cycle:   901 Max:0.296646E-01 RMS:0.440829E-02 Conv:0.228318E-04
 SLEqS3 Cycle:   901 Max:0.296743E-01 RMS:0.440991E-02 Conv:0.228318E-04
 Iteration 18 RMS(Cart)=  0.00355543 RMS(Int)=  0.00607269
 SLEqS3 Cycle:   901 Max:0.295883E-01 RMS:0.439586E-02 Conv:0.211921E-04
 SLEqS3 Cycle:   901 Max:0.296125E-01 RMS:0.439967E-02 Conv:0.211921E-04
 Iteration 19 RMS(Cart)=  0.00360974 RMS(Int)=  0.00600198
 SLEqS3 Cycle:   901 Max:0.295501E-01 RMS:0.438900E-02 Conv:0.194460E-04
 SLEqS3 Cycle:   901 Max:0.295522E-01 RMS:0.438932E-02 Conv:0.194460E-04
 Iteration 20 RMS(Cart)=  0.00368787 RMS(Int)=  0.00593315
 SLEqS3 Cycle:   901 Max:0.294855E-01 RMS:0.437762E-02 Conv:0.178567E-04
 SLEqS3 Cycle:   901 Max:0.294895E-01 RMS:0.437827E-02 Conv:0.178567E-04
 Iteration 21 RMS(Cart)=  0.00379662 RMS(Int)=  0.00586574
 SLEqS3 Cycle:   901 Max:0.294177E-01 RMS:0.436529E-02 Conv:0.158682E-04
 SLEqS3 Cycle:   901 Max:0.294216E-01 RMS:0.436591E-02 Conv:0.158682E-04
 Iteration 22 RMS(Cart)=  0.00394909 RMS(Int)=  0.00579920
 SLEqS3 Cycle:   901 Max:0.293135E-01 RMS:0.434670E-02 Conv:0.140617E-04
 SLEqS3 Cycle:   901 Max:0.293335E-01 RMS:0.434986E-02 Conv:0.140617E-04
 Iteration 23 RMS(Cart)=  0.00416950 RMS(Int)=  0.00573268
 SLEqS3 Cycle:   901 Max:0.290086E-01 RMS:0.429823E-02 Conv:0.124141E-04
 SLEqS3 Cycle:   901 Max:0.291907E-01 RMS:0.432473E-02 Conv:0.124141E-04
 Iteration 24 RMS(Cart)=  0.00450813 RMS(Int)=  0.00566483
 SLEqS3 Cycle:   901 Max:0.274886E-01 RMS:0.416699E-02 Conv:0.112833E-04
 SLEqS3 Cycle:   901 Max:0.286979E-01 RMS:0.425132E-02 Conv:0.112833E-04
 Iteration 25 RMS(Cart)=  0.00522768 RMS(Int)=  0.00559120
 SLEqS3 Cycle:   901 Max:0.269997E-01 RMS:0.412616E-02 Conv:0.919800E-05
 SLEqS3 Cycle:   901 Max:0.270002E-01 RMS:0.412614E-02 Conv:0.919800E-05
 Iteration 26 RMS(Cart)=  0.00726497 RMS(Int)=  0.00549821
 SLEqS3 Cycle:   901 Max:0.205515E-01 RMS:0.285271E-02 Conv:0.594702E-05
 SLEqS3 Cycle:   901 Max:0.265124E-01 RMS:0.406455E-02 Conv:0.594702E-05
 Iteration 27 RMS(Cart)=  0.00935946 RMS(Int)=  0.00538816
 SLEqS3 Cycle:   901 Max:0.258928E-01 RMS:0.398044E-02 Conv:0.216071E-05
 SLEqS3 Cycle:   901 Max:0.258930E-01 RMS:0.398042E-02 Conv:0.216071E-05
 Iteration 28 RMS(Cart)=  0.01129954 RMS(Int)=  0.00524433
 SLEqS3 Cycle:   901 Max:0.287201E-01 RMS:0.421687E-02 Conv:0.462468E-05
 SLEqS3 Cycle:   901 Max:0.287191E-01 RMS:0.421669E-02 Conv:0.462468E-05
 Iteration 29 RMS(Cart)=  0.00561187 RMS(Int)=  0.00508103
 SLEqS3 Cycle:   901 Max:0.283829E-01 RMS:0.414527E-02 Conv:0.630169E-05
 SLEqS3 Cycle:   901 Max:0.284066E-01 RMS:0.415123E-02 Conv:0.630169E-05
 Iteration 30 RMS(Cart)=  0.00172713 RMS(Int)=  0.00495246
 SLEqS3 Cycle:   901 Max:0.281718E-01 RMS:0.409953E-02 Conv:0.641939E-06
 SLEqS3 Cycle:   901 Max:0.283278E-01 RMS:0.415882E-02 Conv:0.641939E-06
 Iteration 31 RMS(Cart)=  0.00002475 RMS(Int)=  0.00495379
 SLEqS3 Cycle:   901 Max:0.281881E-01 RMS:0.410316E-02 Conv:0.277229E-07
 SLEqS3 Cycle:   901 Max:0.281875E-01 RMS:0.410284E-02 Conv:0.277229E-07
 Iteration 32 RMS(Cart)=  0.00142060 RMS(Int)=  0.00484507
 SLEqS3 Cycle:   901 Max:0.279769E-01 RMS:0.405473E-02 Conv:0.276628E-05
 SLEqS3 Cycle:   901 Max:0.279767E-01 RMS:0.405466E-02 Conv:0.276628E-05
 Iteration 33 RMS(Cart)=  0.00142560 RMS(Int)=  0.00473760
 SLEqS3 Cycle:   901 Max:0.277645E-01 RMS:0.401034E-02 Conv:0.215836E-06
 SLEqS3 Cycle:   901 Max:0.277643E-01 RMS:0.401029E-02 Conv:0.215836E-06
 Iteration 34 RMS(Cart)=  0.00128700 RMS(Int)=  0.00464276
 SLEqS3 Cycle:   901 Max:0.271794E-01 RMS:0.388849E-02 Conv:0.844438E-07
 SLEqS3 Cycle:   901 Max:0.271846E-01 RMS:0.388916E-02 Conv:0.844438E-07
 Iteration 35 RMS(Cart)=  0.00665372 RMS(Int)=  0.00420165
 SLEqS3 Cycle:    29 Max:0.264112E-01 RMS:0.376756E-02 Conv:0.500102E-05
 Iteration 36 RMS(Cart)=  0.00102929 RMS(Int)=  0.00414391
 SLEqS3 Cycle:   901 Max:0.261658E-01 RMS:0.373139E-02 Conv:0.149225E-05
 SLEqS3 Cycle:   901 Max:0.261653E-01 RMS:0.373128E-02 Conv:0.149225E-05
 Iteration 37 RMS(Cart)=  0.00097231 RMS(Int)=  0.00409065
 SLEqS3 Cycle:   901 Max:0.259291E-01 RMS:0.369838E-02 Conv:0.100065E-05
 SLEqS3 Cycle:   901 Max:0.259285E-01 RMS:0.369825E-02 Conv:0.100065E-05
 Iteration 38 RMS(Cart)=  0.00092761 RMS(Int)=  0.00404149
 SLEqS3 Cycle:   901 Max:0.256996E-01 RMS:0.366721E-02 Conv:0.963772E-06
 SLEqS3 Cycle:   901 Max:0.256990E-01 RMS:0.366710E-02 Conv:0.963772E-06
 Iteration 39 RMS(Cart)=  0.00087849 RMS(Int)=  0.00399658
 SLEqS3 Cycle:   901 Max:0.254876E-01 RMS:0.363993E-02 Conv:0.816237E-06
 SLEqS3 Cycle:   901 Max:0.254871E-01 RMS:0.363985E-02 Conv:0.816237E-06
 Iteration 40 RMS(Cart)=  0.00083661 RMS(Int)=  0.00395540
 SLEqS3 Cycle:   901 Max:0.252832E-01 RMS:0.361397E-02 Conv:0.882646E-06
 SLEqS3 Cycle:   901 Max:0.252835E-01 RMS:0.361399E-02 Conv:0.882646E-06
 Iteration 41 RMS(Cart)=  0.00079096 RMS(Int)=  0.00391798
 SLEqS3 Cycle:   901 Max:0.250932E-01 RMS:0.359077E-02 Conv:0.638141E-06
slurmstepd: error: *** JOB 27449569 ON lewis4-r630-hpc4-node673 CANCELLED AT 2023-05-19T09:09:05 DUE TO TIME LIMIT ***
