### Starting Gaussian ###
 Entering Gaussian System, Link 0=g16
 Initial command:
 /cluster/software/gaussian/gaussian-16-A.03/avx2/g16/l1.exe "/local/scratch/linjian/Gau-497.inp" -scrdir="/local/scratch/linjian/"
 Entering Link 1 = /cluster/software/gaussian/gaussian-16-A.03/avx2/g16/l1.exe PID=       498.
  
 Copyright (c) 1988,1990,1992,1993,1995,1998,2003,2009,2016,
            Gaussian, Inc.  All Rights Reserved.
  
 This is part of the Gaussian(R) 16 program.  It is based on
 the Gaussian(R) 09 system (copyright 2009, Gaussian, Inc.),
 the Gaussian(R) 03 system (copyright 2003, Gaussian, Inc.),
 the Gaussian(R) 98 system (copyright 1998, Gaussian, Inc.),
 the Gaussian(R) 94 system (copyright 1995, Gaussian, Inc.),
 the Gaussian 92(TM) system (copyright 1992, Gaussian, Inc.),
 the Gaussian 90(TM) system (copyright 1990, Gaussian, Inc.),
 the Gaussian 88(TM) system (copyright 1988, Gaussian, Inc.),
 the Gaussian 86(TM) system (copyright 1986, Carnegie Mellon
 University), and the Gaussian 82(TM) system (copyright 1983,
 Carnegie Mellon University). Gaussian is a federally registered
 trademark of Gaussian, Inc.
  
 This software contains proprietary and confidential information,
 including trade secrets, belonging to Gaussian, Inc.
  
 This software is provided under written license and may be
 used, copied, transmitted, or stored only in accord with that
 written license.
  
 The following legend is applicable only to US Government
 contracts under FAR:
  
                    RESTRICTED RIGHTS LEGEND
  
 Use, reproduction and disclosure by the US Government is
 subject to restrictions as set forth in subparagraphs (a)
 and (c) of the Commercial Computer Software - Restricted
 Rights clause in FAR 52.227-19.
  
 Gaussian, Inc.
 340 Quinnipiac St., Bldg. 40, Wallingford CT 06492
  
  
 ---------------------------------------------------------------
 Warning -- This program may not be used in any manner that
 competes with the business of Gaussian, Inc. or will provide
 assistance to any competitor of Gaussian, Inc.  The licensee
 of this program is prohibited from giving any competitor of
 Gaussian, Inc. access to this program.  By using this program,
 the user acknowledges that Gaussian, Inc. is engaged in the
 business of creating and licensing software in the field of
 computational chemistry and represents and warrants to the
 licensee that it is not a competitor of Gaussian, Inc. and that
 it will not use this program in any manner prohibited above.
 ---------------------------------------------------------------
  

 Cite this work as:
 Gaussian 16, Revision A.03,
 M. J. Frisch, G. W. Trucks, H. B. Schlegel, G. E. Scuseria, 
 M. A. Robb, J. R. Cheeseman, G. Scalmani, V. Barone, 
 G. A. Petersson, H. Nakatsuji, X. Li, M. Caricato, A. V. Marenich, 
 J. Bloino, B. G. Janesko, R. Gomperts, B. Mennucci, H. P. Hratchian, 
 J. V. Ortiz, A. F. Izmaylov, J. L. Sonnenberg, D. Williams-Young, 
 F. Ding, F. Lipparini, F. Egidi, J. Goings, B. Peng, A. Petrone, 
 T. Henderson, D. Ranasinghe, V. G. Zakrzewski, J. Gao, N. Rega, 
 G. Zheng, W. Liang, M. Hada, M. Ehara, K. Toyota, R. Fukuda, 
 J. Hasegawa, M. Ishida, T. Nakajima, Y. Honda, O. Kitao, H. Nakai, 
 T. Vreven, K. Throssell, J. A. Montgomery, Jr., J. E. Peralta, 
 F. Ogliaro, M. J. Bearpark, J. J. Heyd, E. N. Brothers, K. N. Kudin, 
 V. N. Staroverov, T. A. Keith, R. Kobayashi, J. Normand, 
 K. Raghavachari, A. P. Rendell, J. C. Burant, S. S. Iyengar, 
 J. Tomasi, M. Cossi, J. M. Millam, M. Klene, C. Adamo, R. Cammi, 
 J. W. Ochterski, R. L. Martin, K. Morokuma, O. Farkas, 
 J. B. Foresman, and D. J. Fox, Gaussian, Inc., Wallingford CT, 2016.
 
 ******************************************
 Gaussian 16:  ES64L-G16RevA.03 25-Dec-2016
                16-May-2023 
 ******************************************
 %chk=OdCC1dNSCdNCdC[SH]dCSNCdCCdCCdC1.chk
 %NProcShared=20
 Will use up to   20 processors via shared memory.
 -----------------------------
 # opt freq b3lyp/6-31g(2df,p)
 -----------------------------
 1/18=20,19=15,26=3,38=1/1,3;
 2/9=110,12=2,17=6,18=5,40=1/2;
 3/5=1,6=6,7=104,11=2,25=1,30=1,71=1,74=-5/1,2,3;
 4//1;
 5/5=2,38=5/2;
 6/7=2,8=2,9=2,10=2,28=1/1;
 7//1,2,3,16;
 1/18=20,19=15,26=3/3(2);
 2/9=110/2;
 99//99;
 2/9=110/2;
 3/5=1,6=6,7=104,11=2,25=1,30=1,71=1,74=-5/1,2,3;
 4/5=5,16=3,69=1/1;
 5/5=2,38=5/2;
 7//1,2,3,16;
 1/18=20,19=15,26=3/3(-5);
 2/9=110/2;
 6/7=2,8=2,9=2,10=2,19=2,28=1/1;
 99/9=1/99;
 -------------------
 Title Card Required
 -------------------
 Symbolic Z-matrix:
 Charge =  0 Multiplicity = 1
 O                     3.23675  -0.66194   1.03058 
 C                     5.02058  -1.19689   1.73639 
 C                     7.21997  -2.37545   3.29128 
 N                     5.99941  -1.38871   1.98946 
 S                     5.38721  -2.17691   3.02781 
 C                     7.25535  -1.33288   1.9147 
 N                     8.38374  -1.87654   2.63176 
 C                     9.45207  -1.82369   2.5641 
 C                     10.41832  -2.22287   3.09721 
 S                     11.9965  -2.21103   3.06391 
 C                     12.67778  -3.05928   4.1956 
 S                     14.622   -3.07296   4.21075 
 N                     15.00215  -3.91271   5.31684 
 C                     16.555   -4.11744   5.5872 
 C                     16.53742  -4.77183   6.4445 
 C                     17.02787  -5.22132   7.04571 
 C                     14.76915  -4.89535   6.61517 
 C                     12.09839  -4.16426   5.65107 
 C                     9.83809  -3.41923   4.66853 
 H                     3.69732  -0.19288   0.41196 
 H                     7.42048  -0.76522   1.1666 
 H                     9.69075  -1.27217   1.83486 
 H                     10.19961  -2.6832    3.68774 
 H                     12.32642  -0.99693   3.31118 
 H                     11.47636  -3.52799   4.80802 
 H                     13.71636  -3.73976   5.08845 
 H                     17.35893  -3.80724   5.17832 
 H                     15.7249  -5.76597   7.75556 
 H                     18.92199  -4.85637   6.562 
 H                     16.60044  -5.5603    7.49266 
 H                     13.85641  -4.68043   6.33194 
 H                     8.1156   -3.16053   4.32542 
 
 Add virtual bond connecting atoms H30        and H28        Dist= 1.77D+00.
 Add virtual bond connecting atoms H25        and C11        Dist= 2.70D+00.
 Add virtual bond connecting atoms H32        and C3         Dist= 2.98D+00.
 Add virtual bond connecting atoms H29        and C16        Dist= 3.76D+00.
 Add virtual bond connecting atoms C2         and O1         Dist= 3.76D+00.
 Add virtual bond connecting atoms C2         and H20        Dist= 4.01D+00.

 GradGradGradGradGradGradGradGradGradGradGradGradGradGradGradGradGradGrad
 Berny optimization.
 Initialization pass.
                           ----------------------------
                           !    Initial Parameters    !
                           ! (Angstroms and Degrees)  !
 --------------------------                            --------------------------
 ! Name  Definition              Value          Derivative Info.                !
 --------------------------------------------------------------------------------
 ! R1    R(1,2)                  1.9916         estimate D2E/DX2                !
 ! R2    R(1,20)                 0.9027         estimate D2E/DX2                !
 ! R3    R(2,4)                  1.0291         estimate D2E/DX2                !
 ! R4    R(2,5)                  1.6621         estimate D2E/DX2                !
 ! R5    R(2,20)                 2.1244         estimate D2E/DX2                !
 ! R6    R(3,5)                  1.8622         estimate D2E/DX2                !
 ! R7    R(3,6)                  1.7272         estimate D2E/DX2                !
 ! R8    R(3,7)                  1.4277         estimate D2E/DX2                !
 ! R9    R(3,32)                 1.5773         estimate D2E/DX2                !
 ! R10   R(4,5)                  1.4402         estimate D2E/DX2                !
 ! R11   R(4,6)                  1.2594         estimate D2E/DX2                !
 ! R12   R(6,7)                  1.4433         estimate D2E/DX2                !
 ! R13   R(6,21)                 0.9535         estimate D2E/DX2                !
 ! R14   R(7,8)                  1.0718         estimate D2E/DX2                !
 ! R15   R(8,9)                  1.1735         estimate D2E/DX2                !
 ! R16   R(8,22)                 0.945          estimate D2E/DX2                !
 ! R17   R(9,10)                 1.5786         estimate D2E/DX2                !
 ! R18   R(9,23)                 0.78           estimate D2E/DX2                !
 ! R19   R(10,11)                1.5698         estimate D2E/DX2                !
 ! R20   R(10,24)                1.2822         estimate D2E/DX2                !
 ! R21   R(11,12)                1.9443         estimate D2E/DX2                !
 ! R22   R(11,25)                1.4276         estimate D2E/DX2                !
 ! R23   R(12,13)                1.4398         estimate D2E/DX2                !
 ! R24   R(12,26)                1.4266         estimate D2E/DX2                !
 ! R25   R(13,14)                1.5895         estimate D2E/DX2                !
 ! R26   R(13,17)                1.6448         estimate D2E/DX2                !
 ! R27   R(14,15)                1.0787         estimate D2E/DX2                !
 ! R28   R(14,27)                0.9538         estimate D2E/DX2                !
 ! R29   R(15,16)                0.8967         estimate D2E/DX2                !
 ! R30   R(15,17)                1.7808         estimate D2E/DX2                !
 ! R31   R(16,29)                1.9887         estimate D2E/DX2                !
 ! R32   R(16,30)                0.7052         estimate D2E/DX2                !
 ! R33   R(17,31)                0.9795         estimate D2E/DX2                !
 ! R34   R(18,25)                1.2258         estimate D2E/DX2                !
 ! R35   R(19,23)                1.2784         estimate D2E/DX2                !
 ! R36   R(28,30)                0.937          estimate D2E/DX2                !
 ! A1    A(1,2,5)              129.1464         estimate D2E/DX2                !
 ! A2    A(4,2,20)             146.5009         estimate D2E/DX2                !
 ! A3    A(5,2,20)             154.2164         estimate D2E/DX2                !
 ! A4    A(5,3,6)               80.9697         estimate D2E/DX2                !
 ! A5    A(5,3,7)              134.3985         estimate D2E/DX2                !
 ! A6    A(5,3,32)             134.8021         estimate D2E/DX2                !
 ! A7    A(6,3,32)             144.2281         estimate D2E/DX2                !
 ! A8    A(7,3,32)              90.7993         estimate D2E/DX2                !
 ! A9    A(2,4,6)              157.7772         estimate D2E/DX2                !
 ! A10   A(5,4,6)              119.4041         estimate D2E/DX2                !
 ! A11   A(2,5,3)              112.9472         estimate D2E/DX2                !
 ! A12   A(3,5,4)               75.0486         estimate D2E/DX2                !
 ! A13   A(3,6,4)               84.5776         estimate D2E/DX2                !
 ! A14   A(4,6,7)              137.18           estimate D2E/DX2                !
 ! A15   A(4,6,21)             104.2216         estimate D2E/DX2                !
 ! A16   A(7,6,21)             118.5983         estimate D2E/DX2                !
 ! A17   A(3,7,8)              149.1966         estimate D2E/DX2                !
 ! A18   A(6,7,8)              136.8345         estimate D2E/DX2                !
 ! A19   A(7,8,9)              140.8294         estimate D2E/DX2                !
 ! A20   A(7,8,22)             109.2245         estimate D2E/DX2                !
 ! A21   A(9,8,22)             109.946          estimate D2E/DX2                !
 ! A22   A(8,9,10)             144.1962         estimate D2E/DX2                !
 ! A23   A(8,9,23)             108.2876         estimate D2E/DX2                !
 ! A24   A(10,9,23)            107.5002         estimate D2E/DX2                !
 ! A25   A(9,10,11)            114.4949         estimate D2E/DX2                !
 ! A26   A(9,10,24)            105.0866         estimate D2E/DX2                !
 ! A27   A(11,10,24)           105.1267         estimate D2E/DX2                !
 ! A28   A(10,11,12)           116.3195         estimate D2E/DX2                !
 ! A29   A(10,11,25)            96.9748         estimate D2E/DX2                !
 ! A30   A(12,11,25)           146.7038         estimate D2E/DX2                !
 ! A31   A(11,12,13)           105.9083         estimate D2E/DX2                !
 ! A32   A(11,12,26)            51.1922         estimate D2E/DX2                !
 ! A33   A(13,12,26)            54.7161         estimate D2E/DX2                !
 ! A34   A(12,13,14)           117.6284         estimate D2E/DX2                !
 ! A35   A(12,13,17)           156.5474         estimate D2E/DX2                !
 ! A36   A(14,13,17)            85.8241         estimate D2E/DX2                !
 ! A37   A(13,14,15)           101.3856         estimate D2E/DX2                !
 ! A38   A(13,14,27)           135.1262         estimate D2E/DX2                !
 ! A39   A(15,14,27)           123.488          estimate D2E/DX2                !
 ! A40   A(14,15,16)           145.9031         estimate D2E/DX2                !
 ! A41   A(14,15,17)            97.726          estimate D2E/DX2                !
 ! A42   A(16,15,17)           116.3652         estimate D2E/DX2                !
 ! A43   A(15,16,29)           105.4192         estimate D2E/DX2                !
 ! A44   A(15,16,30)           109.534          estimate D2E/DX2                !
 ! A45   A(29,16,30)           145.0459         estimate D2E/DX2                !
 ! A46   A(13,17,15)            75.0636         estimate D2E/DX2                !
 ! A47   A(13,17,31)            76.8611         estimate D2E/DX2                !
 ! A48   A(15,17,31)           151.9244         estimate D2E/DX2                !
 ! A49   A(11,25,18)            92.201          estimate D2E/DX2                !
 ! A50   A(16,30,28)           148.1716         estimate D2E/DX2                !
 ! A51   L(1,2,4,5,-1)         188.4292         estimate D2E/DX2                !
 ! A52   L(3,6,21,4,-1)        188.7992         estimate D2E/DX2                !
 ! A53   L(9,23,19,1,-1)       179.8578         estimate D2E/DX2                !
 ! A54   L(1,2,4,5,-2)         179.992          estimate D2E/DX2                !
 ! A55   L(3,6,21,4,-2)        179.9422         estimate D2E/DX2                !
 ! A56   L(9,23,19,1,-2)       181.0218         estimate D2E/DX2                !
 ! D1    D(20,2,4,6)            -0.0852         estimate D2E/DX2                !
 ! D2    D(1,2,5,3)           -179.9825         estimate D2E/DX2                !
 ! D3    D(20,2,5,3)           179.9849         estimate D2E/DX2                !
 ! D4    D(6,3,5,2)             -0.0646         estimate D2E/DX2                !
 ! D5    D(6,3,5,4)             -0.0484         estimate D2E/DX2                !
 ! D6    D(7,3,5,2)             -0.1188         estimate D2E/DX2                !
 ! D7    D(7,3,5,4)             -0.1026         estimate D2E/DX2                !
 ! D8    D(32,3,5,2)          -179.9681         estimate D2E/DX2                !
 ! D9    D(32,3,5,4)          -179.9519         estimate D2E/DX2                !
 ! D10   D(5,3,6,4)              0.0537         estimate D2E/DX2                !
 ! D11   D(32,3,6,4)           179.9366         estimate D2E/DX2                !
 ! D12   D(5,3,7,8)            179.8876         estimate D2E/DX2                !
 ! D13   D(32,3,7,8)            -0.2193         estimate D2E/DX2                !
 ! D14   D(6,4,5,3)              0.0752         estimate D2E/DX2                !
 ! D15   D(2,4,6,3)           -179.9452         estimate D2E/DX2                !
 ! D16   D(2,4,6,7)           -179.9516         estimate D2E/DX2                !
 ! D17   D(2,4,6,21)             0.1126         estimate D2E/DX2                !
 ! D18   D(5,4,6,3)             -0.0787         estimate D2E/DX2                !
 ! D19   D(5,4,6,7)             -0.0851         estimate D2E/DX2                !
 ! D20   D(5,4,6,21)           179.9791         estimate D2E/DX2                !
 ! D21   D(4,6,7,8)           -179.858          estimate D2E/DX2                !
 ! D22   D(21,6,7,8)             0.0712         estimate D2E/DX2                !
 ! D23   D(3,7,8,9)             -0.0466         estimate D2E/DX2                !
 ! D24   D(3,7,8,22)          -179.9123         estimate D2E/DX2                !
 ! D25   D(6,7,8,9)            179.7019         estimate D2E/DX2                !
 ! D26   D(6,7,8,22)            -0.1639         estimate D2E/DX2                !
 ! D27   D(7,8,9,10)           179.2015         estimate D2E/DX2                !
 ! D28   D(7,8,9,23)             0.9761         estimate D2E/DX2                !
 ! D29   D(22,8,9,10)           -0.9334         estimate D2E/DX2                !
 ! D30   D(22,8,9,23)         -179.1588         estimate D2E/DX2                !
 ! D31   D(8,9,10,11)         -179.618          estimate D2E/DX2                !
 ! D32   D(8,9,10,24)           65.5587         estimate D2E/DX2                !
 ! D33   D(23,9,10,11)          -1.3848         estimate D2E/DX2                !
 ! D34   D(23,9,10,24)        -116.2081         estimate D2E/DX2                !
 ! D35   D(9,10,11,12)        -179.6424         estimate D2E/DX2                !
 ! D36   D(9,10,11,25)           0.7317         estimate D2E/DX2                !
 ! D37   D(24,10,11,12)        -64.8426         estimate D2E/DX2                !
 ! D38   D(24,10,11,25)        115.5316         estimate D2E/DX2                !
 ! D39   D(10,11,12,13)       -179.6346         estimate D2E/DX2                !
 ! D40   D(10,11,12,26)       -179.5607         estimate D2E/DX2                !
 ! D41   D(25,11,12,13)         -0.3112         estimate D2E/DX2                !
 ! D42   D(25,11,12,26)         -0.2372         estimate D2E/DX2                !
 ! D43   D(10,11,25,18)        179.8104         estimate D2E/DX2                !
 ! D44   D(12,11,25,18)          0.4214         estimate D2E/DX2                !
 ! D45   D(11,12,13,14)       -179.9297         estimate D2E/DX2                !
 ! D46   D(11,12,13,17)         -0.1601         estimate D2E/DX2                !
 ! D47   D(26,12,13,14)        179.9997         estimate D2E/DX2                !
 ! D48   D(26,12,13,17)         -0.2307         estimate D2E/DX2                !
 ! D49   D(12,13,14,15)       -179.8529         estimate D2E/DX2                !
 ! D50   D(12,13,14,27)         -0.0384         estimate D2E/DX2                !
 ! D51   D(17,13,14,15)          0.2391         estimate D2E/DX2                !
 ! D52   D(17,13,14,27)       -179.9464         estimate D2E/DX2                !
 ! D53   D(12,13,17,15)       -179.9422         estimate D2E/DX2                !
 ! D54   D(12,13,17,31)          0.1811         estimate D2E/DX2                !
 ! D55   D(14,13,17,15)         -0.1469         estimate D2E/DX2                !
 ! D56   D(14,13,17,31)        179.9764         estimate D2E/DX2                !
 ! D57   D(13,14,15,16)       -179.1942         estimate D2E/DX2                !
 ! D58   D(13,14,15,17)         -0.2223         estimate D2E/DX2                !
 ! D59   D(27,14,15,16)          0.9628         estimate D2E/DX2                !
 ! D60   D(27,14,15,17)        179.9347         estimate D2E/DX2                !
 ! D61   D(14,15,16,29)         -0.9405         estimate D2E/DX2                !
 ! D62   D(14,15,16,30)        179.3132         estimate D2E/DX2                !
 ! D63   D(17,15,16,29)       -179.8035         estimate D2E/DX2                !
 ! D64   D(17,15,16,30)          0.4502         estimate D2E/DX2                !
 ! D65   D(14,15,17,13)          0.2179         estimate D2E/DX2                !
 ! D66   D(14,15,17,31)          0.4732         estimate D2E/DX2                !
 ! D67   D(16,15,17,13)        179.5747         estimate D2E/DX2                !
 ! D68   D(16,15,17,31)        179.8299         estimate D2E/DX2                !
 ! D69   D(15,16,30,28)          0.2297         estimate D2E/DX2                !
 ! D70   D(29,16,30,28)       -179.3434         estimate D2E/DX2                !
 --------------------------------------------------------------------------------
 Trust Radius=3.00D-01 FncErr=1.00D-07 GrdErr=1.00D-06 EigMax=2.50D+02 EigMin=1.00D-04
 Number of steps in this run=    172 maximum allowed number of steps=    192.
 GradGradGradGradGradGradGradGradGradGradGradGradGradGradGradGradGradGrad

                          Input orientation:                          
 ---------------------------------------------------------------------
 Center     Atomic      Atomic             Coordinates (Angstroms)
 Number     Number       Type             X           Y           Z
 ---------------------------------------------------------------------
      1          8           0        3.236750   -0.661940    1.030580
      2          6           0        5.020580   -1.196890    1.736390
      3          6           0        7.219970   -2.375450    3.291280
      4          7           0        5.999410   -1.388710    1.989460
      5         16           0        5.387210   -2.176910    3.027810
      6          6           0        7.255350   -1.332880    1.914700
      7          7           0        8.383740   -1.876540    2.631760
      8          6           0        9.452070   -1.823690    2.564100
      9          6           0       10.418320   -2.222870    3.097210
     10         16           0       11.996500   -2.211030    3.063910
     11          6           0       12.677780   -3.059280    4.195600
     12         16           0       14.622000   -3.072960    4.210750
     13          7           0       15.002150   -3.912710    5.316840
     14          6           0       16.555000   -4.117440    5.587200
     15          6           0       16.537420   -4.771830    6.444500
     16          6           0       17.027870   -5.221320    7.045710
     17          6           0       14.769150   -4.895350    6.615170
     18          6           0       12.098390   -4.164260    5.651070
     19          6           0        9.838090   -3.419230    4.668530
     20          1           0        3.697320   -0.192880    0.411960
     21          1           0        7.420480   -0.765220    1.166600
     22          1           0        9.690750   -1.272170    1.834860
     23          1           0       10.199610   -2.683200    3.687740
     24          1           0       12.326420   -0.996930    3.311180
     25          1           0       11.476360   -3.527990    4.808020
     26          1           0       13.716360   -3.739760    5.088450
     27          1           0       17.358930   -3.807240    5.178320
     28          1           0       15.724900   -5.765970    7.755560
     29          1           0       18.921990   -4.856370    6.562000
     30          1           0       16.600440   -5.560300    7.492660
     31          1           0       13.856410   -4.680430    6.331940
     32          1           0        8.115600   -3.160530    4.325420
 ---------------------------------------------------------------------
                    Distance matrix (angstroms):
                    1          2          3          4          5
     1  O    0.000000
     2  C    1.991579   0.000000
     3  C    4.890084   2.940069   0.000000
     4  N    3.013293   1.029052   2.039156   0.000000
     5  S    3.302808   1.662114   1.862215   1.440215   0.000000
     6  C    4.169050   2.245993   1.727187   1.259401   2.332670
     7  N    5.525444   3.546048   1.427669   2.517053   3.037478
     8  C    6.506270   4.551493   2.411535   3.527078   4.106443
     9  C    7.634292   5.660394   3.207863   4.631382   5.031799
    10  S    9.125093   7.173162   4.784764   6.147824   6.609477
    11  C   10.241955   8.255236   5.574326   7.229003   7.436042
    12  S   12.064428  10.091054   7.491461   9.062002   9.353267
    13  N   12.936930  10.946554   8.187087   9.924281  10.034926
    14  C   14.494104  12.506046   9.769778  11.480861  11.620485
    15  C   14.936852  12.945428  10.124244  11.930739  11.947157
    16  C   15.721473  13.731713  10.880700  12.723266  12.685303
    17  C   13.494653  11.511547   8.624863  10.516751  10.405761
    18  C   10.589799   8.615416   5.706788   7.636008   7.474690
    19  C    8.025897   6.061736   3.137012   5.102538   4.903637
    20  H    0.902681   2.124422   5.046103   3.036138   3.692530
    21  H    4.187214   2.504101   2.673445   1.756496   3.096960
    22  H    6.532485   4.671815   3.072969   3.696414   4.556549
    23  H    7.721879   5.730553   3.021613   4.711851   4.883752
    24  H    9.377391   7.476312   5.289286   6.475453   7.044522
    25  H    9.506549   7.519710   4.663229   6.520566   6.486317
    26  H   11.651674   9.660180   6.877081   8.641903   8.721438
    27  H   15.051001  13.072708  10.411986  12.043953  12.272113
    28  H   15.074162  13.103029  10.186229  12.124086  11.920604
    29  H   17.152743  15.163361  12.401203  14.139514  14.242903
    30  H   15.631398  13.647972  10.760487  12.651846  12.534701
    31  H   12.531156  10.551115   7.655121   9.561642   9.429329
    32  H    6.395475   4.487550   1.577323   3.615842   3.177328
                    6          7          8          9         10
     6  C    0.000000
     7  N    1.443262   0.000000
     8  C    2.342689   1.071774   0.000000
     9  C    3.492104   2.115680   1.173537   0.000000
    10  S    4.956847   3.653857   2.621825   1.578576   0.000000
    11  C    6.130718   4.720514   3.820168   2.647867   1.569838
    12  S    7.909947   6.545267   5.567792   4.430976   2.991892
    13  N    8.845507   7.426910   6.537964   5.365987   4.123753
    14  C   10.379042   8.973614   8.053076   6.888272   5.548091
    15  C   10.885876   9.455273   8.599489   7.425963   6.213376
    16  C   11.702537  10.266036   9.435119   8.262415   7.087402
    17  C    9.552110   8.108898   7.356467   6.200638   5.244484
    18  C    6.740342   5.305518   4.691552   3.621302   3.243283
    19  C    4.313581   2.939976   2.668967   2.058395   2.948438
    20  H    4.027084   5.452041   6.356760   7.516866   8.943274
    21  H    0.953499   2.075957   2.683416   3.852148   5.160437
    22  H    2.437465   1.645779   0.944952   1.739746   2.776419
    23  H    3.692655   2.250151   1.600044   0.780041   1.959827
    24  H    5.270557   4.096346   3.082783   2.278060   1.282197
    25  H    5.568369   4.126463   3.469519   2.397844   2.246519
    26  H    7.590152   6.159850   5.312988   4.140418   3.064914
    27  H   10.902110   9.527151   8.560786   7.417096   5.981160
    28  H   11.202732   9.760821   9.046614   7.900226   6.967793
    29  H   13.043116  11.635329  10.717264   9.552617   8.197370
    30  H   11.675420  10.232917   9.452627   8.287160   7.213023
    31  H    8.619286   7.176576   6.461872   5.321987   4.498580
    32  H    3.145140   2.142198   2.583707   2.773126   4.189790
                   11         12         13         14         15
    11  C    0.000000
    12  S    1.944327   0.000000
    13  N    2.718128   1.439837   0.000000
    14  C    4.253127   2.592690   1.589450   0.000000
    15  C    4.784057   3.397739   2.089679   1.078656   0.000000
    16  C    5.632125   4.294259   2.967321   1.889288   0.896681
    17  C    3.687723   3.020595   1.644850   2.202527   1.780776
    18  C    1.917046   3.103879   2.933736   4.457314   4.550127
    19  C    2.901218   4.818222   5.227939   6.815301   7.061488
    20  H   10.157797  11.919492  12.872225  14.405041  14.907263
    21  H    6.486660   8.151957   9.198527  10.687307  11.270659
    22  H    4.205854   5.762371   6.878052   8.324274   8.965115
    23  H    2.557476   4.470233   5.218242   6.786455   7.220106
    24  H    2.271330   3.223168   4.436663   5.727018   6.465299
    25  H    1.427640   3.234012   3.583030   5.171765   5.462557
    26  H    1.529341   1.426592   1.317319   2.906763   3.295819
    27  H    4.841317   2.994352   2.363202   0.953787   1.791235
    28  H    5.411509   4.586324   3.147109   2.847543   1.835043
    29  H    6.915167   5.215251   4.219723   2.664375   2.388959
    30  H    5.702014   4.568590   3.162796   2.390541   1.313124
    31  H    2.929376   2.769393   1.712467   2.855518   2.684928
    32  H    4.565150   6.508000   6.998090   8.586690   8.832544
                   16         17         18         19         20
    16  C    0.000000
    17  C    2.322377   0.000000
    18  C    5.230886   2.932054   0.000000
    19  C    7.784051   5.503062   2.574764   0.000000
    20  H   15.716088  13.534344  10.667620   8.138598   0.000000
    21  H   12.112915  10.037322   7.317567   5.015189   3.841741
    22  H    9.827618   7.859322   5.359512   3.558267   6.253856
    23  H    8.021418   5.860388   3.107019   1.278431   7.694947
    24  H    7.341377   5.664005   3.944498   3.728501   9.138563
    25  H    6.220441   3.997240   1.225763   1.647791   9.537388
    26  H    4.122134   2.185092   1.764814   3.914084  11.611679
    27  H    2.365664   3.155231   5.293792   7.548077  14.913798
    28  H    1.580589   1.723928   4.488422   7.049218  15.154223
    29  H    1.988682   4.153363   6.918839   9.389773  17.069321
    30  H    0.705243   2.136766   5.060517   7.634741  15.666398
    31  H    3.295480   0.979543   1.954648   4.528184  12.585364
    32  H    9.543343   7.247226   4.315952   1.775281   6.606309
                   21         22         23         24         25
    21  H    0.000000
    22  H    2.420268   0.000000
    23  H    4.214067   2.383927   0.000000
    24  H    5.359213   3.033485   2.740187   0.000000
    25  H    6.110892   4.137246   1.897047   3.060947   0.000000
    26  H    7.991677   5.734142   3.930119   3.551583   2.267397
    27  H   11.140941   8.741069   7.398727   6.058895   5.900825
    28  H   11.721147   9.573917   7.521932   7.351593   5.634416
    29  H   13.346632  10.973064   9.437370   8.304496   7.763919
    30  H   12.136041   9.906693   7.982841   7.521726   6.131376
    31  H    9.134046   7.013750   4.934867   5.003402   3.052063
    32  H    4.024779   3.499984   2.231048   4.841575   3.415060
                   26         27         28         29         30
    26  H    0.000000
    27  H    3.644303   0.000000
    28  H    3.905539   3.626133   0.000000
    29  H    5.524197   2.336322   3.531762   0.000000
    30  H    4.172830   3.000783   0.937010   2.598315   0.000000
    31  H    1.565484   3.789584   2.587730   5.073853   3.106629
    32  H    5.682098   9.305097   8.743891  11.164955   9.369248
                   31         32
    31  H    0.000000
    32  H    6.268422   0.000000
 Stoichiometry    C12H13N3OS3
 Framework group  C1[X(C12H13N3OS3)]
 Deg. of freedom    90
 Full point group                 C1      NOp   1
 Largest Abelian subgroup         C1      NOp   1
 Largest concise Abelian subgroup C1      NOp   1
                         Standard orientation:                         
 ---------------------------------------------------------------------
 Center     Atomic      Atomic             Coordinates (Angstroms)
 Number     Number       Type             X           Y           Z
 ---------------------------------------------------------------------
      1          8           0        8.250854   -0.101683   -0.005732
      2          6           0        6.260645   -0.027813   -0.005118
      3          6           0        3.453561    0.846357    0.005303
      4          7           0        5.237815   -0.140787   -0.006696
      5         16           0        5.259881    1.299159    0.010318
      6          6           0        4.131308   -0.742171   -0.015038
      7          7           0        2.732725   -0.385864   -0.010953
      8          6           0        1.794169   -0.903343   -0.016307
      9          6           0        0.639545   -0.693599   -0.009981
     10         16           0       -0.785213   -1.373002   -0.029361
     11          6           0       -1.987738   -0.364078   -0.009393
     12         16           0       -3.768381   -1.144834   -0.021166
     13          7           0       -4.685905   -0.035276   -0.008588
     14          6           0       -6.240864   -0.364577   -0.012794
     15          6           0       -6.668274    0.625749   -0.004181
     16          6           0       -7.423986    1.108261    0.006652
     17          6           0       -5.142984    1.544654    0.012176
     18          6           0       -2.210934    1.539801    0.012868
     19          6           0        0.356459    1.345128    0.011106
     20          1           0        8.150215   -0.998668   -0.016791
     21          1           0        4.366896   -1.666042   -0.026011
     22          1           0        1.952524   -1.834847   -0.028858
     23          1           0        0.531088    0.078865   -0.010519
     24          1           0       -0.865628   -2.011410    1.079691
     25          1           0       -1.209647    0.832835    0.002048
     26          1           0       -3.396035    0.232215   -0.005170
     27          1           0       -6.762678   -1.162902   -0.022601
     28          1           0       -6.604110    2.459531    0.018356
     29          1           0       -8.901461   -0.222750   -0.011519
     30          1           0       -7.264997    1.795298    0.015073
     31          1           0       -4.164779    1.595827    0.013168
     32          1           0        2.103298    1.661622    0.014250
 ---------------------------------------------------------------------
 Rotational constants (GHZ):           1.5793487           0.0772548           0.0736785
 Standard basis: 6-31G(2df,p) (6D, 7F)
 There are   666 symmetry adapted cartesian basis functions of A   symmetry.
 There are   609 symmetry adapted basis functions of A   symmetry.
   609 basis functions,   999 primitive gaussians,   666 cartesian basis functions
    81 alpha electrons       81 beta electrons
       nuclear repulsion energy      1698.8996023263 Hartrees.
 NAtoms=   32 NActive=   32 NUniq=   32 SFac= 1.00D+00 NAtFMM=   60 NAOKFM=F Big=F
 Integral buffers will be    131072 words long.
 Raffenetti 2 integral format.
 Two-electron integral symmetry is turned on.
 One-electron integrals computed using PRISM.
 PrsmSu:  requested number of processors reduced to:  12 ShMem   1 Linda.
 NBasis=   609 RedAO= T EigKep=  8.20D-05  NBF=   609
 NBsUse=   609 1.00D-06 EigRej= -1.00D+00 NBFU=   609
 ExpMin= 1.17D-01 ExpMax= 2.19D+04 ExpMxC= 3.30D+03 IAcc=3 IRadAn=         5 AccDes= 0.00D+00
 Harris functional with IExCor=  402 and IRadAn=       5 diagonalized for initial guess.
 HarFok:  IExCor=  402 AccDes= 0.00D+00 IRadAn=         5 IDoV= 1 UseB2=F ITyADJ=14
 ICtDFT=  3500011 ScaDFX=  1.000000  1.000000  1.000000  1.000000
 FoFCou: FMM=F IPFlag=           0 FMFlag=      100000 FMFlg1=           0
         NFxFlg=           0 DoJE=T BraDBF=F KetDBF=T FulRan=T
         wScrn=  0.000000 ICntrl=       500 IOpCl=  0 I1Cent=   200000004 NGrid=           0
         NMat0=    1 NMatS0=      1 NMatT0=    0 NMatD0=    1 NMtDS0=    0 NMtDT0=    0
 Petite list used in FoFCou.
 Requested convergence on RMS density matrix=1.00D-08 within 128 cycles.
 Requested convergence on MAX density matrix=1.00D-06.
 Requested convergence on             energy=1.00D-06.
 No special actions if energy rises.
 Integral accuracy reduced to 1.0D-05 until final iterations.
 EnCoef did     6 forward-backward iterations
 EnCoef did    10 forward-backward iterations
 EnCoef did    11 forward-backward iterations
 EnCoef did     7 forward-backward iterations
 EnCoef did     3 forward-backward iterations
 EnCoef did     7 forward-backward iterations
 EnCoef did     3 forward-backward iterations
 EnCoef did     6 forward-backward iterations
 EnCoef did     5 forward-backward iterations
 EnCoef did     9 forward-backward iterations
 EnCoef did   100 forward-backward iterations
 EnCoef did   100 forward-backward iterations
 EnCoef did     4 forward-backward iterations
 EnCoef did     3 forward-backward iterations
 EnCoef did     5 forward-backward iterations
 Restarting incremental Fock formation.
 Initial convergence to 1.0D-05 achieved.  Increase integral accuracy.
 Restarting incremental Fock formation.
 SCF Done:  E(RB3LYP) =  -1895.53771676     A.U. after   46 cycles
            NFock= 46  Conv=0.90D-08     -V/T= 1.9972

 **********************************************************************

            Population analysis using the SCF density.

 **********************************************************************

 Orbital symmetries:
       Occupied  (A) (A) (A) (A) (A) (A) (A) (A) (A) (A) (A) (A)
                 (A) (A) (A) (A) (A) (A) (A) (A) (A) (A) (A) (A)
                 (A) (A) (A) (A) (A) (A) (A) (A) (A) (A) (A) (A)
                 (A) (A) (A) (A) (A) (A) (A) (A) (A) (A) (A) (A)
                 (A) (A) (A) (A) (A) (A) (A) (A) (A) (A) (A) (A)
                 (A) (A) (A) (A) (A) (A) (A) (A) (A) (A) (A) (A)
                 (A) (A) (A) (A) (A) (A) (A) (A) (A)
       Virtual   (A) (A) (A) (A) (A) (A) (A) (A) (A) (A) (A) (A)
                 (A) (A) (A) (A) (A) (A) (A) (A) (A) (A) (A) (A)
                 (A) (A) (A) (A) (A) (A) (A) (A) (A) (A) (A) (A)
                 (A) (A) (A) (A) (A) (A) (A) (A) (A) (A) (A) (A)
                 (A) (A) (A) (A) (A) (A) (A) (A) (A) (A) (A) (A)
                 (A) (A) (A) (A) (A) (A) (A) (A) (A) (A) (A) (A)
                 (A) (A) (A) (A) (A) (A) (A) (A) (A) (A) (A) (A)
                 (A) (A) (A) (A) (A) (A) (A) (A) (A) (A) (A) (A)
                 (A) (A) (A) (A) (A) (A) (A) (A) (A) (A) (A) (A)
                 (A) (A) (A) (A) (A) (A) (A) (A) (A) (A) (A) (A)
                 (A) (A) (A) (A) (A) (A) (A) (A) (A) (A) (A) (A)
                 (A) (A) (A) (A) (A) (A) (A) (A) (A) (A) (A) (A)
                 (A) (A) (A) (A) (A) (A) (A) (A) (A) (A) (A) (A)
                 (A) (A) (A) (A) (A) (A) (A) (A) (A) (A) (A) (A)
                 (A) (A) (A) (A) (A) (A) (A) (A) (A) (A) (A) (A)
                 (A) (A) (A) (A) (A) (A) (A) (A) (A) (A) (A) (A)
                 (A) (A) (A) (A) (A) (A) (A) (A) (A) (A) (A) (A)
                 (A) (A) (A) (A) (A) (A) (A) (A) (A) (A) (A) (A)
                 (A) (A) (A) (A) (A) (A) (A) (A) (A) (A) (A) (A)
                 (A) (A) (A) (A) (A) (A) (A) (A) (A) (A) (A) (A)
                 (A) (A) (A) (A) (A) (A) (A) (A) (A) (A) (A) (A)
                 (A) (A) (A) (A) (A) (A) (A) (A) (A) (A) (A) (A)
                 (A) (A) (A) (A) (A) (A) (A) (A) (A) (A) (A) (A)
                 (A) (A) (A) (A) (A) (A) (A) (A) (A) (A) (A) (A)
                 (A) (A) (A) (A) (A) (A) (A) (A) (A) (A) (A) (A)
                 (A) (A) (A) (A) (A) (A) (A) (A) (A) (A) (A) (A)
                 (A) (A) (A) (A) (A) (A) (A) (A) (A) (A) (A) (A)
                 (A) (A) (A) (A) (A) (A) (A) (A) (A) (A) (A) (A)
                 (A) (A) (A) (A) (A) (A) (A) (A) (A) (A) (A) (A)
                 (A) (A) (A) (A) (A) (A) (A) (A) (A) (A) (A) (A)
                 (A) (A) (A) (A) (A) (A) (A) (A) (A) (A) (A) (A)
                 (A) (A) (A) (A) (A) (A) (A) (A) (A) (A) (A) (A)
                 (A) (A) (A) (A) (A) (A) (A) (A) (A) (A) (A) (A)
                 (A) (A) (A) (A) (A) (A) (A) (A) (A) (A) (A) (A)
                 (A) (A) (A) (A) (A) (A) (A) (A) (A) (A) (A) (A)
                 (A) (A) (A) (A) (A) (A) (A) (A) (A) (A) (A) (A)
                 (A) (A) (A) (A) (A) (A) (A) (A) (A) (A) (A) (A)
                 (A) (A) (A) (A) (A) (A) (A) (A) (A) (A) (A) (A)
                 (A) (A) (A) (A) (A) (A) (A) (A) (A) (A) (A) (A)
                 (A) (A) (A) (A) (A) (A) (A) (A) (A) (A) (A) (A)
                 (A) (A) (A) (A) (A) (A) (A) (A) (A) (A) (A) (A)
                 (A) (A) (A) (A) (A) (A) (A) (A) (A) (A) (A) (A)
                 (A) (A) (A) (A) (A) (A) (A) (A) (A) (A) (A) (A)
                 (A) (A) (A) (A) (A) (A) (A) (A) (A) (A) (A) (A)
 The electronic state is 1-A.
 Alpha  occ. eigenvalues --  -89.01893 -88.98005 -88.96788 -19.14219 -14.48398
 Alpha  occ. eigenvalues --  -14.43383 -14.40885 -10.30170 -10.29651 -10.29301
 Alpha  occ. eigenvalues --  -10.28346 -10.28071 -10.26516 -10.23950 -10.23717
 Alpha  occ. eigenvalues --  -10.21290 -10.16546 -10.14040 -10.09174  -8.07964
 Alpha  occ. eigenvalues --   -8.03978  -8.03196  -6.04259  -6.04237  -6.03681
 Alpha  occ. eigenvalues --   -6.00480  -6.00068  -5.99624  -5.99494  -5.99400
 Alpha  occ. eigenvalues --   -5.98627  -1.28137  -1.12196  -1.07544  -0.99556
 Alpha  occ. eigenvalues --   -0.96163  -0.95562  -0.92311  -0.87660  -0.85801
 Alpha  occ. eigenvalues --   -0.82139  -0.79518  -0.76266  -0.74145  -0.71362
 Alpha  occ. eigenvalues --   -0.68514  -0.64754  -0.64093  -0.63576  -0.59511
 Alpha  occ. eigenvalues --   -0.58286  -0.57937  -0.56255  -0.53943  -0.53781
 Alpha  occ. eigenvalues --   -0.52702  -0.49591  -0.48374  -0.47782  -0.45595
 Alpha  occ. eigenvalues --   -0.45350  -0.42906  -0.42073  -0.40829  -0.40376
 Alpha  occ. eigenvalues --   -0.39755  -0.36874  -0.35565  -0.34396  -0.31515
 Alpha  occ. eigenvalues --   -0.29890  -0.28758  -0.28502  -0.27502  -0.25899
 Alpha  occ. eigenvalues --   -0.23488  -0.23200  -0.22314  -0.17738  -0.16902
 Alpha  occ. eigenvalues --   -0.15871
 Alpha virt. eigenvalues --   -0.14000  -0.11899  -0.11153  -0.10512  -0.08458
 Alpha virt. eigenvalues --   -0.08032  -0.07258  -0.06814  -0.04434  -0.01924
 Alpha virt. eigenvalues --   -0.00551   0.00635   0.01864   0.02221   0.03083
 Alpha virt. eigenvalues --    0.05653   0.06966   0.07301   0.09187   0.10795
 Alpha virt. eigenvalues --    0.12037   0.12610   0.13261   0.13364   0.14172
 Alpha virt. eigenvalues --    0.17623   0.18861   0.20058   0.21353   0.21588
 Alpha virt. eigenvalues --    0.21752   0.22305   0.24569   0.25429   0.25513
 Alpha virt. eigenvalues --    0.27021   0.27913   0.29344   0.29780   0.30027
 Alpha virt. eigenvalues --    0.31144   0.31756   0.32949   0.33774   0.35247
 Alpha virt. eigenvalues --    0.35785   0.36609   0.37132   0.37929   0.38910
 Alpha virt. eigenvalues --    0.39299   0.39407   0.40332   0.40506   0.41625
 Alpha virt. eigenvalues --    0.42086   0.42131   0.42590   0.44891   0.45830
 Alpha virt. eigenvalues --    0.46444   0.46496   0.47198   0.48804   0.49628
 Alpha virt. eigenvalues --    0.50244   0.51034   0.52477   0.52822   0.53958
 Alpha virt. eigenvalues --    0.54111   0.55931   0.56447   0.56775   0.57349
 Alpha virt. eigenvalues --    0.57689   0.58828   0.60060   0.60500   0.61210
 Alpha virt. eigenvalues --    0.62166   0.62440   0.63931   0.65114   0.65393
 Alpha virt. eigenvalues --    0.66170   0.66525   0.66869   0.67112   0.67295
 Alpha virt. eigenvalues --    0.68762   0.70090   0.70442   0.70723   0.71340
 Alpha virt. eigenvalues --    0.72357   0.74193   0.74386   0.75014   0.75055
 Alpha virt. eigenvalues --    0.75508   0.76269   0.76760   0.78439   0.78639
 Alpha virt. eigenvalues --    0.79171   0.80055   0.81161   0.82092   0.83427
 Alpha virt. eigenvalues --    0.84541   0.84729   0.85140   0.87031   0.87285
 Alpha virt. eigenvalues --    0.88768   0.89107   0.89349   0.89635   0.90042
 Alpha virt. eigenvalues --    0.91061   0.91981   0.92113   0.93221   0.93665
 Alpha virt. eigenvalues --    0.94340   0.95507   0.96376   0.96993   0.98331
 Alpha virt. eigenvalues --    0.98802   1.00154   1.00578   1.00982   1.01884
 Alpha virt. eigenvalues --    1.02808   1.03206   1.03421   1.03607   1.03960
 Alpha virt. eigenvalues --    1.04504   1.05178   1.07238   1.08348   1.08393
 Alpha virt. eigenvalues --    1.09898   1.10974   1.11415   1.11948   1.13156
 Alpha virt. eigenvalues --    1.14026   1.14644   1.15450   1.16175   1.16346
 Alpha virt. eigenvalues --    1.18028   1.18835   1.19053   1.20308   1.22061
 Alpha virt. eigenvalues --    1.22461   1.23880   1.24396   1.25675   1.26945
 Alpha virt. eigenvalues --    1.27513   1.28702   1.29960   1.30771   1.32529
 Alpha virt. eigenvalues --    1.34098   1.36586   1.37938   1.38327   1.39501
 Alpha virt. eigenvalues --    1.40827   1.41894   1.43336   1.45438   1.46275
 Alpha virt. eigenvalues --    1.47463   1.48507   1.48928   1.49609   1.50969
 Alpha virt. eigenvalues --    1.52330   1.53061   1.53797   1.55659   1.56616
 Alpha virt. eigenvalues --    1.57713   1.58561   1.59164   1.60657   1.61385
 Alpha virt. eigenvalues --    1.63392   1.64524   1.66408   1.67444   1.68239
 Alpha virt. eigenvalues --    1.68816   1.69635   1.70160   1.71959   1.73200
 Alpha virt. eigenvalues --    1.73992   1.74639   1.78015   1.78339   1.80419
 Alpha virt. eigenvalues --    1.81457   1.83829   1.84085   1.84889   1.86606
 Alpha virt. eigenvalues --    1.88468   1.89479   1.90660   1.91670   1.92789
 Alpha virt. eigenvalues --    1.93286   1.94121   1.95752   1.96069   1.98996
 Alpha virt. eigenvalues --    2.00750   2.01335   2.02337   2.02666   2.03978
 Alpha virt. eigenvalues --    2.05760   2.06042   2.08292   2.08662   2.09447
 Alpha virt. eigenvalues --    2.10705   2.11064   2.11200   2.15056   2.15170
 Alpha virt. eigenvalues --    2.16502   2.16747   2.17401   2.19421   2.23819
 Alpha virt. eigenvalues --    2.24172   2.26053   2.26713   2.27546   2.28498
 Alpha virt. eigenvalues --    2.29495   2.30793   2.31439   2.32053   2.32533
 Alpha virt. eigenvalues --    2.34221   2.37213   2.37928   2.38411   2.39240
 Alpha virt. eigenvalues --    2.39728   2.39841   2.42290   2.43801   2.44576
 Alpha virt. eigenvalues --    2.45189   2.46682   2.47897   2.49320   2.51931
 Alpha virt. eigenvalues --    2.55721   2.56785   2.57550   2.58063   2.58870
 Alpha virt. eigenvalues --    2.60613   2.60919   2.62332   2.62809   2.65084
 Alpha virt. eigenvalues --    2.65563   2.66542   2.68709   2.69695   2.70741
 Alpha virt. eigenvalues --    2.73346   2.77379   2.77856   2.78949   2.79517
 Alpha virt. eigenvalues --    2.80050   2.80626   2.80935   2.81273   2.83712
 Alpha virt. eigenvalues --    2.85235   2.85566   2.86779   2.87733   2.88262
 Alpha virt. eigenvalues --    2.89547   2.91680   2.92758   2.92892   2.94185
 Alpha virt. eigenvalues --    2.96003   2.96473   2.97537   2.98942   3.00000
 Alpha virt. eigenvalues --    3.00798   3.02573   3.03126   3.04513   3.04881
 Alpha virt. eigenvalues --    3.05499   3.06495   3.06706   3.07057   3.08201
 Alpha virt. eigenvalues --    3.09025   3.10222   3.12023   3.12704   3.13503
 Alpha virt. eigenvalues --    3.13683   3.16129   3.16472   3.16870   3.17415
 Alpha virt. eigenvalues --    3.18184   3.20745   3.21850   3.23057   3.23910
 Alpha virt. eigenvalues --    3.25158   3.27769   3.29366   3.30018   3.30376
 Alpha virt. eigenvalues --    3.33027   3.34518   3.34594   3.36881   3.37402
 Alpha virt. eigenvalues --    3.38311   3.39244   3.40497   3.42110   3.42671
 Alpha virt. eigenvalues --    3.43555   3.45605   3.46339   3.47825   3.48849
 Alpha virt. eigenvalues --    3.53540   3.53957   3.59313   3.60844   3.61985
 Alpha virt. eigenvalues --    3.62694   3.64408   3.65057   3.66676   3.67332
 Alpha virt. eigenvalues --    3.68083   3.69130   3.70929   3.71547   3.72300
 Alpha virt. eigenvalues --    3.74236   3.80680   3.82813   3.85120   3.85551
 Alpha virt. eigenvalues --    3.86399   3.87023   3.90302   3.91154   3.94068
 Alpha virt. eigenvalues --    3.96955   3.97274   3.98289   4.00202   4.00579
 Alpha virt. eigenvalues --    4.04072   4.04395   4.04790   4.05409   4.06062
 Alpha virt. eigenvalues --    4.06646   4.07510   4.10085   4.11882   4.13094
 Alpha virt. eigenvalues --    4.13299   4.13816   4.15280   4.16041   4.17592
 Alpha virt. eigenvalues --    4.19990   4.21022   4.22434   4.23560   4.24090
 Alpha virt. eigenvalues --    4.25873   4.26610   4.27023   4.27279   4.27878
 Alpha virt. eigenvalues --    4.28287   4.28834   4.29275   4.31803   4.31968
 Alpha virt. eigenvalues --    4.35030   4.36501   4.37904   4.40083   4.40673
 Alpha virt. eigenvalues --    4.41182   4.42276   4.44295   4.45155   4.46839
 Alpha virt. eigenvalues --    4.47347   4.48783   4.49924   4.51190   4.51504
 Alpha virt. eigenvalues --    4.53238   4.55065   4.56561   4.57627   4.60342
 Alpha virt. eigenvalues --    4.61905   4.63700   4.65766   4.67712   4.68066
 Alpha virt. eigenvalues --    4.69260   4.69719   4.71633   4.72302   4.74659
 Alpha virt. eigenvalues --    4.74969   4.76850   4.77416   4.79981   4.80479
 Alpha virt. eigenvalues --    4.81191   4.82815   4.85625   4.85764   4.89647
 Alpha virt. eigenvalues --    4.91250   4.94026   4.96942   5.00192   5.01713
 Alpha virt. eigenvalues --    5.03335   5.04112   5.04880   5.07761   5.09875
 Alpha virt. eigenvalues --    5.10523   5.12636   5.14137   5.15493   5.17716
 Alpha virt. eigenvalues --    5.19943   5.20595   5.23148   5.31551   5.33333
 Alpha virt. eigenvalues --    5.35698   5.39835   5.40978   5.42638   5.44125
 Alpha virt. eigenvalues --    5.50482   5.56099   5.56431   5.57603   5.58212
 Alpha virt. eigenvalues --    5.61257   5.62785   5.72149   5.74408   5.78355
 Alpha virt. eigenvalues --    5.84270   5.84921   5.90461   6.14581   6.31387
 Alpha virt. eigenvalues --    6.33373   6.37959   6.49334   6.49984   6.58130
 Alpha virt. eigenvalues --    6.62013   6.70392   6.88615   7.44926   7.58614
 Alpha virt. eigenvalues --    7.81058   8.44394   8.88800   9.03489  10.05702
 Alpha virt. eigenvalues --   10.45042  10.52468  10.83532  11.06974  11.18705
 Alpha virt. eigenvalues --   11.25841  11.31082  11.35201  11.38553  11.62424
 Alpha virt. eigenvalues --   11.88167  12.11691  12.84257  12.99048  13.66877
 Alpha virt. eigenvalues --   18.86350  28.56923  31.83377
          Condensed to atoms (all electrons):
               1          2          3          4          5          6
     1  O    8.080046   0.119352  -0.000262  -0.000303  -0.011303  -0.000697
     2  C    0.119352   5.870904   0.032276   0.239986   0.232870  -0.144474
     3  C   -0.000262   0.032276   5.789944  -0.249758   0.115543   0.011930
     4  N   -0.000303   0.239986  -0.249758   5.443771   0.278134   0.559906
     5  S   -0.011303   0.232870   0.115543   0.278134  15.589166  -0.157683
     6  C   -0.000697  -0.144474   0.011930   0.559906  -0.157683   5.348626
     7  N    0.000002  -0.001727   0.379763   0.040973  -0.005083   0.273482
     8  C   -0.000000  -0.000273  -0.101032   0.000839   0.001929  -0.083634
     9  C   -0.000000   0.000009  -0.013277  -0.000406  -0.000000   0.009304
    10  S   -0.000000   0.000000  -0.000331   0.000001   0.000004  -0.000007
    11  C   -0.000000   0.000000  -0.000006  -0.000000   0.000000  -0.000000
    12  S    0.000000   0.000000   0.000000   0.000000   0.000000   0.000000
    13  N    0.000000  -0.000000   0.000000   0.000000   0.000000   0.000000
    14  C    0.000000  -0.000000   0.000000   0.000000  -0.000000   0.000000
    15  C    0.000000   0.000000  -0.000000  -0.000000  -0.000000  -0.000000
    16  C    0.000000   0.000000   0.000000   0.000000   0.000000  -0.000000
    17  C    0.000000  -0.000000   0.000000   0.000000   0.000000   0.000000
    18  C    0.000000  -0.000000   0.000027   0.000000   0.000000   0.000000
    19  C   -0.000000  -0.000002  -0.016330   0.000022   0.000293  -0.000999
    20  H    0.273021  -0.007448   0.000048  -0.005694   0.000691   0.000136
    21  H    0.000001   0.011693   0.029536  -0.030607   0.020783   0.257489
    22  H    0.000000   0.000008   0.018765   0.000930   0.000532  -0.044167
    23  H    0.000000  -0.000003   0.003516   0.000073   0.000117  -0.000889
    24  H    0.000000   0.000000   0.000004  -0.000000  -0.000000  -0.000023
    25  H    0.000000  -0.000000   0.000147   0.000000   0.000000   0.000001
    26  H   -0.000000   0.000000  -0.000000  -0.000000  -0.000000  -0.000000
    27  H    0.000000  -0.000000   0.000000   0.000000  -0.000000   0.000000
    28  H    0.000000  -0.000000  -0.000000  -0.000000  -0.000000  -0.000000
    29  H    0.000000   0.000000   0.000000   0.000000  -0.000000   0.000000
    30  H    0.000000   0.000000  -0.000000   0.000000   0.000000  -0.000000
    31  H    0.000000   0.000000   0.000000  -0.000000  -0.000000   0.000000
    32  H    0.000000  -0.000104   0.193423   0.002006   0.000497   0.010516
               7          8          9         10         11         12
     1  O    0.000002  -0.000000  -0.000000  -0.000000  -0.000000   0.000000
     2  C   -0.001727  -0.000273   0.000009   0.000000   0.000000   0.000000
     3  C    0.379763  -0.101032  -0.013277  -0.000331  -0.000006   0.000000
     4  N    0.040973   0.000839  -0.000406   0.000001  -0.000000   0.000000
     5  S   -0.005083   0.001929  -0.000000   0.000004   0.000000   0.000000
     6  C    0.273482  -0.083634   0.009304  -0.000007  -0.000000   0.000000
     7  N    6.178780   0.200626   0.091658   0.009602  -0.000014   0.000000
     8  C    0.200626   5.312135   0.272449  -0.064749   0.002776  -0.000062
     9  C    0.091658   0.272449   5.028333   0.483442  -0.011397   0.001184
    10  S    0.009602  -0.064749   0.483442  15.126330   0.452569  -0.060708
    11  C   -0.000014   0.002776  -0.011397   0.452569   5.473547   0.237155
    12  S    0.000000  -0.000062   0.001184  -0.060708   0.237155  15.679794
    13  N   -0.000000   0.000000   0.000012   0.001515  -0.035352   0.313919
    14  C    0.000000   0.000000  -0.000000  -0.000015   0.001825  -0.044329
    15  C    0.000000  -0.000000  -0.000000  -0.000028   0.000233  -0.005318
    16  C   -0.000000   0.000000   0.000000  -0.000001   0.000023  -0.001785
    17  C   -0.000000  -0.000000   0.000002  -0.000341  -0.002359  -0.025259
    18  C   -0.000015   0.000071   0.000017  -0.023776   0.148695  -0.051607
    19  C    0.005353  -0.000774  -0.049709  -0.000412  -0.025993   0.000492
    20  H   -0.000003   0.000000   0.000000   0.000000   0.000000  -0.000000
    21  H   -0.048006  -0.007000  -0.001760   0.000041   0.000000  -0.000000
    22  H   -0.054107   0.366822  -0.093953  -0.020650   0.000437  -0.000012
    23  H   -0.094775   0.128609   0.171726  -0.107348  -0.004118   0.000249
    24  H    0.000196  -0.002329  -0.043253   0.095764  -0.050988   0.007182
    25  H    0.000080   0.001716   0.014423  -0.047510   0.062179   0.008955
    26  H    0.000000  -0.000003  -0.000259  -0.001314   0.039109  -0.012440
    27  H   -0.000000   0.000000   0.000000   0.000007  -0.000070   0.006780
    28  H    0.000000  -0.000000  -0.000000   0.000000   0.000020  -0.000736
    29  H    0.000000   0.000000  -0.000000   0.000000   0.000000   0.000289
    30  H   -0.000000  -0.000000  -0.000000  -0.000000  -0.000002  -0.000944
    31  H    0.000000   0.000000  -0.000003   0.000609   0.000749   0.005790
    32  H   -0.047857  -0.006234   0.006663   0.000196   0.000138   0.000003
              13         14         15         16         17         18
     1  O    0.000000   0.000000   0.000000   0.000000   0.000000   0.000000
     2  C   -0.000000  -0.000000   0.000000   0.000000  -0.000000  -0.000000
     3  C    0.000000   0.000000  -0.000000   0.000000   0.000000   0.000027
     4  N    0.000000   0.000000  -0.000000   0.000000   0.000000   0.000000
     5  S    0.000000  -0.000000  -0.000000   0.000000   0.000000   0.000000
     6  C    0.000000   0.000000  -0.000000  -0.000000   0.000000   0.000000
     7  N   -0.000000   0.000000   0.000000  -0.000000  -0.000000  -0.000015
     8  C    0.000000   0.000000  -0.000000   0.000000  -0.000000   0.000071
     9  C    0.000012  -0.000000  -0.000000   0.000000   0.000002   0.000017
    10  S    0.001515  -0.000015  -0.000028  -0.000001  -0.000341  -0.023776
    11  C   -0.035352   0.001825   0.000233   0.000023  -0.002359   0.148695
    12  S    0.313919  -0.044329  -0.005318  -0.001785  -0.025259  -0.051607
    13  N    6.741657   0.091366  -0.015262   0.002717   0.227135  -0.005358
    14  C    0.091366   5.911351   0.576660  -0.387221  -0.042837   0.000033
    15  C   -0.015262   0.576660   5.257979  -0.776674   0.212026   0.000131
    16  C    0.002717  -0.387221  -0.776674   7.361871  -0.031900  -0.000073
    17  C    0.227135  -0.042837   0.212026  -0.031900   5.632139  -0.028883
    18  C   -0.005358   0.000033   0.000131  -0.000073  -0.028883   5.966613
    19  C   -0.000029   0.000001   0.000000   0.000000   0.000001   0.001524
    20  H    0.000000   0.000000   0.000000   0.000000   0.000000  -0.000000
    21  H   -0.000000  -0.000000   0.000000   0.000000  -0.000000  -0.000000
    22  H   -0.000000  -0.000000   0.000000   0.000000   0.000000   0.000001
    23  H    0.000013  -0.000000   0.000000   0.000000  -0.000000   0.008990
    24  H   -0.000037  -0.000004   0.000001   0.000000   0.000002  -0.001669
    25  H    0.001089   0.000011  -0.000003  -0.000000   0.001658   0.087454
    26  H   -0.027886   0.004884   0.002836  -0.000104  -0.029704   0.122209
    27  H   -0.037442   0.311130   0.045990  -0.059234   0.013078   0.000005
    28  H    0.021386  -0.026338  -0.141655  -0.195073   0.193905   0.000139
    29  H   -0.000928  -0.027584   0.147446   0.000140   0.003485   0.000000
    30  H    0.009551  -0.013791  -0.021929   0.258807  -0.143822  -0.000044
    31  H   -0.148199   0.013093  -0.005060   0.021379   0.290782   0.030298
    32  H    0.000000  -0.000000  -0.000000  -0.000000   0.000000   0.000622
              19         20         21         22         23         24
     1  O   -0.000000   0.273021   0.000001   0.000000   0.000000   0.000000
     2  C   -0.000002  -0.007448   0.011693   0.000008  -0.000003   0.000000
     3  C   -0.016330   0.000048   0.029536   0.018765   0.003516   0.000004
     4  N    0.000022  -0.005694  -0.030607   0.000930   0.000073  -0.000000
     5  S    0.000293   0.000691   0.020783   0.000532   0.000117  -0.000000
     6  C   -0.000999   0.000136   0.257489  -0.044167  -0.000889  -0.000023
     7  N    0.005353  -0.000003  -0.048006  -0.054107  -0.094775   0.000196
     8  C   -0.000774   0.000000  -0.007000   0.366822   0.128609  -0.002329
     9  C   -0.049709   0.000000  -0.001760  -0.093953   0.171726  -0.043253
    10  S   -0.000412   0.000000   0.000041  -0.020650  -0.107348   0.095764
    11  C   -0.025993   0.000000   0.000000   0.000437  -0.004118  -0.050988
    12  S    0.000492  -0.000000  -0.000000  -0.000012   0.000249   0.007182
    13  N   -0.000029   0.000000  -0.000000  -0.000000   0.000013  -0.000037
    14  C    0.000001   0.000000  -0.000000  -0.000000  -0.000000  -0.000004
    15  C    0.000000   0.000000   0.000000   0.000000   0.000000   0.000001
    16  C    0.000000   0.000000   0.000000   0.000000   0.000000   0.000000
    17  C    0.000001   0.000000  -0.000000   0.000000  -0.000000   0.000002
    18  C    0.001524  -0.000000  -0.000000   0.000001   0.008990  -0.001669
    19  C    6.308475   0.000000   0.000054   0.002743   0.015501  -0.001385
    20  H    0.000000   0.462877   0.000087  -0.000000  -0.000000  -0.000000
    21  H    0.000054   0.000087   0.659936   0.017327  -0.000027  -0.000001
    22  H    0.002743  -0.000000   0.017327   0.709571   0.021477   0.000347
    23  H    0.015501  -0.000000  -0.000027   0.021477   0.877798   0.011068
    24  H   -0.001385  -0.000000  -0.000001   0.000347   0.011068   0.864776
    25  H    0.083430  -0.000000  -0.000000  -0.000078  -0.020007   0.001334
    26  H    0.001007  -0.000000   0.000000   0.000001  -0.000393   0.000282
    27  H    0.000000   0.000000  -0.000000  -0.000000  -0.000000  -0.000000
    28  H   -0.000000   0.000000   0.000000   0.000000   0.000000   0.000000
    29  H    0.000000   0.000000   0.000000  -0.000000  -0.000000  -0.000000
    30  H   -0.000000   0.000000   0.000000   0.000000   0.000000   0.000000
    31  H    0.000311  -0.000000  -0.000000  -0.000000  -0.000016  -0.000004
    32  H    0.073391  -0.000000  -0.000805  -0.001742   0.012277   0.000003
              25         26         27         28         29         30
     1  O    0.000000  -0.000000   0.000000   0.000000   0.000000   0.000000
     2  C   -0.000000   0.000000  -0.000000  -0.000000   0.000000   0.000000
     3  C    0.000147  -0.000000   0.000000  -0.000000   0.000000  -0.000000
     4  N    0.000000  -0.000000   0.000000  -0.000000   0.000000   0.000000
     5  S    0.000000  -0.000000  -0.000000  -0.000000  -0.000000   0.000000
     6  C    0.000001  -0.000000   0.000000  -0.000000   0.000000  -0.000000
     7  N    0.000080   0.000000  -0.000000   0.000000   0.000000  -0.000000
     8  C    0.001716  -0.000003   0.000000  -0.000000   0.000000  -0.000000
     9  C    0.014423  -0.000259   0.000000  -0.000000  -0.000000  -0.000000
    10  S   -0.047510  -0.001314   0.000007   0.000000   0.000000  -0.000000
    11  C    0.062179   0.039109  -0.000070   0.000020   0.000000  -0.000002
    12  S    0.008955  -0.012440   0.006780  -0.000736   0.000289  -0.000944
    13  N    0.001089  -0.027886  -0.037442   0.021386  -0.000928   0.009551
    14  C    0.000011   0.004884   0.311130  -0.026338  -0.027584  -0.013791
    15  C   -0.000003   0.002836   0.045990  -0.141655   0.147446  -0.021929
    16  C   -0.000000  -0.000104  -0.059234  -0.195073   0.000140   0.258807
    17  C    0.001658  -0.029704   0.013078   0.193905   0.003485  -0.143822
    18  C    0.087454   0.122209   0.000005   0.000139   0.000000  -0.000044
    19  C    0.083430   0.001007   0.000000  -0.000000   0.000000  -0.000000
    20  H   -0.000000  -0.000000   0.000000   0.000000   0.000000   0.000000
    21  H   -0.000000   0.000000  -0.000000   0.000000   0.000000   0.000000
    22  H   -0.000078   0.000001  -0.000000   0.000000  -0.000000   0.000000
    23  H   -0.020007  -0.000393  -0.000000   0.000000  -0.000000   0.000000
    24  H    0.001334   0.000282  -0.000000   0.000000  -0.000000   0.000000
    25  H    0.539067  -0.021963   0.000000  -0.000008   0.000000  -0.000000
    26  H   -0.021963   0.519970   0.000805  -0.000793   0.000008  -0.000333
    27  H    0.000000   0.000805   0.563979  -0.002345   0.039795  -0.003376
    28  H   -0.000008  -0.000793  -0.002345   1.054579  -0.006609   0.117111
    29  H    0.000000   0.000008   0.039795  -0.006609   0.996463  -0.024426
    30  H   -0.000000  -0.000333  -0.003376   0.117111  -0.024426   0.951362
    31  H   -0.001360   0.021396  -0.000395  -0.035039   0.000003   0.000187
    32  H   -0.001271  -0.000005  -0.000000   0.000000  -0.000000   0.000000
              31         32
     1  O    0.000000   0.000000
     2  C    0.000000  -0.000104
     3  C    0.000000   0.193423
     4  N   -0.000000   0.002006
     5  S   -0.000000   0.000497
     6  C    0.000000   0.010516
     7  N    0.000000  -0.047857
     8  C    0.000000  -0.006234
     9  C   -0.000003   0.006663
    10  S    0.000609   0.000196
    11  C    0.000749   0.000138
    12  S    0.005790   0.000003
    13  N   -0.148199   0.000000
    14  C    0.013093  -0.000000
    15  C   -0.005060  -0.000000
    16  C    0.021379  -0.000000
    17  C    0.290782   0.000000
    18  C    0.030298   0.000622
    19  C    0.000311   0.073391
    20  H   -0.000000  -0.000000
    21  H   -0.000000  -0.000805
    22  H   -0.000000  -0.001742
    23  H   -0.000016   0.012277
    24  H   -0.000004   0.000003
    25  H   -0.001360  -0.001271
    26  H    0.021396  -0.000005
    27  H   -0.000395  -0.000000
    28  H   -0.035039   0.000000
    29  H    0.000003  -0.000000
    30  H    0.000187   0.000000
    31  H    0.685171  -0.000000
    32  H   -0.000000   0.677918
 Mulliken charges:
               1
     1  O   -0.459858
     2  C   -0.353067
     3  C   -0.193926
     4  N    0.720128
     5  S   -0.066491
     6  C   -0.038818
     7  N    0.071072
     8  C   -0.021881
     9  C    0.134793
    10  S    0.157112
    11  C   -0.289157
    12  S   -0.058591
    13  N   -0.139866
    14  C   -0.368235
    15  C    0.722627
    16  C   -0.192873
    17  C   -0.269109
    18  C   -0.255408
    19  C   -0.396964
    20  H    0.276285
    21  H    0.091260
    22  H    0.075748
    23  H   -0.023839
    24  H    0.118735
    25  H    0.290654
    26  H    0.382685
    27  H    0.121294
    28  H    0.021453
    29  H   -0.128082
    30  H   -0.128350
    31  H    0.120306
    32  H    0.080365
 Sum of Mulliken charges =  -0.00000
 Mulliken charges with hydrogens summed into heavy atoms:
               1
     1  O   -0.183574
     2  C   -0.353067
     3  C   -0.113561
     4  N    0.720128
     5  S   -0.066491
     6  C    0.052442
     7  N    0.071072
     8  C    0.053868
     9  C    0.110954
    10  S    0.275847
    11  C   -0.289157
    12  S   -0.058591
    13  N    0.242819
    14  C   -0.246942
    15  C    0.722627
    16  C   -0.427852
    17  C   -0.148803
    18  C    0.035246
    19  C   -0.396964
 Electronic spatial extent (au):  <R**2>=          13273.7445
 Charge=             -0.0000 electrons
 Dipole moment (field-independent basis, Debye):
    X=              5.3291    Y=             -7.7135    Z=              0.5850  Tot=              9.3936
 Quadrupole moment (field-independent basis, Debye-Ang):
   XX=           -208.5071   YY=           -130.3443   ZZ=           -136.4869
   XY=             -4.7027   XZ=             -0.5218   YZ=             -1.4339
 Traceless Quadrupole moment (field-independent basis, Debye-Ang):
   XX=            -50.0610   YY=             28.1018   ZZ=             21.9592
   XY=             -4.7027   XZ=             -0.5218   YZ=             -1.4339
 Octapole moment (field-independent basis, Debye-Ang**2):
  XXX=            198.8573  YYY=            -45.2259  ZZZ=              0.6078  XYY=             60.2918
  XXY=           -163.6495  XXZ=              0.6807  XZZ=             27.4593  YZZ=            -12.4723
  YYZ=              4.6786  XYZ=              0.7775
 Hexadecapole moment (field-independent basis, Debye-Ang**3):
 XXXX=         -23694.1669 YYYY=          -1017.0991 ZZZZ=           -148.6890 XXXY=           -339.7031
 XXXZ=             -3.8796 YYYX=             78.2431 YYYZ=             -7.1038 ZZZX=             -1.4360
 ZZZY=             -2.1431 XXYY=          -2829.3097 XXZZ=          -2892.0488 YYZZ=           -203.2943
 XXYZ=              8.7840 YYXZ=             -7.0732 ZZXY=              7.0413
 N-N= 1.698899602326D+03 E-N=-7.870448506284D+03  KE= 1.900820384584D+03
 PrsmSu:  requested number of processors reduced to:  13 ShMem   1 Linda.
 Calling FoFJK, ICntrl=      2127 FMM=F ISym2X=0 I1Cent= 0 IOpClX= 0 NMat=1 NMatS=1 NMatT=0.
 ***** Axes restored to original set *****
 -------------------------------------------------------------------
 Center     Atomic                   Forces (Hartrees/Bohr)
 Number     Number              X              Y              Z
 -------------------------------------------------------------------
      1        8           0.016880678   -0.039360620    0.056377177
      2        6          -0.769170973    0.130755387   -0.182215858
      3        6           0.139533566   -0.104605631    0.149483589
      4        7           0.700265712    0.026511364   -0.038565616
      5       16          -0.148824431   -0.181377870    0.240695808
      6        6           0.094753092    0.018554580   -0.023177817
      7        7          -0.637465817   -0.046648750    0.057816680
      8        6           0.264572804    0.103964426   -0.153801417
      9        6           0.303406909    0.156508307   -0.202363956
     10       16           0.070481563    0.028633021   -0.111241359
     11        6           0.068472091   -0.092953819    0.112753342
     12       16          -0.036736026    0.188961066   -0.250797912
     13        7           0.137341729   -0.126927029    0.165049644
     14        6          -0.119800897    0.340222934   -0.445068321
     15        6          -0.866761193    0.572079514   -0.762814746
     16        6           1.465625351   -0.460260949    0.626800856
     17        6           0.072309657   -0.025898883    0.035233645
     18        6           0.023342003    0.052583565   -0.074987432
     19        6          -0.028610160   -0.021674085    0.048199358
     20        1           0.026516828    0.048418835   -0.064521355
     21        1           0.051222717    0.084476439   -0.107637220
     22        1           0.046402593    0.099131286   -0.127659679
     23        1          -0.132062816   -0.311134416    0.398480239
     24        1           0.010399964    0.056388146    0.017890673
     25        1          -0.033756167   -0.016266758    0.027349062
     26        1          -0.087894525   -0.042653114    0.046951624
     27        1           0.089198960    0.057383096   -0.085278274
     28        1          -0.106361399   -0.029569568    0.017259120
     29        1          -0.034880128   -0.017449657    0.023068865
     30        1          -0.434491272   -0.445875246    0.598235481
     31        1          -0.119606328   -0.012642060    0.030002893
     32        1          -0.024304085    0.010726489   -0.021517096
 -------------------------------------------------------------------
 Cartesian Forces:  Max     1.465625351 RMS     0.290453068

 GradGradGradGradGradGradGradGradGradGradGradGradGradGradGradGradGradGrad
 Berny optimization.
 FormGI is forming the generalized inverse of G from B-inverse, IUseBI=4.
 Internal  Forces:  Max     1.812943808 RMS     0.196184973
 Search for a local minimum.
 Step number   1 out of a maximum of  172
 All quantities printed in internal units (Hartrees-Bohrs-Radians)
 Mixed Optimization -- RFO/linear search
 Second derivative matrix not updated -- first step.
 ITU=  0
     Eigenvalues ---    0.00230   0.00230   0.00230   0.00230   0.00230
     Eigenvalues ---    0.00359   0.00799   0.00919   0.01223   0.02285
     Eigenvalues ---    0.02379   0.02386   0.02422   0.02814   0.02885
     Eigenvalues ---    0.03299   0.03415   0.03636   0.04048   0.04197
     Eigenvalues ---    0.04388   0.04439   0.04738   0.04993   0.05084
     Eigenvalues ---    0.05324   0.05557   0.06034   0.06078   0.06299
     Eigenvalues ---    0.06741   0.08747   0.09026   0.09546   0.11193
     Eigenvalues ---    0.12786   0.13432   0.15715   0.15999   0.15999
     Eigenvalues ---    0.16000   0.16000   0.16000   0.16000   0.16000
     Eigenvalues ---    0.16000   0.16000   0.16000   0.16067   0.17393
     Eigenvalues ---    0.19398   0.19724   0.20549   0.21204   0.21324
     Eigenvalues ---    0.21999   0.22000   0.22000   0.22002   0.22010
     Eigenvalues ---    0.22876   0.23475   0.23914   0.24010   0.24336
     Eigenvalues ---    0.24994   0.24999   0.25000   0.25000   0.31644
     Eigenvalues ---    0.34144   0.35483   0.38179   0.51474   0.55594
     Eigenvalues ---    0.56831   0.56896   0.57523   0.58840   0.66261
     Eigenvalues ---    0.66670   0.76244   1.00625   1.19329   1.22743
     Eigenvalues ---    1.79660   1.83831   2.08529   2.41693   7.65895
 RFO step:  Lambda=-1.38458207D+00 EMin= 2.30000000D-03
 Linear search not attempted -- first point.
 Maximum step size (   0.300) exceeded in Quadratic search.
    -- Step size scaled by   0.464
 Iteration  1 RMS(Cart)=  0.10779428 RMS(Int)=  0.00199044
 Iteration  2 RMS(Cart)=  0.00534136 RMS(Int)=  0.00006255
 Iteration  3 RMS(Cart)=  0.00000930 RMS(Int)=  0.00006239
 Iteration  4 RMS(Cart)=  0.00000000 RMS(Int)=  0.00006239
 Variable       Old X    -DE/DX   Delta X   Delta X   Delta X     New X
                                 (Linear)    (Quad)   (Total)
    R1        3.76354  -0.05023   0.00000  -0.01581  -0.01581   3.74773
    R2        1.70582   0.06109   0.00000   0.01379   0.01380   1.71962
    R3        1.94463   0.63599   0.00000   0.07758   0.07773   2.02236
    R4        3.14094   0.15554   0.00000   0.02793   0.02757   3.16851
    R5        4.01458   0.02490   0.00000   0.00803   0.00803   4.02260
    R6        3.51908   0.11365   0.00000   0.02385   0.02376   3.54283
    R7        3.26391   0.13003   0.00000   0.03874   0.03873   3.30264
    R8        2.69790  -0.02436   0.00000  -0.00874  -0.00875   2.68915
    R9        2.98071  -0.03325   0.00000  -0.01041  -0.01041   2.97029
   R10        2.72161   0.21363   0.00000   0.04708   0.04739   2.76900
   R11        2.37992   0.06401   0.00000   0.02021   0.02030   2.40022
   R12        2.72737  -0.03487   0.00000  -0.00613  -0.00607   2.72130
   R13        1.80185   0.14361   0.00000   0.03408   0.03408   1.83594
   R14        2.02536   0.55563   0.00000   0.07424   0.07424   2.09960
   R15        2.21766   0.34604   0.00000   0.06224   0.06224   2.27990
   R16        1.78570   0.16810   0.00000   0.03950   0.03950   1.82520
   R17        2.98308   0.09768   0.00000   0.02334   0.02334   3.00641
   R18        1.47406   0.57961   0.00000   0.10288   0.10288   1.57695
   R19        2.96656   0.08493   0.00000   0.02009   0.02009   2.98666
   R20        2.42300   0.05952   0.00000   0.01622   0.01622   2.43922
   R21        3.67425  -0.04205   0.00000  -0.01251  -0.01251   3.66174
   R22        2.69785  -0.02359   0.00000  -0.00720  -0.00720   2.69065
   R23        2.72090   0.26422   0.00000   0.05124   0.05124   2.77214
   R24        2.69587   0.10462   0.00000   0.03051   0.03051   2.72637
   R25        3.00363  -0.02894   0.00000  -0.00635  -0.00633   2.99730
   R26        3.10832   0.12438   0.00000   0.02526   0.02526   3.13358
   R27        2.03836   0.58593   0.00000   0.08541   0.08540   2.12377
   R28        1.80240   0.13040   0.00000   0.03096   0.03096   1.83336
   R29        1.69448   1.81294   0.00000   0.09295   0.09295   1.78743
   R30        3.36518   0.00016   0.00000   0.00184   0.00182   3.36700
   R31        3.75806  -0.04203   0.00000  -0.01364  -0.01364   3.74442
   R32        1.33272   0.94639   0.00000   0.13615   0.13615   1.46886
   R33        1.85107   0.10000   0.00000   0.02441   0.02441   1.87548
   R34        2.31636  -0.06702   0.00000  -0.01926  -0.01926   2.29709
   R35        2.41588   0.05755   0.00000   0.01687   0.01687   2.43275
   R36        1.77069   0.11072   0.00000   0.03215   0.03215   1.80284
    A1        2.25403   0.01000   0.00000   0.00066   0.00083   2.25486
    A2        2.55692  -0.03082   0.00000  -0.01184  -0.01166   2.54526
    A3        2.69158   0.02491   0.00000   0.00389   0.00403   2.69561
    A4        1.41319   0.05557   0.00000   0.00898   0.00899   1.42217
    A5        2.34570   0.01426   0.00000  -0.00153  -0.00158   2.34411
    A6        2.35274  -0.02983   0.00000  -0.00445  -0.00443   2.34831
    A7        2.51726  -0.02575   0.00000  -0.00453  -0.00455   2.51270
    A8        1.58475   0.01556   0.00000   0.00598   0.00602   1.59076
    A9        2.75373   0.15680   0.00000   0.02562   0.02526   2.77899
   A10        2.08399   0.04532   0.00000   0.00360   0.00340   2.08739
   A11        1.97130   0.13970   0.00000   0.01596   0.01577   1.98707
   A12        1.30985  -0.05652   0.00000  -0.00531  -0.00524   1.30460
   A13        1.47616  -0.04438   0.00000  -0.00727  -0.00714   1.46902
   A14        2.39424  -0.07955   0.00000  -0.01876  -0.01870   2.37554
   A15        1.81901   0.05738   0.00000   0.01369   0.01363   1.83264
   A16        2.06993   0.02217   0.00000   0.00507   0.00507   2.07500
   A17        2.60397  -0.09126   0.00000  -0.02604  -0.02611   2.57787
   A18        2.38821   0.01477   0.00000   0.00404   0.00397   2.39218
   A19        2.45794  -0.12303   0.00000  -0.03555  -0.03555   2.42239
   A20        1.90633   0.06516   0.00000   0.01887   0.01887   1.92520
   A21        1.91892   0.05787   0.00000   0.01668   0.01668   1.93560
   A22        2.51670  -0.00708   0.00000  -0.00205  -0.00205   2.51465
   A23        1.88998  -0.01065   0.00000  -0.00324  -0.00324   1.88674
   A24        1.87623   0.01788   0.00000   0.00533   0.00533   1.88156
   A25        1.99831  -0.07447   0.00000  -0.02127  -0.02127   1.97704
   A26        1.83411   0.01281   0.00000   0.00353   0.00354   1.83765
   A27        1.83481   0.02215   0.00000   0.00639   0.00639   1.84120
   A28        2.03016   0.01384   0.00000   0.00400   0.00400   2.03416
   A29        1.69253  -0.00542   0.00000  -0.00155  -0.00155   1.69098
   A30        2.56046  -0.00844   0.00000  -0.00246  -0.00246   2.55801
   A31        1.84845   0.01241   0.00000   0.00359   0.00359   1.85203
   A32        0.89347  -0.03126   0.00000  -0.00945  -0.00945   0.88402
   A33        0.95498   0.04368   0.00000   0.01304   0.01304   0.96802
   A34        2.05300  -0.04965   0.00000  -0.00906  -0.00908   2.04393
   A35        2.73227  -0.02973   0.00000  -0.00341  -0.00343   2.72884
   A36        1.49791   0.07938   0.00000   0.01248   0.01250   1.51042
   A37        1.76951  -0.08129   0.00000  -0.01221  -0.01220   1.75731
   A38        2.35840   0.00595   0.00000  -0.00431  -0.00431   2.35408
   A39        2.15527   0.07533   0.00000   0.01652   0.01651   2.17178
   A40        2.54649   0.14742   0.00000   0.03612   0.03613   2.58262
   A41        1.70564  -0.06501   0.00000  -0.00704  -0.00706   1.69858
   A42        2.03096  -0.08241   0.00000  -0.02908  -0.02907   2.00189
   A43        1.83991   0.02913   0.00000   0.00874   0.00874   1.84865
   A44        1.91173   0.00542   0.00000   0.00163   0.00163   1.91336
   A45        2.53153  -0.03456   0.00000  -0.01038  -0.01038   2.52115
   A46        1.31011   0.06690   0.00000   0.00678   0.00676   1.31686
   A47        1.34148   0.03395   0.00000   0.01685   0.01686   1.35833
   A48        2.65158   0.10086   0.00000   0.02362   0.02361   2.67519
   A49        1.60921  -0.15415   0.00000  -0.04372  -0.04372   1.56549
   A50        2.58608  -0.01496   0.00000  -0.00449  -0.00449   2.58159
   A51        3.28871   0.01590   0.00000   0.00861   0.00846   3.29717
   A52        3.29517   0.01300   0.00000   0.00643   0.00649   3.30166
   A53        3.13911  -0.03115   0.00000  -0.01041  -0.01041   3.12870
   A54        3.14145   0.00377   0.00000   0.00124   0.00125   3.14270
   A55        3.14058  -0.00096   0.00000  -0.00032  -0.00032   3.14026
   A56        3.15943   0.02756   0.00000   0.00922   0.00922   3.16864
    D1       -0.00149   0.00069   0.00000   0.00021   0.00021  -0.00128
    D2       -3.14129   0.00398   0.00000   0.00127   0.00127  -3.14002
    D3        3.14133  -0.00017   0.00000  -0.00006  -0.00006   3.14127
    D4       -0.00113   0.00004   0.00000   0.00004   0.00005  -0.00108
    D5       -0.00084   0.00025   0.00000   0.00007   0.00007  -0.00078
    D6       -0.00207  -0.00020   0.00000  -0.00005  -0.00005  -0.00212
    D7       -0.00179   0.00001   0.00000  -0.00002  -0.00003  -0.00182
    D8       -3.14104   0.00229   0.00000   0.00080   0.00080  -3.14024
    D9       -3.14075   0.00250   0.00000   0.00082   0.00082  -3.13993
   D10        0.00094  -0.00024   0.00000  -0.00007  -0.00007   0.00087
   D11        3.14049  -0.00296   0.00000  -0.00098  -0.00098   3.13951
   D12        3.13963   0.00038   0.00000   0.00013   0.00013   3.13976
   D13       -0.00383  -0.00144   0.00000  -0.00048  -0.00048  -0.00431
   D14        0.00131  -0.00032   0.00000  -0.00010  -0.00010   0.00121
   D15       -3.14064  -0.00014   0.00000  -0.00007  -0.00007  -3.14071
   D16       -3.14075   0.00042   0.00000   0.00012   0.00011  -3.14063
   D17        0.00196   0.00082   0.00000   0.00025   0.00025   0.00221
   D18       -0.00137   0.00036   0.00000   0.00011   0.00011  -0.00126
   D19       -0.00148   0.00092   0.00000   0.00030   0.00029  -0.00119
   D20        3.14123   0.00132   0.00000   0.00043   0.00043  -3.14153
   D21       -3.13911  -0.00033   0.00000  -0.00012  -0.00012  -3.13924
[...]
   D17        0.02800   0.02666  -0.00340   0.00000  -0.00335   0.02465
   D18       -0.04754  -0.05093   0.00755   0.00000   0.00749  -0.04005
   D19       -0.09117  -0.28655   0.01212   0.00000   0.01205  -0.07912
   D20        3.12798  -0.05278   0.00211   0.00000   0.00201   3.12998
   D21       -3.03808   0.19195  -0.01662   0.00000  -0.01663  -3.05471
   D22        0.02769  -0.03604  -0.00762   0.00000  -0.00773   0.01996
   D23       -0.11285  -0.53286   0.00400   0.00000   0.00403  -0.10882
   D24        3.11233  -0.49050  -0.00707   0.00000  -0.00702   3.10531
   D25        3.00034  -0.32443   0.01340   0.00000   0.01335   3.01370
   D26       -0.05766  -0.28207   0.00233   0.00000   0.00230  -0.05536
   D27       -3.07599  -0.14890  -0.01012   0.00000  -0.01015  -3.08613
   D28       -0.00305  -0.41152  -0.01149   0.00000  -0.01147  -0.01452
   D29       -0.02859  -0.15062   0.00241   0.00000   0.00240  -0.02619
   D30        3.04434  -0.41324   0.00105   0.00000   0.00107   3.04542
   D31       -3.11022  -0.05150   0.00321   0.00000   0.00324  -3.10698
   D32        1.33628  -0.04332  -0.01550   0.00000  -0.01557   1.32071
   D33        0.12873   0.05198   0.00222   0.00000   0.00228   0.13101
   D34       -1.70796   0.06016  -0.01649   0.00000  -0.01653  -1.72448
   D35        3.12953  -0.00011  -0.00400   0.00000  -0.00388   3.12565
   D36        0.02050   0.00689  -0.00362   0.00000  -0.00351   0.01699
   D37       -1.10905  -0.00642  -0.00071   0.00000  -0.00082  -1.10987
   D38        2.06510   0.00058  -0.00033   0.00000  -0.00045   2.06465
   D39        3.13601  -0.00344   0.00303   0.00000   0.00303   3.13904
   D40       -3.08469   0.00214  -0.00055   0.00000  -0.00055  -3.08524
   D41       -0.06418  -0.00186   0.00281   0.00000   0.00281  -0.06137
   D42       -0.00170   0.00372  -0.00076   0.00000  -0.00077  -0.00247
   D43        3.06253   0.00234  -0.00015   0.00000  -0.00014   3.06239
   D44       -0.02285   0.00010   0.00064   0.00000   0.00064  -0.02221
   D45       -3.12612  -0.00342  -0.00107   0.00000  -0.00107  -3.12719
   D46        0.00935  -0.00523  -0.00039   0.00000  -0.00039   0.00896
   D47        3.09233   0.00424   0.00150   0.00000   0.00149   3.09382
   D48       -0.05539   0.00243   0.00217   0.00000   0.00218  -0.05321
   D49       -3.13384   0.00272   0.00003   0.00000   0.00006  -3.13379
   D50       -0.01212   0.00143   0.00013   0.00000   0.00013  -0.01199
   D51        0.00935   0.00305  -0.00007   0.00000  -0.00004   0.00931
   D52        3.13107   0.00175   0.00003   0.00000   0.00004   3.13111
   D53        3.13768  -0.00120  -0.00025   0.00000  -0.00028   3.13741
   D54       -0.01350  -0.00014   0.00140   0.00000   0.00144  -0.01206
   D55       -0.00951  -0.00286   0.00037   0.00000   0.00036  -0.00916
   D56        3.12249  -0.00181   0.00202   0.00000   0.00207   3.12456
   D57        3.13976   0.00243   0.00183   0.00000   0.00181   3.14157
   D58       -0.01467  -0.00398   0.00085   0.00000   0.00084  -0.01383
   D59        0.01971   0.00356   0.00195   0.00000   0.00195   0.02167
   D60       -3.13472  -0.00284   0.00097   0.00000   0.00098  -3.13374
   D61       -0.00029   0.01258   0.00050   0.00000   0.00052   0.00022
   D62       -3.12737   0.00732   0.00008   0.00000   0.00008  -3.12730
   D63       -3.12878   0.02241   0.00176   0.00000   0.00176  -3.12701
   D64        0.02733   0.01716   0.00134   0.00000   0.00132   0.02865
   D65        0.00890   0.00180  -0.00029   0.00000  -0.00027   0.00862
   D66       -0.01572   0.00430   0.00131   0.00000   0.00130  -0.01442
   D67       -3.14146  -0.00884  -0.00069   0.00000  -0.00070   3.14102
   D68        3.11711  -0.00635   0.00090   0.00000   0.00087   3.11798
   D69        0.01758   0.03289   0.00203   0.00000   0.00202   0.01960
   D70       -3.10509   0.02100   0.00197   0.00000   0.00198  -3.10311
         Item               Value     Threshold  Converged?
 Maximum Force            3.449287     0.000450     NO 
 RMS     Force            0.567088     0.000300     NO 
 Maximum Displacement     0.586094     0.001800     NO 
 RMS     Displacement     0.122730     0.001200     NO 
 Predicted change in Energy=-3.883960D-01
 GradGradGradGradGradGradGradGradGradGradGradGradGradGradGradGradGradGrad

                          Input orientation:                          
 ---------------------------------------------------------------------
 Center     Atomic      Atomic             Coordinates (Angstroms)
 Number     Number       Type             X           Y           Z
 ---------------------------------------------------------------------
      1          8           0        3.495602   -0.673617    1.627695
      2          6           0        4.667536   -1.209176    2.031832
      3          6           0        7.456258   -2.586596    3.244681
      4          7           0        5.974772   -1.209020    1.815228
      5         16           0        5.497676   -2.342064    3.171746
      6          6           0        7.219558   -1.062818    1.432891
      7          7           0        8.122304   -1.802615    2.265161
      8          6           0        9.452101   -1.739765    2.139976
      9          6           0       10.240295   -2.367688    3.083211
     10         16           0       11.925842   -2.187148    2.923996
     11          6           0       12.845444   -3.107061    4.190782
     12         16           0       14.585461   -2.886810    3.937094
     13          7           0       15.219889   -3.853402    5.267197
     14          6           0       16.525160   -3.889729    5.379398
     15          6           0       16.766458   -4.729879    6.502442
     16          6           0       17.745745   -5.242270    7.228236
     17          6           0       15.420879   -5.134021    7.003750
     18          6           0       12.460863   -3.930272    5.153984
     19          6           0        8.101855   -2.599167    4.402835
     20          1           0        3.328607   -0.028661    0.882315
     21          1           0        7.537256   -0.418298    0.637596
     22          1           0        9.801675   -1.125151    1.322238
     23          1           0        9.499619   -2.860453    3.883499
     24          1           0       12.375329   -0.930503    3.328293
     25          1           0       11.417843   -3.991750    5.243791
     26          1           0       13.525685   -4.214155    5.530671
     27          1           0       17.208084   -3.382286    4.712500
     28          1           0       15.801702   -5.793801    7.783443
     29          1           0       18.770072   -5.067083    7.047171
     30          1           0       17.003537   -5.843025    7.957917
     31          1           0       14.350411   -5.206344    7.080189
     32          1           0        8.259802   -3.495649    3.825522
 ---------------------------------------------------------------------
                    Distance matrix (angstroms):
                    1          2          3          4          5
     1  O    0.000000
     2  C    1.350400   0.000000
     3  C    4.686250   3.338452   0.000000
     4  N    2.543248   1.325059   2.477066   0.000000
     5  S    3.029209   1.808859   1.975136   1.830724   0.000000
     6  C    3.749303   2.625446   2.379184   1.310363   2.761335
     7  N    4.804932   3.513122   1.420459   2.273035   2.828705
     8  C    6.072807   4.815110   2.433288   3.532559   4.130956
     9  C    7.104878   5.788194   2.797294   4.598367   4.743514
    10  S    8.662570   7.378034   4.498842   6.131993   6.434804
    11  C    9.995530   8.668403   5.496300   7.513452   7.457436
    12  S   11.541946  10.237661   7.169037   9.025589   9.136210
    13  N   12.681322  11.349523   8.122151  10.216704  10.059647
    14  C   13.935137  12.609314   9.407452  11.454266  11.352286
    15  C   14.708230  13.370325  10.093883  12.281160  11.990857
    16  C   15.978274  14.639262  11.348782  13.569214  13.224277
    17  C   13.820616  12.480335   9.168160  11.469757  10.997693
    18  C   10.169387   8.825426   5.522406   7.786006   7.411994
    19  C    5.711979   4.398667   1.325999   3.626665   2.891960
    20  H    0.999722   2.123143   5.400121   3.043972   3.911289
    21  H    4.168987   3.287047   3.391898   2.110312   3.779244
    22  H    6.329593   5.183625   3.366392   3.859438   4.840038
    23  H    6.776365   5.431795   2.158334   4.407893   4.097666
    24  H    9.044754   7.821031   5.191040   6.582862   7.022758
    25  H    9.319231   7.976593   4.654573   7.008970   6.485616
    26  H   11.330101   9.986920   6.686751   8.935974   8.574274
    27  H   14.313807  13.006680   9.893721  11.802736  11.857050
    28  H   14.681608  13.344267  10.026612  12.377737  11.804880
    29  H   16.792341  15.456991  12.190739  14.351919  14.092592
    30  H   15.787932  14.448804  11.134157  13.447687  12.944072
    31  H   12.965423  11.628471   8.312854  10.670040  10.092124
    32  H    5.957509   4.620568   1.345152   3.806746   3.063906
                    6          7          8          9         10
     6  C    0.000000
     7  N    1.433500   0.000000
     8  C    2.437719   1.337155   0.000000
     9  C    3.681181   2.339744   1.380300   0.000000
    10  S    5.063262   3.879283   2.633293   1.702649   0.000000
    11  C    6.590561   5.264756   4.194053   2.925780   1.815670
    12  S    7.990901   6.763375   5.558482   4.458595   2.930779
    13  N    9.300245   7.974564   6.893065   5.636799   4.372384
    14  C   10.495741   9.201224   8.071206   6.862115   5.484661
    15  C   11.414507  10.062049   9.026167   7.737046   6.534701
    16  C   12.722203  11.361072  10.341299   9.043021   7.856941
    17  C   10.717781   9.317816   8.414486   7.061280   6.127294
    18  C    7.038473   5.629860   4.789072   3.414776   2.880551
    19  C    3.458234   2.281351   2.771691   2.523473   4.120632
    20  H    4.063510   5.295158   6.481263   7.621445   9.096152
    21  H    1.071836   2.215306   2.769486   4.133712   5.255106
    22  H    2.585238   2.041653   1.081040   2.199389   2.864534
    23  H    3.799427   2.373823   2.073179   1.196611   2.694540
    24  H    5.494727   4.469793   3.257647   2.585331   1.394508
    25  H    6.381787   4.952286   4.309205   2.948271   2.982633
    26  H    8.154138   6.758373   5.849231   4.493694   3.669197
    27  H   10.765984   9.541291   8.334928   7.227315   5.703436
    28  H   11.677539  10.264218   9.412830   8.047340   7.186408
    29  H   13.452459  12.120204  11.044283   9.785541   8.493414
    30  H   12.694589  11.296402  10.378312   9.032285   8.030491
    31  H    9.995492   8.576666   7.772794   6.397410   5.680495
    32  H    3.567276   2.306512   2.710308   2.397013   3.995594
                   11         12         13         14         15
    11  C    0.000000
    12  S    1.772153   0.000000
    13  N    2.711767   1.762377   0.000000
    14  C    3.945337   2.616968   1.310588   0.000000
    15  C    4.832355   3.838576   2.164698   1.423132   0.000000
    16  C    6.148023   5.134901   3.486341   2.595650   1.322243
    17  C    4.319053   3.892591   2.167025   2.325127   1.491718
    18  C    1.324136   2.661494   2.762418   4.070745   4.582123
    19  C    4.775413   6.506673   7.279193   8.577371   9.166440
    20  H   10.535307  12.009057  13.238521  14.466534  15.305656
    21  H    6.930472   8.164400   9.604998  10.738619  11.754331
    22  H    4.628288   5.729356   7.236235   8.325184   9.398765
    23  H    3.368945   5.086193   5.968423   7.256401   7.947362
    24  H    2.387950   3.013712   4.515995   5.494102   6.617590
    25  H    1.982309   3.600299   3.804635   5.110136   5.544070
    26  H    1.866463   2.329046   1.752110   3.020759   3.422414
    27  H    4.402336   2.779371   2.117205   1.081035   2.283623
    28  H    5.372638   4.972348   3.230348   3.150923   1.924486
    29  H    6.863079   5.651296   4.152725   3.034346   2.103546
    30  H    6.242318   5.545568   3.792094   3.270011   1.847622
    31  H    3.875640   3.913379   2.423507   3.058709   2.529445
    32  H    4.616550   6.355870   7.116827   8.419381   9.002911
                   16         17         18         19         20
    16  C    0.000000
    17  C    2.338185   0.000000
    18  C    5.826992   3.692200   0.000000
    19  C   10.391030   8.170579   4.619201   0.000000
    20  H   16.592357  14.483084  10.810542   6.464167   0.000000
    21  H   13.073656  11.176648   7.548088   4.387708   4.233726
    22  H   10.720995   8.940138   5.442634   3.814733   6.580003
    23  H    9.211890   7.068692   3.395234   1.513844   7.423445
    24  H    7.914687   6.360340   3.512703   4.711864   9.414845
    25  H    6.748641   4.519573   1.048683   3.693545  10.008211
    26  H    4.663438   2.570579   1.164615   5.770454  11.962691
    27  H    3.174516   3.393008   4.799094   9.145085  14.783673
    28  H    2.095649   1.090072   4.641982   8.995657  15.376622
    29  H    1.054856   3.350143   6.684505  11.264723  17.373255
    30  H    1.201754   1.979375   5.670675  10.119347  16.458271
    31  H    3.398749   1.075628   2.984798   7.280801  13.663902
    32  H   10.228014   8.004151   4.427485   1.077923   6.708141
                   21         22         23         24         25
    21  H    0.000000
    22  H    2.469001   0.000000
    23  H    4.511194   3.108467   0.000000
    24  H    5.559600   3.268921   3.507516   0.000000
    25  H    7.003253   5.119372   2.609562   3.735927   0.000000
    26  H    8.614638   6.412574   4.555754   4.117786   2.138869
    27  H   10.904814   8.452421   7.770456   5.593102   5.846418
    28  H   12.176216   9.977164   7.970593   7.432366   5.377308
    29  H   13.742998  11.346622  10.040884   8.475500   7.646162
    30  H   13.138692  10.870023   9.044635   8.184534   6.480253
    31  H   10.528603   8.396496   6.265160   6.021669   3.667091
    32  H    4.489435   3.776647   1.394267   4.874912   3.497260
                   26         27         28         29         30
    26  H    0.000000
    27  H    3.862832   0.000000
    28  H    3.570787   4.150182   0.000000
    29  H    5.525473   3.275521   3.143475   0.000000
    30  H    4.543149   4.077966   1.215431   2.133586   0.000000
    31  H    2.016339   4.135146   1.716367   4.421977   2.866155
    32  H    5.581515   8.992849   8.821956  11.104693   9.951873
                   31         32
    31  H    0.000000
    32  H    7.114412   0.000000
 Stoichiometry    C12H13N3OS3
 Framework group  C1[X(C12H13N3OS3)]
 Deg. of freedom    90
 Full point group                 C1      NOp   1
 Largest Abelian subgroup         C1      NOp   1
 Largest concise Abelian subgroup C1      NOp   1
                         Standard orientation:                         
 ---------------------------------------------------------------------
 Center     Atomic      Atomic             Coordinates (Angstroms)
 Number     Number       Type             X           Y           Z
 ---------------------------------------------------------------------
      1          8           0        7.800868    0.217088    0.307332
      2          6           0        6.467838    0.334453    0.126123
      3          6           0        3.190930    0.855947   -0.241541
      4          7           0        5.338750   -0.350511    0.017652
      5         16           0        5.068521    1.455417   -0.113302
      6          6           0        4.355173   -1.211839   -0.070328
      7          7           0        3.083070   -0.558614   -0.170202
      8          6           0        1.919667   -1.217750   -0.174020
      9          6           0        0.744723   -0.495392   -0.119843
     10         16           0       -0.705057   -1.384932   -0.043227
     11          6           0       -2.174452   -0.318415   -0.034492
     12         16           0       -3.634470   -1.321376    0.019765
     13          7           0       -4.874063   -0.068632    0.023757
     14          6           0       -6.114530   -0.488061    0.078178
     15          6           0       -6.897308    0.700279    0.057969
     16          6           0       -8.150133    1.122438    0.081163
     17          6           0       -5.922222    1.827947    0.005106
     18          6           0       -2.328921    0.992175   -0.143263
     19          6           0        2.229098    1.468377    0.435277
     20          1           0        8.348052   -0.615354    0.391445
     21          1           0        4.473958   -2.275308   -0.009039
     22          1           0        2.009042   -2.294814   -0.149668
     23          1           0        1.049062    0.660378   -0.061087
     24          1           0       -0.937565   -1.931723    1.218364
     25          1           0       -1.416736    1.509392   -0.155051
     26          1           0       -3.493510    0.998040   -0.138025
     27          1           0       -6.404651   -1.528994    0.108605
     28          1           0       -6.679841    2.608289   -0.067957
     29          1           0       -8.988428    0.484117    0.131438
     30          1           0       -7.848432    2.283589    0.011025
     31          1           0       -4.983302    2.351947   -0.023680
     32          1           0        2.048021    1.451319   -0.627191
 ---------------------------------------------------------------------
 Rotational constants (GHZ):           1.2889089           0.0743536           0.0704695
 Standard basis: 6-31G(2df,p) (6D, 7F)
 There are   666 symmetry adapted cartesian basis functions of A   symmetry.
 There are   609 symmetry adapted basis functions of A   symmetry.
   609 basis functions,   999 primitive gaussians,   666 cartesian basis functions
    81 alpha electrons       81 beta electrons
       nuclear repulsion energy      1625.6829945334 Hartrees.
 NAtoms=   32 NActive=   32 NUniq=   32 SFac= 1.00D+00 NAtFMM=   60 NAOKFM=F Big=F
 Integral buffers will be    131072 words long.
 Raffenetti 2 integral format.
 Two-electron integral symmetry is turned on.
 One-electron integrals computed using PRISM.
 PrsmSu:  requested number of processors reduced to:  12 ShMem   1 Linda.
 NBasis=   609 RedAO= T EigKep=  1.91D-04  NBF=   609
 NBsUse=   609 1.00D-06 EigRej= -1.00D+00 NBFU=   609
 Lowest energy guess from the checkpoint file:  "OdCC1dNSCdNCdC[SH]dCSNCdCCdCCdC1.chk"
 B after Tr=     0.000000   -0.000000   -0.000000
         Rot=    0.999998    0.001834   -0.000159    0.000056 Ang=   0.21 deg.
 B after Tr=    -0.000000   -0.000000   -0.000000
         Rot=    0.999991   -0.004154    0.000055    0.000221 Ang=  -0.48 deg.
 Requested convergence on RMS density matrix=1.00D-08 within 128 cycles.
 Requested convergence on MAX density matrix=1.00D-06.
 Requested convergence on             energy=1.00D-06.
 No special actions if energy rises.
 Integral accuracy reduced to 1.0D-05 until final iterations.
 EnCoef did     5 forward-backward iterations
 Problem detected with inexpensive integrals.
 Switching to full accuracy and repeating last cycle.
 EnCoef did     7 forward-backward iterations
 EnCoef did   100 forward-backward iterations
 EnCoef did     6 forward-backward iterations
 EnCoef did   100 forward-backward iterations
 EnCoef did   100 forward-backward iterations
 EnCoef did   100 forward-backward iterations
 EnCoef did    53 forward-backward iterations
 Rare condition: small coef for last iteration:  0.000D+00
 EnCoef did    27 forward-backward iterations
 Rare condition: small coef for last iteration:  0.666D-15
 EnCoef did   100 forward-backward iterations
 Rare condition: small coef for last iteration:  0.000D+00
 EnCoef did    32 forward-backward iterations
 Restarting incremental Fock formation.
slurmstepd: error: *** JOB 27446565 ON lewis4-r630-hpc4-node295 CANCELLED AT 2023-05-16T13:18:00 DUE TO TIME LIMIT ***
