### Starting Gaussian ###
 Entering Gaussian System, Link 0=g16
 Initial command:
 /cluster/software/gaussian/gaussian-16-A.03/avx2/g16/l1.exe "/local/scratch/yxie/Gau-19451.inp" -scrdir="/local/scratch/yxie/"
 Entering Link 1 = /cluster/software/gaussian/gaussian-16-A.03/avx2/g16/l1.exe PID=     19456.
  
 Copyright (c) 1988,1990,1992,1993,1995,1998,2003,2009,2016,
            Gaussian, Inc.  All Rights Reserved.
  
 This is part of the Gaussian(R) 16 program.  It is based on
 the Gaussian(R) 09 system (copyright 2009, Gaussian, Inc.),
 the Gaussian(R) 03 system (copyright 2003, Gaussian, Inc.),
 the Gaussian(R) 98 system (copyright 1998, Gaussian, Inc.),
 the Gaussian(R) 94 system (copyright 1995, Gaussian, Inc.),
 the Gaussian 92(TM) system (copyright 1992, Gaussian, Inc.),
 the Gaussian 90(TM) system (copyright 1990, Gaussian, Inc.),
 the Gaussian 88(TM) system (copyright 1988, Gaussian, Inc.),
 the Gaussian 86(TM) system (copyright 1986, Carnegie Mellon
 University), and the Gaussian 82(TM) system (copyright 1983,
 Carnegie Mellon University). Gaussian is a federally registered
 trademark of Gaussian, Inc.
  
 This software contains proprietary and confidential information,
 including trade secrets, belonging to Gaussian, Inc.
  
 This software is provided under written license and may be
 used, copied, transmitted, or stored only in accord with that
 written license.
  
 The following legend is applicable only to US Government
 contracts under FAR:
  
                    RESTRICTED RIGHTS LEGEND
  
 Use, reproduction and disclosure by the US Government is
 subject to restrictions as set forth in subparagraphs (a)
 and (c) of the Commercial Computer Software - Restricted
 Rights clause in FAR 52.227-19.
  
 Gaussian, Inc.
 340 Quinnipiac St., Bldg. 40, Wallingford CT 06492
  
  
 ---------------------------------------------------------------
 Warning -- This program may not be used in any manner that
 competes with the business of Gaussian, Inc. or will provide
 assistance to any competitor of Gaussian, Inc.  The licensee
 of this program is prohibited from giving any competitor of
 Gaussian, Inc. access to this program.  By using this program,
 the user acknowledges that Gaussian, Inc. is engaged in the
 business of creating and licensing software in the field of
 computational chemistry and represents and warrants to the
 licensee that it is not a competitor of Gaussian, Inc. and that
 it will not use this program in any manner prohibited above.
 ---------------------------------------------------------------
  

 Cite this work as:
 Gaussian 16, Revision A.03,
 M. J. Frisch, G. W. Trucks, H. B. Schlegel, G. E. Scuseria, 
 M. A. Robb, J. R. Cheeseman, G. Scalmani, V. Barone, 
 G. A. Petersson, H. Nakatsuji, X. Li, M. Caricato, A. V. Marenich, 
 J. Bloino, B. G. Janesko, R. Gomperts, B. Mennucci, H. P. Hratchian, 
 J. V. Ortiz, A. F. Izmaylov, J. L. Sonnenberg, D. Williams-Young, 
 F. Ding, F. Lipparini, F. Egidi, J. Goings, B. Peng, A. Petrone, 
 T. Henderson, D. Ranasinghe, V. G. Zakrzewski, J. Gao, N. Rega, 
 G. Zheng, W. Liang, M. Hada, M. Ehara, K. Toyota, R. Fukuda, 
 J. Hasegawa, M. Ishida, T. Nakajima, Y. Honda, O. Kitao, H. Nakai, 
 T. Vreven, K. Throssell, J. A. Montgomery, Jr., J. E. Peralta, 
 F. Ogliaro, M. J. Bearpark, J. J. Heyd, E. N. Brothers, K. N. Kudin, 
 V. N. Staroverov, T. A. Keith, R. Kobayashi, J. Normand, 
 K. Raghavachari, A. P. Rendell, J. C. Burant, S. S. Iyengar, 
 J. Tomasi, M. Cossi, J. M. Millam, M. Klene, C. Adamo, R. Cammi, 
 J. W. Ochterski, R. L. Martin, K. Morokuma, O. Farkas, 
 J. B. Foresman, and D. J. Fox, Gaussian, Inc., Wallingford CT, 2016.
 
 ******************************************
 Gaussian 16:  ES64L-G16RevA.03 25-Dec-2016
                17-May-2023 
 ******************************************
 %chk=OdCC1dCCdCCdCCdCqSr[SH]d[SH]SS1.chk
 %NProcShared=20
 Will use up to   20 processors via shared memory.
 -----------------------------
 # opt freq b3lyp/6-31g(2df,p)
 -----------------------------
 1/18=20,19=15,26=3,38=1/1,3;
 2/9=110,12=2,17=6,18=5,40=1/2;
 3/5=1,6=6,7=104,11=2,25=1,30=1,71=1,74=-5/1,2,3;
 4//1;
 5/5=2,38=5/2;
 6/7=2,8=2,9=2,10=2,28=1/1;
 7//1,2,3,16;
 1/18=20,19=15,26=3/3(2);
 2/9=110/2;
 99//99;
 2/9=110/2;
 3/5=1,6=6,7=104,11=2,25=1,30=1,71=1,74=-5/1,2,3;
 4/5=5,16=3,69=1/1;
 5/5=2,38=5/2;
 7//1,2,3,16;
 1/18=20,19=15,26=3/3(-5);
 2/9=110/2;
 6/7=2,8=2,9=2,10=2,19=2,28=1/1;
 99/9=1/99;
 -------------------
 Title Card Required
 -------------------
 Symbolic Z-matrix:
 Charge =  0 Multiplicity = 1
 O                     1.84955  -0.8759   -0.01577 
 C                     3.13986  -1.20914  -0.01122 
 C                     4.33188  -2.81478   0.07329 
 C                     4.67854  -1.5198   -0.00993 
 C                     5.40493  -2.67008  -0.26202 
 C                     6.65789  -2.17955  -0.14918 
 C                     7.72687  -2.9325   -0.21231 
 C                     8.96266  -3.13502  -0.22185 
 C                     9.29903  -4.41278  -0.57824 
 C                     10.51331  -5.015    -0.58521 
 S                     11.87986  -3.39034  -0.2482 
 S                     10.83075  -7.31962  -0.60508 
 S                     11.13687  -5.90699   0.26335 
 S                     8.38972  -6.36069   0.19134 
 S                     6.04727  -4.82567  -0.02795 
 H                     3.27299   0.19375   0.05629 
 H                     5.09731  -0.45849  -0.03144 
 H                     4.60267  -4.10763  -0.53331 
 H                     7.07474  -1.2346   -0.04653 
 H                     7.5695   -3.88274  -0.07999 
 H                     9.43195  -2.27121  -0.12615 
 H                     8.20669  -4.90995  -0.87338 
 H                     10.90323  -2.49659  -0.14771 
 H                     11.3094  -7.36826  -1.75289 
 H                     12.85543  -5.91473   0.44092 
 
 Add virtual bond connecting atoms H16        and C2         Dist= 2.67D+00.
 Add virtual bond connecting atoms H18        and C3         Dist= 2.75D+00.
 Add virtual bond connecting atoms H18        and S15        Dist= 3.19D+00.
 Add virtual bond connecting atoms H20        and S15        Dist= 3.39D+00.
 Add virtual bond connecting atoms H25        and S13        Dist= 3.26D+00.
 Add virtual bond connecting atoms H22        and S14        Dist= 3.42D+00.

 GradGradGradGradGradGradGradGradGradGradGradGradGradGradGradGradGradGrad
 Berny optimization.
 Initialization pass.
                           ----------------------------
                           !    Initial Parameters    !
                           ! (Angstroms and Degrees)  !
 --------------------------                            --------------------------
 ! Name  Definition              Value          Derivative Info.                !
 --------------------------------------------------------------------------------
 ! R1    R(1,2)                  1.3327         estimate D2E/DX2                !
 ! R2    R(2,4)                  1.5697         estimate D2E/DX2                !
 ! R3    R(2,16)                 1.4108         estimate D2E/DX2                !
 ! R4    R(3,4)                  1.3432         estimate D2E/DX2                !
 ! R5    R(3,5)                  1.1335         estimate D2E/DX2                !
 ! R6    R(3,18)                 1.4535         estimate D2E/DX2                !
 ! R7    R(4,5)                  1.3836         estimate D2E/DX2                !
 ! R8    R(4,17)                 1.1411         estimate D2E/DX2                !
 ! R9    R(5,6)                  1.3503         estimate D2E/DX2                !
 ! R10   R(6,7)                  1.3091         estimate D2E/DX2                !
 ! R11   R(6,19)                 1.0379         estimate D2E/DX2                !
 ! R12   R(7,8)                  1.2523         estimate D2E/DX2                !
 ! R13   R(7,20)                 0.9722         estimate D2E/DX2                !
 ! R14   R(8,9)                  1.3685         estimate D2E/DX2                !
 ! R15   R(8,21)                 0.9877         estimate D2E/DX2                !
 ! R16   R(9,10)                 1.3554         estimate D2E/DX2                !
 ! R17   R(9,22)                 1.2359         estimate D2E/DX2                !
 ! R18   R(10,11)                2.1495         estimate D2E/DX2                !
 ! R19   R(10,13)                1.38           estimate D2E/DX2                !
 ! R20   R(11,23)                1.3277         estimate D2E/DX2                !
 ! R21   R(12,13)                1.6862         estimate D2E/DX2                !
 ! R22   R(12,24)                1.2446         estimate D2E/DX2                !
 ! R23   R(13,25)                1.7277         estimate D2E/DX2                !
 ! R24   R(14,22)                1.8088         estimate D2E/DX2                !
 ! R25   R(15,18)                1.6905         estimate D2E/DX2                !
 ! R26   R(15,20)                1.7914         estimate D2E/DX2                !
 ! A1    A(1,2,16)              80.96           estimate D2E/DX2                !
 ! A2    A(4,2,16)              95.9845         estimate D2E/DX2                !
 ! A3    A(4,3,18)             141.5925         estimate D2E/DX2                !
 ! A4    A(5,3,18)              79.2647         estimate D2E/DX2                !
 ! A5    A(2,4,3)               86.438          estimate D2E/DX2                !
 ! A6    A(2,4,5)              132.7657         estimate D2E/DX2                !
 ! A7    A(2,4,17)             100.1158         estimate D2E/DX2                !
 ! A8    A(5,4,17)             125.2476         estimate D2E/DX2                !
 ! A9    A(3,5,6)              154.171          estimate D2E/DX2                !
 ! A10   A(4,5,6)               99.7829         estimate D2E/DX2                !
 ! A11   A(5,6,7)              123.0084         estimate D2E/DX2                !
 ! A12   A(5,6,19)             135.3729         estimate D2E/DX2                !
 ! A13   A(7,6,19)             101.5646         estimate D2E/DX2                !
 ! A14   A(6,7,8)              154.0548         estimate D2E/DX2                !
 ! A15   A(6,7,20)             115.0514         estimate D2E/DX2                !
 ! A16   A(8,7,20)              90.1551         estimate D2E/DX2                !
 ! A17   A(7,8,9)              113.2988         estimate D2E/DX2                !
 ! A18   A(7,8,21)             109.0682         estimate D2E/DX2                !
 ! A19   A(9,8,21)             136.4701         estimate D2E/DX2                !
 ! A20   A(8,9,10)             129.5219         estimate D2E/DX2                !
 ! A21   A(8,9,22)             102.7409         estimate D2E/DX2                !
 ! A22   A(10,9,22)            127.7222         estimate D2E/DX2                !
 ! A23   A(9,10,11)            103.469          estimate D2E/DX2                !
 ! A24   A(9,10,13)            133.535          estimate D2E/DX2                !
 ! A25   A(11,10,13)            96.0194         estimate D2E/DX2                !
 ! A26   A(10,11,23)            93.0388         estimate D2E/DX2                !
 ! A27   A(13,12,24)           115.9696         estimate D2E/DX2                !
 ! A28   A(10,13,12)            98.2085         estimate D2E/DX2                !
 ! A29   A(10,13,25)           121.0331         estimate D2E/DX2                !
 ! A30   A(12,13,25)           103.2826         estimate D2E/DX2                !
 ! A31   A(18,15,20)           119.5963         estimate D2E/DX2                !
 ! A32   A(3,18,15)            114.3453         estimate D2E/DX2                !
 ! A33   A(7,20,15)            130.9931         estimate D2E/DX2                !
 ! A34   A(9,22,14)             95.3153         estimate D2E/DX2                !
 ! A35   L(1,2,4,16,-1)        176.9444         estimate D2E/DX2                !
 ! A36   L(3,4,17,2,-1)        186.5538         estimate D2E/DX2                !
 ! A37   L(1,2,4,16,-2)        180.2999         estimate D2E/DX2                !
 ! A38   L(3,4,17,2,-2)        177.5435         estimate D2E/DX2                !
 ! D1    D(16,2,4,3)           173.6752         estimate D2E/DX2                !
 ! D2    D(16,2,4,5)          -168.3478         estimate D2E/DX2                !
 ! D3    D(16,2,4,17)           -3.8683         estimate D2E/DX2                !
 ! D4    D(18,3,4,2)           131.0239         estimate D2E/DX2                !
 ! D5    D(18,3,5,6)          -145.5025         estimate D2E/DX2                !
 ! D6    D(4,3,18,15)           78.2205         estimate D2E/DX2                !
 ! D7    D(5,3,18,15)           48.8078         estimate D2E/DX2                !
 ! D8    D(2,4,5,6)            176.8534         estimate D2E/DX2                !
 ! D9    D(17,4,5,6)            15.6711         estimate D2E/DX2                !
 ! D10   D(3,5,6,7)            127.7251         estimate D2E/DX2                !
 ! D11   D(3,5,6,19)           -55.4876         estimate D2E/DX2                !
 ! D12   D(4,5,6,7)            174.9047         estimate D2E/DX2                !
 ! D13   D(4,5,6,19)            -8.308          estimate D2E/DX2                !
 ! D14   D(5,6,7,8)            177.157          estimate D2E/DX2                !
 ! D15   D(5,6,7,20)           -17.4959         estimate D2E/DX2                !
 ! D16   D(19,6,7,8)            -0.5399         estimate D2E/DX2                !
 ! D17   D(19,6,7,20)          164.8072         estimate D2E/DX2                !
 ! D18   D(6,7,8,9)           -169.1504         estimate D2E/DX2                !
 ! D19   D(6,7,8,21)             0.6092         estimate D2E/DX2                !
 ! D20   D(20,7,8,9)            24.0976         estimate D2E/DX2                !
 ! D21   D(20,7,8,21)         -166.1428         estimate D2E/DX2                !
 ! D22   D(6,7,20,15)           11.3932         estimate D2E/DX2                !
 ! D23   D(8,7,20,15)         -174.961          estimate D2E/DX2                !
 ! D24   D(7,8,9,10)          -173.7234         estimate D2E/DX2                !
 ! D25   D(7,8,9,22)             4.9291         estimate D2E/DX2                !
 ! D26   D(21,8,9,10)           20.397          estimate D2E/DX2                !
 ! D27   D(21,8,9,22)         -160.9505         estimate D2E/DX2                !
 ! D28   D(8,9,10,11)          -10.1241         estimate D2E/DX2                !
 ! D29   D(8,9,10,13)          101.9808         estimate D2E/DX2                !
 ! D30   D(22,9,10,11)         171.5376         estimate D2E/DX2                !
 ! D31   D(22,9,10,13)         -76.3575         estimate D2E/DX2                !
 ! D32   D(8,9,22,14)         -128.1562         estimate D2E/DX2                !
 ! D33   D(10,9,22,14)          50.5297         estimate D2E/DX2                !
 ! D34   D(9,10,11,23)           1.4314         estimate D2E/DX2                !
 ! D35   D(13,10,11,23)       -136.0841         estimate D2E/DX2                !
 ! D36   D(9,10,13,12)          99.132          estimate D2E/DX2                !
 ! D37   D(9,10,13,25)        -149.9091         estimate D2E/DX2                !
 ! D38   D(11,10,13,12)       -145.8276         estimate D2E/DX2                !
 ! D39   D(11,10,13,25)        -34.8687         estimate D2E/DX2                !
 ! D40   D(24,12,13,10)         61.061          estimate D2E/DX2                !
 ! D41   D(24,12,13,25)        -63.6363         estimate D2E/DX2                !
 ! D42   D(20,15,18,3)         -50.739          estimate D2E/DX2                !
 ! D43   D(18,15,20,7)          12.2031         estimate D2E/DX2                !
 --------------------------------------------------------------------------------
 Trust Radius=3.00D-01 FncErr=1.00D-07 GrdErr=1.00D-06 EigMax=2.50D+02 EigMin=1.00D-04
 Number of steps in this run=    117 maximum allowed number of steps=    150.
 GradGradGradGradGradGradGradGradGradGradGradGradGradGradGradGradGradGrad

                          Input orientation:                          
 ---------------------------------------------------------------------
 Center     Atomic      Atomic             Coordinates (Angstroms)
 Number     Number       Type             X           Y           Z
 ---------------------------------------------------------------------
      1          8           0        1.849550   -0.875900   -0.015770
      2          6           0        3.139860   -1.209140   -0.011220
      3          6           0        4.331880   -2.814780    0.073290
      4          6           0        4.678540   -1.519800   -0.009930
      5          6           0        5.404930   -2.670080   -0.262020
      6          6           0        6.657890   -2.179550   -0.149180
      7          6           0        7.726870   -2.932500   -0.212310
      8          6           0        8.962660   -3.135020   -0.221850
      9          6           0        9.299030   -4.412780   -0.578240
     10          6           0       10.513310   -5.015000   -0.585210
     11         16           0       11.879860   -3.390340   -0.248200
     12         16           0       10.830750   -7.319620   -0.605080
     13         16           0       11.136870   -5.906990    0.263350
     14         16           0        8.389720   -6.360690    0.191340
     15         16           0        6.047270   -4.825670   -0.027950
     16          1           0        3.272990    0.193750    0.056290
     17          1           0        5.097310   -0.458490   -0.031440
     18          1           0        4.602670   -4.107630   -0.533310
     19          1           0        7.074740   -1.234600   -0.046530
     20          1           0        7.569500   -3.882740   -0.079990
     21          1           0        9.431950   -2.271210   -0.126150
     22          1           0        8.206690   -4.909950   -0.873380
     23          1           0       10.903230   -2.496590   -0.147710
     24          1           0       11.309400   -7.368260   -1.752890
     25          1           0       12.855430   -5.914730    0.440920
 ---------------------------------------------------------------------
                    Distance matrix (angstroms):
                    1          2          3          4          5
     1  O    0.000000
     2  C    1.332655   0.000000
     3  C    3.151055   2.001533   0.000000
     4  C    2.901349   1.569728   1.343157   0.000000
     5  C    3.990044   2.706989   1.133493   1.383595   0.000000
     6  C    4.983717   3.652022   2.421432   2.091049   1.350282
     7  C    6.229857   4.904189   3.409015   3.365857   2.337251
     8  C    7.466085   6.136642   4.651213   4.583397   3.588206
     9  C    8.265630   6.965644   5.258391   5.480989   4.277968
    10  C    9.618583   8.317560   6.594290   6.825827   5.630155
    11  S   10.343285   9.011182   7.576716   7.444105   6.514882
    12  S   11.069362   9.840753   7.936566   8.475954   7.153701
    13  S   10.566177   9.278866   7.477016   7.812307   6.603691
    14  S    8.538129   7.358025   5.390128   6.103080   4.768135
    15  S    5.763826   4.640323   2.645088   3.578061   2.261406
    16  H    1.782000   1.410809   3.189481   2.217253   3.584412
    17  H    3.274511   2.096544   2.479708   1.141144   2.244756
    18  H    4.276868   3.288409   1.453531   2.641315   1.668463
    19  H    5.237578   3.935121   3.167745   2.413390   2.212533
    20  H    6.462433   5.174416   3.412655   3.734440   2.487779
    21  H    7.710503   6.382131   5.132831   4.813837   4.049006
    22  H    7.577749   6.333410   4.505560   4.968552   3.638769
    23  H    9.198542   7.870583   6.582760   6.302370   5.502224
    24  H   11.604184  10.378322   8.529648   9.011698   7.691447
    25  H   12.113124  10.804597   9.077210   9.294095   8.156705
                    6          7          8          9         10
     6  C    0.000000
     7  C    1.309060   0.000000
     8  C    2.496031   1.252311   0.000000
     9  C    3.485259   2.190165   1.368514   0.000000
    10  C    4.805639   3.498587   2.463914   1.355431   0.000000
    11  S    5.361417   4.178305   2.928470   2.795531   2.149548
    12  S    6.636334   5.388428   4.598641   3.285819   2.326464
    13  S    5.841682   4.549939   3.556181   2.513681   1.380046
    14  S    4.538405   3.514938   3.302110   2.283298   2.631263
    15  S    2.718364   2.537546   3.375706   3.323739   4.504653
    16  H    4.139121   5.448177   6.597758   7.611564   8.942306
    17  H    2.326224   3.614972   4.705422   5.795675   7.099401
    18  H    2.844113   3.353296   4.478001   4.706478   5.980107
    19  H    1.037898   1.826368   2.684507   3.915483   5.138615
    20  H    1.933048   0.972229   1.587484   1.876291   3.194257
    21  H    2.775669   1.830854   0.987704   2.192801   2.984704
    22  H    3.221542   2.139521   2.036261   1.235918   2.326924
    23  H    4.257162   3.206782   2.044236   2.535862   2.585698
    24  H    7.150604   5.906257   5.076573   3.762480   2.745008
    25  H    7.260116   5.968462   4.829049   3.992809   2.710716
                   11         12         13         14         15
    11  S    0.000000
    12  S    4.082553   0.000000
    13  S    2.673433   1.686239   0.000000
    14  S    4.604047   2.740887   2.785294   0.000000
    15  S    6.010640   5.425361   5.211347   2.809172   0.000000
    16  H    9.328270  10.677447   9.955024   8.316240   5.735704
    17  H    7.392274   8.959716   8.139370   6.762068   4.469306
    18  H    7.318011   7.007925   6.824085   4.465775   1.690515
    19  H    5.270395   7.172660   6.199045   5.297410   3.735214
    20  H    4.341654   4.766929   4.116017   2.624236   1.791371
    21  H    2.694367   5.260462   4.034521   4.232126   4.241576
    22  H    4.023959   3.572700   3.297302   1.808805   2.320549
    23  H    1.327665   4.845210   3.443020   4.622116   5.386957
    24  H    4.291080   1.244564   2.496057   3.649624   6.093455
    25  H    2.792699   2.677155   1.727727   4.494857   6.910639
                   16         17         18         19         20
    16  H    0.000000
    17  H    1.939396   0.000000
    18  H    4.540655   3.716553   0.000000
    19  H    4.062519   2.124336   3.821307   0.000000
    20  H    5.924216   4.223691   3.009677   2.694170   0.000000
    21  H    6.636422   4.699365   5.182679   2.576303   2.463307
    22  H    7.159150   5.494780   3.707873   3.933598   1.445904
    23  H    8.093214   6.154354   6.514691   4.032393   3.611060
    24  H   11.182174   9.449782   7.556409   7.646293   5.379061
    25  H   11.370340   9.496426   8.504280   7.453697   5.686949
                   21         22         23         24         25
    21  H    0.000000
    22  H    3.003758   0.000000
    23  H    1.488599   3.690831   0.000000
    24  H    5.670187   4.055075   5.145362   0.000000
    25  H    5.031602   4.934344   3.980107   3.052173   0.000000
 Stoichiometry    C9H10OS5
 Framework group  C1[X(C9H10OS5)]
 Deg. of freedom    69
 Full point group                 C1      NOp   1
 Largest Abelian subgroup         C1      NOp   1
 Largest concise Abelian subgroup C1      NOp   1
                         Standard orientation:                         
 ---------------------------------------------------------------------
 Center     Atomic      Atomic             Coordinates (Angstroms)
 Number     Number       Type             X           Y           Z
 ---------------------------------------------------------------------
      1          8           0        7.088037   -0.096053    0.040252
      2          6           0        5.797406    0.233373   -0.001223
      3          6           0        3.981389   -0.600955   -0.111279
      4          6           0        4.300051    0.702276   -0.047117
      5          6           0        3.103476    0.049486    0.190389
      6          6           0        2.245179    1.080444    0.036395
      7          6           0        0.944498    0.936925    0.072036
      8          6           0       -0.235700    1.354906    0.045438
      9          6           0       -1.154571    0.404699    0.399855
     10          6           0       -2.508539    0.462079    0.373967
     11         16           0       -2.914386    2.536822   -0.014984
     12         16           0       -3.897942   -1.403759    0.399348
     13         16           0       -3.464796   -0.036363   -0.487227
     14         16           0       -1.279121   -1.755562   -0.328988
     15         16           0        1.507293   -1.534467   -0.048877
     16          1           0        6.358630    1.525229   -0.081955
     17          1           0        4.444364    1.834257   -0.045287
     18          1           0        3.106828   -1.590873    0.495315
     19          1           0        2.337987    2.107025   -0.085052
     20          1           0        0.627374    0.025902   -0.049206
     21          1           0       -0.228095    2.335797   -0.070119
     22          1           0       -0.444416   -0.551000    0.731235
     23          1           0       -1.625845    2.847419   -0.091692
     24          1           0       -4.367462   -1.192453    1.532414
     25          1           0       -4.969554    0.780985   -0.716760
 ---------------------------------------------------------------------
 Rotational constants (GHZ):           0.9064211           0.1526085           0.1322735
 Standard basis: 6-31G(2df,p) (6D, 7F)
 There are   535 symmetry adapted cartesian basis functions of A   symmetry.
 There are   490 symmetry adapted basis functions of A   symmetry.
   490 basis functions,   850 primitive gaussians,   535 cartesian basis functions
    76 alpha electrons       76 beta electrons
       nuclear repulsion energy      1587.4978588236 Hartrees.
 NAtoms=   25 NActive=   25 NUniq=   25 SFac= 1.00D+00 NAtFMM=   60 NAOKFM=F Big=F
 Integral buffers will be    131072 words long.
 Raffenetti 2 integral format.
 Two-electron integral symmetry is turned on.
 One-electron integrals computed using PRISM.
 PrsmSu:  requested number of processors reduced to:  12 ShMem   1 Linda.
 NBasis=   490 RedAO= T EigKep=  1.18D-04  NBF=   490
 NBsUse=   490 1.00D-06 EigRej= -1.00D+00 NBFU=   490
 ExpMin= 1.17D-01 ExpMax= 2.19D+04 ExpMxC= 3.30D+03 IAcc=3 IRadAn=         5 AccDes= 0.00D+00
 Harris functional with IExCor=  402 and IRadAn=       5 diagonalized for initial guess.
 HarFok:  IExCor=  402 AccDes= 0.00D+00 IRadAn=         5 IDoV= 1 UseB2=F ITyADJ=14
 ICtDFT=  3500011 ScaDFX=  1.000000  1.000000  1.000000  1.000000
 FoFCou: FMM=F IPFlag=           0 FMFlag=      100000 FMFlg1=           0
         NFxFlg=           0 DoJE=T BraDBF=F KetDBF=T FulRan=T
         wScrn=  0.000000 ICntrl=       500 IOpCl=  0 I1Cent=   200000004 NGrid=           0
         NMat0=    1 NMatS0=      1 NMatT0=    0 NMatD0=    1 NMtDS0=    0 NMtDT0=    0
 Petite list used in FoFCou.
 Requested convergence on RMS density matrix=1.00D-08 within 128 cycles.
 Requested convergence on MAX density matrix=1.00D-06.
 Requested convergence on             energy=1.00D-06.
 No special actions if energy rises.
 Integral accuracy reduced to 1.0D-05 until final iterations.
 EnCoef did     5 forward-backward iterations
 EnCoef did   100 forward-backward iterations
 Problem detected with inexpensive integrals.
 Switching to full accuracy and repeating last cycle.
 EnCoef did     2 forward-backward iterations
 EnCoef did   100 forward-backward iterations
 EnCoef did     5 forward-backward iterations
 EnCoef did     2 forward-backward iterations
 EnCoef did     5 forward-backward iterations
 EnCoef did     7 forward-backward iterations
 EnCoef did     4 forward-backward iterations
 EnCoef did     3 forward-backward iterations
 EnCoef did     3 forward-backward iterations
 EnCoef did     1 forward-backward iterations
 Restarting incremental Fock formation.
 SCF Done:  E(RB3LYP) =  -2413.71836992     A.U. after   37 cycles
            NFock= 37  Conv=0.40D-08     -V/T= 2.0013

 **********************************************************************

            Population analysis using the SCF density.

 **********************************************************************

 Orbital symmetries:
       Occupied  (A) (A) (A) (A) (A) (A) (A) (A) (A) (A) (A) (A)
                 (A) (A) (A) (A) (A) (A) (A) (A) (A) (A) (A) (A)
                 (A) (A) (A) (A) (A) (A) (A) (A) (A) (A) (A) (A)
                 (A) (A) (A) (A) (A) (A) (A) (A) (A) (A) (A) (A)
                 (A) (A) (A) (A) (A) (A) (A) (A) (A) (A) (A) (A)
                 (A) (A) (A) (A) (A) (A) (A) (A) (A) (A) (A) (A)
                 (A) (A) (A) (A)
       Virtual   (A) (A) (A) (A) (A) (A) (A) (A) (A) (A) (A) (A)
                 (A) (A) (A) (A) (A) (A) (A) (A) (A) (A) (A) (A)
                 (A) (A) (A) (A) (A) (A) (A) (A) (A) (A) (A) (A)
                 (A) (A) (A) (A) (A) (A) (A) (A) (A) (A) (A) (A)
                 (A) (A) (A) (A) (A) (A) (A) (A) (A) (A) (A) (A)
                 (A) (A) (A) (A) (A) (A) (A) (A) (A) (A) (A) (A)
                 (A) (A) (A) (A) (A) (A) (A) (A) (A) (A) (A) (A)
                 (A) (A) (A) (A) (A) (A) (A) (A) (A) (A) (A) (A)
                 (A) (A) (A) (A) (A) (A) (A) (A) (A) (A) (A) (A)
                 (A) (A) (A) (A) (A) (A) (A) (A) (A) (A) (A) (A)
                 (A) (A) (A) (A) (A) (A) (A) (A) (A) (A) (A) (A)
                 (A) (A) (A) (A) (A) (A) (A) (A) (A) (A) (A) (A)
                 (A) (A) (A) (A) (A) (A) (A) (A) (A) (A) (A) (A)
                 (A) (A) (A) (A) (A) (A) (A) (A) (A) (A) (A) (A)
                 (A) (A) (A) (A) (A) (A) (A) (A) (A) (A) (A) (A)
                 (A) (A) (A) (A) (A) (A) (A) (A) (A) (A) (A) (A)
                 (A) (A) (A) (A) (A) (A) (A) (A) (A) (A) (A) (A)
                 (A) (A) (A) (A) (A) (A) (A) (A) (A) (A) (A) (A)
                 (A) (A) (A) (A) (A) (A) (A) (A) (A) (A) (A) (A)
                 (A) (A) (A) (A) (A) (A) (A) (A) (A) (A) (A) (A)
                 (A) (A) (A) (A) (A) (A) (A) (A) (A) (A) (A) (A)
                 (A) (A) (A) (A) (A) (A) (A) (A) (A) (A) (A) (A)
                 (A) (A) (A) (A) (A) (A) (A) (A) (A) (A) (A) (A)
                 (A) (A) (A) (A) (A) (A) (A) (A) (A) (A) (A) (A)
                 (A) (A) (A) (A) (A) (A) (A) (A) (A) (A) (A) (A)
                 (A) (A) (A) (A) (A) (A) (A) (A) (A) (A) (A) (A)
                 (A) (A) (A) (A) (A) (A) (A) (A) (A) (A) (A) (A)
                 (A) (A) (A) (A) (A) (A) (A) (A) (A) (A) (A) (A)
                 (A) (A) (A) (A) (A) (A) (A) (A) (A) (A) (A) (A)
                 (A) (A) (A) (A) (A) (A) (A) (A) (A) (A) (A) (A)
                 (A) (A) (A) (A) (A) (A) (A) (A) (A) (A) (A) (A)
                 (A) (A) (A) (A) (A) (A) (A) (A) (A) (A) (A) (A)
                 (A) (A) (A) (A) (A) (A) (A) (A) (A) (A) (A) (A)
                 (A) (A) (A) (A) (A) (A) (A) (A) (A) (A) (A) (A)
                 (A) (A) (A) (A) (A) (A)
 The electronic state is 1-A.
 Alpha  occ. eigenvalues --  -89.00348 -88.90589 -88.89271 -88.87974 -88.85395
 Alpha  occ. eigenvalues --  -19.16828 -10.33051 -10.30799 -10.27235 -10.24721
 Alpha  occ. eigenvalues --  -10.24067 -10.23406 -10.20237 -10.19921 -10.17294
 Alpha  occ. eigenvalues --   -8.07092  -7.98833  -7.96031  -7.94558  -7.92097
 Alpha  occ. eigenvalues --   -6.03398  -6.03170  -6.02743  -5.95225  -5.94643
 Alpha  occ. eigenvalues --   -5.94290  -5.92461  -5.92102  -5.91545  -5.91476
 Alpha  occ. eigenvalues --   -5.90241  -5.89953  -5.88473  -5.88166  -5.87646
 Alpha  occ. eigenvalues --   -1.06973  -1.03238  -1.00310  -0.92203  -0.84672
 Alpha  occ. eigenvalues --   -0.80578  -0.75575  -0.74296  -0.73192  -0.70189
 Alpha  occ. eigenvalues --   -0.66397  -0.64756  -0.62351  -0.61007  -0.55980
 Alpha  occ. eigenvalues --   -0.55101  -0.54189  -0.51881  -0.49946  -0.49654
 Alpha  occ. eigenvalues --   -0.48261  -0.47042  -0.46331  -0.42397  -0.40702
 Alpha  occ. eigenvalues --   -0.39482  -0.38477  -0.36783  -0.35645  -0.33846
 Alpha  occ. eigenvalues --   -0.31634  -0.30978  -0.29482  -0.28250  -0.27066
 Alpha  occ. eigenvalues --   -0.26218  -0.23508  -0.21727  -0.21675  -0.18968
 Alpha  occ. eigenvalues --   -0.18028
 Alpha virt. eigenvalues --   -0.14765  -0.14310  -0.11952  -0.07579  -0.06703
 Alpha virt. eigenvalues --   -0.05166  -0.03197  -0.01895   0.00030   0.02220
 Alpha virt. eigenvalues --    0.02914   0.05696   0.06924   0.08219   0.09011
 Alpha virt. eigenvalues --    0.10337   0.11770   0.13413   0.14265   0.16732
 Alpha virt. eigenvalues --    0.17893   0.19094   0.20306   0.21167   0.21453
 Alpha virt. eigenvalues --    0.22728   0.24318   0.25436   0.27423   0.27728
 Alpha virt. eigenvalues --    0.28174   0.28895   0.29523   0.31059   0.31753
 Alpha virt. eigenvalues --    0.32435   0.32668   0.33300   0.33791   0.34302
 Alpha virt. eigenvalues --    0.34657   0.35341   0.36048   0.36746   0.37585
 Alpha virt. eigenvalues --    0.37900   0.39166   0.39835   0.40616   0.41631
 Alpha virt. eigenvalues --    0.42950   0.43349   0.43646   0.44321   0.45022
 Alpha virt. eigenvalues --    0.45469   0.46511   0.46889   0.47478   0.49616
 Alpha virt. eigenvalues --    0.50564   0.51055   0.52089   0.52533   0.52624
 Alpha virt. eigenvalues --    0.53491   0.54392   0.55263   0.56320   0.56813
 Alpha virt. eigenvalues --    0.57709   0.58033   0.59453   0.60783   0.61371
 Alpha virt. eigenvalues --    0.62249   0.62708   0.64191   0.64327   0.65318
 Alpha virt. eigenvalues --    0.66515   0.67017   0.67378   0.68936   0.69276
 Alpha virt. eigenvalues --    0.70287   0.71047   0.71687   0.72649   0.73390
 Alpha virt. eigenvalues --    0.74117   0.75460   0.76716   0.77298   0.78734
 Alpha virt. eigenvalues --    0.79185   0.81002   0.82005   0.82330   0.82758
 Alpha virt. eigenvalues --    0.84806   0.85549   0.87315   0.88000   0.89680
 Alpha virt. eigenvalues --    0.90370   0.92112   0.92768   0.93181   0.94098
 Alpha virt. eigenvalues --    0.95096   0.96394   0.96426   0.97295   0.99603
 Alpha virt. eigenvalues --    1.01031   1.02079   1.04036   1.04684   1.05644
 Alpha virt. eigenvalues --    1.06807   1.07053   1.09311   1.10850   1.11235
 Alpha virt. eigenvalues --    1.12356   1.14213   1.15009   1.15654   1.15923
 Alpha virt. eigenvalues --    1.17709   1.19065   1.20729   1.21923   1.22786
 Alpha virt. eigenvalues --    1.24043   1.25099   1.27252   1.28034   1.28408
 Alpha virt. eigenvalues --    1.31235   1.32965   1.34747   1.35025   1.35392
 Alpha virt. eigenvalues --    1.36996   1.39457   1.41777   1.42045   1.43341
 Alpha virt. eigenvalues --    1.44265   1.45449   1.46531   1.48179   1.48908
 Alpha virt. eigenvalues --    1.49193   1.51214   1.51587   1.54099   1.55067
 Alpha virt. eigenvalues --    1.55409   1.57039   1.58410   1.58912   1.60304
 Alpha virt. eigenvalues --    1.62077   1.62575   1.63831   1.64566   1.64706
 Alpha virt. eigenvalues --    1.66130   1.67341   1.68727   1.69344   1.69580
 Alpha virt. eigenvalues --    1.70380   1.71653   1.72563   1.73269   1.75100
 Alpha virt. eigenvalues --    1.75889   1.77294   1.78020   1.78374   1.80067
 Alpha virt. eigenvalues --    1.80836   1.82453   1.82824   1.84823   1.85335
 Alpha virt. eigenvalues --    1.86604   1.87047   1.88608   1.89425   1.89900
 Alpha virt. eigenvalues --    1.92609   1.92743   1.94671   1.96555   1.98191
 Alpha virt. eigenvalues --    2.00212   2.00859   2.01699   2.03403   2.05232
 Alpha virt. eigenvalues --    2.05582   2.08871   2.09639   2.11578   2.12229
 Alpha virt. eigenvalues --    2.13367   2.14086   2.16490   2.16742   2.18059
 Alpha virt. eigenvalues --    2.20387   2.20661   2.21695   2.22173   2.24591
 Alpha virt. eigenvalues --    2.26149   2.26667   2.27814   2.28339   2.31250
 Alpha virt. eigenvalues --    2.32692   2.32845   2.34951   2.35101   2.35917
 Alpha virt. eigenvalues --    2.37841   2.38990   2.40500   2.42523   2.42933
 Alpha virt. eigenvalues --    2.44113   2.46039   2.47423   2.47468   2.48294
 Alpha virt. eigenvalues --    2.49307   2.51825   2.53041   2.53951   2.54922
 Alpha virt. eigenvalues --    2.55636   2.57692   2.59222   2.59689   2.63408
 Alpha virt. eigenvalues --    2.64623   2.66664   2.69179   2.70498   2.71856
 Alpha virt. eigenvalues --    2.73078   2.74374   2.76028   2.77294   2.79894
 Alpha virt. eigenvalues --    2.80995   2.82240   2.85127   2.86771   2.87461
 Alpha virt. eigenvalues --    2.89833   2.90791   2.92231   2.93085   2.93626
 Alpha virt. eigenvalues --    2.96153   2.98305   2.99358   3.01637   3.03415
 Alpha virt. eigenvalues --    3.05913   3.06690   3.08075   3.09869   3.11798
 Alpha virt. eigenvalues --    3.12182   3.14499   3.14908   3.16650   3.18457
 Alpha virt. eigenvalues --    3.19122   3.22144   3.22516   3.23470   3.27816
 Alpha virt. eigenvalues --    3.27972   3.30730   3.31652   3.33100   3.35801
 Alpha virt. eigenvalues --    3.36478   3.38630   3.40800   3.41270   3.41837
 Alpha virt. eigenvalues --    3.42864   3.45337   3.46920   3.48085   3.50136
 Alpha virt. eigenvalues --    3.53505   3.58687   3.60016   3.60627   3.62739
 Alpha virt. eigenvalues --    3.64660   3.65263   3.68127   3.68743   3.74518
 Alpha virt. eigenvalues --    3.75416   3.78046   3.78657   3.81622   3.83405
 Alpha virt. eigenvalues --    3.85863   3.89210   3.91087   3.92176   3.95884
 Alpha virt. eigenvalues --    3.96874   4.01464   4.03236   4.05224   4.07379
 Alpha virt. eigenvalues --    4.09417   4.13190   4.14032   4.15598   4.19486
 Alpha virt. eigenvalues --    4.20795   4.22383   4.23284   4.26554   4.30310
 Alpha virt. eigenvalues --    4.32036   4.32258   4.37098   4.39847   4.40374
 Alpha virt. eigenvalues --    4.41514   4.43758   4.46112   4.47029   4.48862
 Alpha virt. eigenvalues --    4.51010   4.53188   4.54333   4.55232   4.58026
 Alpha virt. eigenvalues --    4.59317   4.61966   4.64453   4.65222   4.66683
 Alpha virt. eigenvalues --    4.67299   4.70751   4.73600   4.75489   4.80366
 Alpha virt. eigenvalues --    4.82396   4.85275   4.89401   4.92775   4.95929
 Alpha virt. eigenvalues --    4.96996   4.99511   5.05044   5.05470   5.06171
 Alpha virt. eigenvalues --    5.07574   5.13175   5.13439   5.17440   5.21172
 Alpha virt. eigenvalues --    5.28814   5.29630   5.31471   5.32611   5.34530
 Alpha virt. eigenvalues --    5.38676   5.47116   5.51273   5.53838   5.58927
 Alpha virt. eigenvalues --    5.65894   5.72884   5.82310   5.83946   5.85643
 Alpha virt. eigenvalues --    5.89433   5.97716   6.02337   6.23941   6.33394
 Alpha virt. eigenvalues --    6.37469   6.73604   6.79032   7.08370  10.12851
 Alpha virt. eigenvalues --   10.36411  10.69111  11.03512  11.27284  11.57890
 Alpha virt. eigenvalues --   11.86264  12.22125  12.43782  13.08202
          Condensed to atoms (all electrons):
               1          2          3          4          5          6
     1  O    7.945419   0.562517  -0.003856  -0.036737  -0.001398  -0.000059
     2  C    0.562517   4.716102  -0.020740   0.365042  -0.043646   0.000697
     3  C   -0.003856  -0.020740   5.614834   0.391377   0.387801   0.069236
     4  C   -0.036737   0.365042   0.391377   5.446329  -0.320515  -0.047983
     5  C   -0.001398  -0.043646   0.387801  -0.320515   5.293919   0.402685
     6  C   -0.000059   0.000697   0.069236  -0.047983   0.402685   5.309310
     7  C   -0.000001  -0.000242  -0.027503  -0.007786   0.049655   0.415773
     8  C   -0.000000   0.000003  -0.001546  -0.000517   0.012994  -0.060349
     9  C    0.000000   0.000000  -0.000070   0.000023   0.000121   0.012057
    10  C   -0.000000   0.000000  -0.000001  -0.000000  -0.000020  -0.001250
    11  S    0.000000  -0.000000  -0.000000   0.000000   0.000000   0.000234
    12  S    0.000000   0.000000   0.000000   0.000000   0.000000   0.000001
    13  S   -0.000000   0.000000   0.000000   0.000000  -0.000001   0.000065
    14  S   -0.000000   0.000001   0.000310  -0.000004   0.000116   0.002263
    15  S    0.000014   0.000298  -0.102363   0.017991   0.057788  -0.008478
    16  H   -0.122375   0.217221  -0.005635  -0.028125   0.020173   0.000020
    17  H    0.000331  -0.043955  -0.017017   0.355475  -0.003717  -0.014059
    18  H   -0.000006  -0.002040   0.017469   0.001826  -0.043808  -0.020428
    19  H    0.000004   0.000672   0.007693  -0.005210  -0.091558   0.337257
    20  H   -0.000000   0.000004   0.004012  -0.000195  -0.047202  -0.066898
    21  H   -0.000000  -0.000000   0.000027  -0.000044  -0.000199  -0.022585
    22  H    0.000000  -0.000000  -0.000025   0.000003   0.001146  -0.001135
    23  H   -0.000000   0.000000  -0.000000  -0.000000  -0.000002   0.000058
    24  H   -0.000000  -0.000000   0.000000  -0.000000  -0.000000   0.000000
    25  H    0.000000  -0.000000  -0.000000  -0.000000  -0.000000  -0.000000
               7          8          9         10         11         12
     1  O   -0.000001  -0.000000   0.000000  -0.000000   0.000000   0.000000
     2  C   -0.000242   0.000003   0.000000   0.000000  -0.000000   0.000000
     3  C   -0.027503  -0.001546  -0.000070  -0.000001  -0.000000   0.000000
     4  C   -0.007786  -0.000517   0.000023  -0.000000   0.000000   0.000000
     5  C    0.049655   0.012994   0.000121  -0.000020   0.000000   0.000000
     6  C    0.415773  -0.060349   0.012057  -0.001250   0.000234   0.000001
     7  C    4.735424   0.354705   0.028585  -0.005514   0.003709  -0.000006
     8  C    0.354705   5.421751   0.430352  -0.033587  -0.030868   0.000147
     9  C    0.028585   0.430352   5.155921   0.512282  -0.025431  -0.002162
    10  C   -0.005514  -0.033587   0.512282   5.109135   0.160838  -0.116639
    11  S    0.003709  -0.030868  -0.025431   0.160838  15.970886   0.012635
    12  S   -0.000006   0.000147  -0.002162  -0.116639   0.012635  15.990498
    13  S    0.000663  -0.002818  -0.034381   0.410430  -0.055938   0.179393
    14  S   -0.011128  -0.021398   0.039515  -0.034731   0.009558  -0.206768
    15  S   -0.108261  -0.026476  -0.025024   0.001030   0.000051  -0.000897
    16  H    0.000045   0.000000   0.000000   0.000000   0.000000  -0.000000
    17  H   -0.000578   0.000079  -0.000000  -0.000000   0.000000  -0.000000
    18  H    0.012180   0.000060   0.000176   0.000003  -0.000000   0.000001
    19  H   -0.004387  -0.028589  -0.000028   0.000056  -0.000049   0.000000
    20  H    0.375844  -0.104009  -0.056283   0.004298  -0.000648   0.000583
    21  H    0.008045   0.306453  -0.058973  -0.001507  -0.030380   0.000023
    22  H   -0.001619  -0.052881   0.268925  -0.015671   0.001586   0.004347
    23  H    0.000988  -0.000854  -0.016224  -0.001491   0.287240  -0.000189
    24  H    0.000002   0.000000   0.000337   0.009125   0.001030   0.234758
    25  H   -0.000002  -0.000105  -0.000545  -0.024482  -0.013397  -0.027636
              13         14         15         16         17         18
     1  O   -0.000000  -0.000000   0.000014  -0.122375   0.000331  -0.000006
     2  C    0.000000   0.000001   0.000298   0.217221  -0.043955  -0.002040
     3  C    0.000000   0.000310  -0.102363  -0.005635  -0.017017   0.017469
     4  C    0.000000  -0.000004   0.017991  -0.028125   0.355475   0.001826
     5  C   -0.000001   0.000116   0.057788   0.020173  -0.003717  -0.043808
     6  C    0.000065   0.002263  -0.008478   0.000020  -0.014059  -0.020428
     7  C    0.000663  -0.011128  -0.108261   0.000045  -0.000578   0.012180
     8  C   -0.002818  -0.021398  -0.026476   0.000000   0.000079   0.000060
     9  C   -0.034381   0.039515  -0.025024   0.000000  -0.000000   0.000176
    10  C    0.410430  -0.034731   0.001030   0.000000  -0.000000   0.000003
    11  S   -0.055938   0.009558   0.000051   0.000000   0.000000  -0.000000
    12  S    0.179393  -0.206768  -0.000897  -0.000000  -0.000000   0.000001
    13  S   15.072965   0.048447   0.000720   0.000000   0.000000  -0.000000
    14  S    0.048447  16.384723  -0.019249  -0.000000  -0.000001   0.001037
    15  S    0.000720  -0.019249  16.369675  -0.000078   0.000068   0.202555
    16  H    0.000000  -0.000000  -0.000078   0.896206  -0.003260   0.000119
    17  H    0.000000  -0.000001   0.000068  -0.003260   0.489476  -0.000733
    18  H   -0.000000   0.001037   0.202555   0.000119  -0.000733   0.635767
    19  H    0.000000  -0.000092   0.007118  -0.000483  -0.004203  -0.000490
    20  H    0.000017   0.019660  -0.046004  -0.000000  -0.000128   0.001189
    21  H    0.000487  -0.000904  -0.002259  -0.000000  -0.000043   0.000020
    22  H   -0.000148   0.034600   0.004388  -0.000000  -0.000001   0.000672
    23  H    0.001631   0.000136  -0.000069   0.000000  -0.000000   0.000000
    24  H   -0.007149   0.007325   0.000009   0.000000   0.000000  -0.000000
    25  H    0.199441   0.001477   0.000002   0.000000   0.000000   0.000000
              19         20         21         22         23         24
     1  O    0.000004  -0.000000  -0.000000   0.000000  -0.000000  -0.000000
     2  C    0.000672   0.000004  -0.000000  -0.000000   0.000000  -0.000000
     3  C    0.007693   0.004012   0.000027  -0.000025  -0.000000   0.000000
     4  C   -0.005210  -0.000195  -0.000044   0.000003  -0.000000  -0.000000
     5  C   -0.091558  -0.047202  -0.000199   0.001146  -0.000002  -0.000000
     6  C    0.337257  -0.066898  -0.022585  -0.001135   0.000058   0.000000
     7  C   -0.004387   0.375844   0.008045  -0.001619   0.000988   0.000002
     8  C   -0.028589  -0.104009   0.306453  -0.052881  -0.000854   0.000000
     9  C   -0.000028  -0.056283  -0.058973   0.268925  -0.016224   0.000337
    10  C    0.000056   0.004298  -0.001507  -0.015671  -0.001491   0.009125
    11  S   -0.000049  -0.000648  -0.030380   0.001586   0.287240   0.001030
    12  S    0.000000   0.000583   0.000023   0.004347  -0.000189   0.234758
    13  S    0.000000   0.000017   0.000487  -0.000148   0.001631  -0.007149
    14  S   -0.000092   0.019660  -0.000904   0.034600   0.000136   0.007325
    15  S    0.007118  -0.046004  -0.002259   0.004388  -0.000069   0.000009
    16  H   -0.000483  -0.000000  -0.000000  -0.000000   0.000000   0.000000
    17  H   -0.004203  -0.000128  -0.000043  -0.000001  -0.000000   0.000000
    18  H   -0.000490   0.001189   0.000020   0.000672   0.000000  -0.000000
    19  H    0.665766   0.014214   0.006299  -0.000039  -0.000040  -0.000000
    20  H    0.014214   0.770862   0.020550  -0.007363   0.000356  -0.000003
    21  H    0.006299   0.020550   0.669818   0.003322   0.003729  -0.000001
    22  H   -0.000039  -0.007363   0.003322   0.506254  -0.000179  -0.000042
    23  H   -0.000040   0.000356   0.003729  -0.000179   0.550712  -0.000009
    24  H   -0.000000  -0.000003  -0.000001  -0.000042  -0.000009   0.589770
    25  H   -0.000000   0.000000  -0.000012  -0.000053   0.000466  -0.006547
              25
     1  O    0.000000
     2  C   -0.000000
     3  C   -0.000000
     4  C   -0.000000
     5  C   -0.000000
     6  C   -0.000000
     7  C   -0.000002
     8  C   -0.000105
     9  C   -0.000545
    10  C   -0.024482
    11  S   -0.013397
    12  S   -0.027636
    13  S    0.199441
    14  S    0.001477
    15  S    0.000002
    16  H    0.000000
    17  H    0.000000
    18  H    0.000000
    19  H   -0.000000
    20  H    0.000000
    21  H   -0.000012
    22  H   -0.000053
    23  H    0.000466
    24  H   -0.006547
    25  H    0.790149
 Mulliken charges:
               1
     1  O   -0.343853
     2  C    0.248066
     3  C   -0.314002
     4  C   -0.130950
     5  C    0.325668
     6  C   -0.306430
     7  C    0.181409
     8  C   -0.162547
     9  C   -0.229174
    10  C    0.027698
    11  S   -0.291056
    12  S   -0.068090
    13  S    0.186177
    14  S   -0.254893
    15  S   -0.322551
    16  H    0.026173
    17  H    0.242267
    18  H    0.194433
    19  H    0.096090
    20  H    0.117141
    21  H    0.098133
    22  H    0.253913
    23  H    0.173741
    24  H    0.171395
    25  H    0.081242
 Sum of Mulliken charges =  -0.00000
 Mulliken charges with hydrogens summed into heavy atoms:
               1
     1  O   -0.343853
     2  C    0.274239
     3  C   -0.119569
     4  C    0.111318
     5  C    0.325668
     6  C   -0.210341
     7  C    0.298550
     8  C   -0.064414
     9  C    0.024740
    10  C    0.027698
    11  S   -0.117315
    12  S    0.103305
    13  S    0.267419
    14  S   -0.254893
    15  S   -0.322551
 Electronic spatial extent (au):  <R**2>=           7435.7016
 Charge=             -0.0000 electrons
 Dipole moment (field-independent basis, Debye):
    X=             -5.8120    Y=              4.1552    Z=              1.1800  Tot=              7.2413
 Quadrupole moment (field-independent basis, Debye-Ang):
   XX=           -142.3427   YY=           -125.5014   ZZ=           -126.0763
   XY=             17.2584   XZ=             -1.5960   YZ=             -2.8514
 Traceless Quadrupole moment (field-independent basis, Debye-Ang):
   XX=            -11.0359   YY=              5.8054   ZZ=              5.2305
   XY=             17.2584   XZ=             -1.5960   YZ=             -2.8514
 Octapole moment (field-independent basis, Debye-Ang**2):
  XXX=           -369.9174  YYY=             17.7479  ZZZ=              5.0187  XYY=             14.1447
  XXY=             26.4911  XXZ=             16.6371  XZZ=            -12.7251  YZZ=             -7.1275
  YYZ=             -2.1596  XYZ=              9.5915
 Hexadecapole moment (field-independent basis, Debye-Ang**3):
 XXXX=         -10254.1300 YYYY=          -1477.3831 ZZZZ=           -211.4215 XXXY=            307.6349
 XXXZ=            -48.8786 YYYX=             88.0983 YYYZ=             -7.8748 ZZZX=            -16.5022
 ZZZY=             -9.5481 XXYY=          -1657.3143 XXZZ=          -1381.7136 YYZZ=           -300.5740
 XXYZ=            -34.0767 YYXZ=              2.2364 ZZXY=             28.8387
 N-N= 1.587497858824D+03 E-N=-8.891425282050D+03  KE= 2.410481901278D+03
 PrsmSu:  requested number of processors reduced to:  13 ShMem   1 Linda.
 Calling FoFJK, ICntrl=      2127 FMM=F ISym2X=0 I1Cent= 0 IOpClX= 0 NMat=1 NMatS=1 NMatT=0.
 ***** Axes restored to original set *****
 -------------------------------------------------------------------
 Center     Atomic                   Forces (Hartrees/Bohr)
 Number     Number              X              Y              Z
 -------------------------------------------------------------------
      1        8           0.073061916   -0.102647285   -0.006152672
      2        6          -0.052699686    0.191736318   -0.023885577
      3        6          -0.354187369   -0.164543135    0.135563765
      4        6          -0.176975872    0.270324080   -0.011544747
      5        6           0.410927694   -0.029917422   -0.084060378
      6        6           0.066427210    0.017916184   -0.012436243
      7        6          -0.097314309    0.025276685    0.008093631
      8        6           0.087544873    0.001212380   -0.010345658
      9        6          -0.012385208   -0.030080030   -0.000648996
     10        6          -0.098902566    0.339751586   -0.231389439
     11       16           0.006667125   -0.017533061   -0.009363677
     12       16          -0.057774912   -0.329216732   -0.072766748
     13       16           0.254093268   -0.049191543    0.370725413
     14       16          -0.040499380    0.007882132    0.019077230
     15       16          -0.072094783   -0.026951907   -0.018692595
     16        1           0.023356639   -0.041795545    0.020726567
     17        1          -0.000929206   -0.047575702    0.007433720
     18        1           0.009160257   -0.063440565    0.009037144
     19        1          -0.019740911    0.054472649   -0.008319529
     20        1          -0.065628336   -0.090508582   -0.002319398
     21        1           0.072972820    0.062774234    0.009632072
     22        1           0.044355097   -0.009781316   -0.008372845
     23        1           0.008165908    0.003674105    0.001058150
     24        1           0.039786746    0.015830188   -0.065552929
     25        1          -0.047387017    0.012332286   -0.015496262
 -------------------------------------------------------------------
 Cartesian Forces:  Max     0.410927694 RMS     0.120368501

 GradGradGradGradGradGradGradGradGradGradGradGradGradGradGradGradGradGrad
 Berny optimization.
 FormGI is forming the generalized inverse of G from B-inverse, IUseBI=4.
 Internal  Forces:  Max     0.445025643 RMS     0.085780621
 Search for a local minimum.
 Step number   1 out of a maximum of  117
 All quantities printed in internal units (Hartrees-Bohrs-Radians)
 Mixed Optimization -- RFO/linear search
 Second derivative matrix not updated -- first step.
 ITU=  0
     Eigenvalues ---    0.00230   0.00230   0.00230   0.00230   0.00941
     Eigenvalues ---    0.01274   0.02007   0.02233   0.02340   0.02505
     Eigenvalues ---    0.02678   0.02695   0.02926   0.02951   0.03125
     Eigenvalues ---    0.03501   0.04042   0.04958   0.05448   0.05487
     Eigenvalues ---    0.05925   0.06282   0.08264   0.09007   0.09044
     Eigenvalues ---    0.09810   0.10285   0.10581   0.10927   0.12718
     Eigenvalues ---    0.13155   0.13994   0.15741   0.15978   0.15998
     Eigenvalues ---    0.16000   0.16000   0.16000   0.16376   0.18005
     Eigenvalues ---    0.18589   0.18641   0.20093   0.21997   0.22001
     Eigenvalues ---    0.22023   0.22219   0.22229   0.22275   0.23246
     Eigenvalues ---    0.25000   0.26040   0.27434   0.29513   0.35804
     Eigenvalues ---    0.37305   0.41601   0.49917   0.50158   0.50951
     Eigenvalues ---    0.51263   0.52956   0.53882   0.58883   0.62827
     Eigenvalues ---    0.82389   1.14513   1.23910   1.35416
 RFO step:  Lambda=-5.94611933D-01 EMin= 2.30000000D-03
 Linear search not attempted -- first point.
 Maximum step size (   0.300) exceeded in Quadratic search.
    -- Step size scaled by   0.433
 Iteration  1 RMS(Cart)=  0.12599173 RMS(Int)=  0.00200577
 Iteration  2 RMS(Cart)=  0.00457082 RMS(Int)=  0.00014906
 Iteration  3 RMS(Cart)=  0.00001422 RMS(Int)=  0.00014895
 Iteration  4 RMS(Cart)=  0.00000000 RMS(Int)=  0.00014895
 Variable       Old X    -DE/DX   Delta X   Delta X   Delta X     New X
                                 (Linear)    (Quad)   (Total)
    R1        2.51835  -0.09639   0.00000  -0.03525  -0.03525   2.48311
    R2        2.96636  -0.03349   0.00000  -0.01695  -0.01695   2.94941
    R3        2.66604  -0.03837   0.00000  -0.02260  -0.02260   2.64344
    R4        2.53820   0.14012   0.00000   0.04791   0.04753   2.58573
    R5        2.14199   0.32608   0.00000   0.07949   0.07968   2.22167
    R6        2.74678   0.05068   0.00000   0.02977   0.02965   2.77643
    R7        2.61462   0.21349   0.00000   0.07790   0.07815   2.69277
    R8        2.15645  -0.04473   0.00000  -0.02176  -0.02176   2.13469
    R9        2.55166   0.05772   0.00000   0.02751   0.02754   2.57920
   R10        2.47376   0.07947   0.00000   0.03147   0.03158   2.50535
   R11        1.96134   0.04084   0.00000   0.01749   0.01749   1.97883
   R12        2.36652   0.25212   0.00000   0.07692   0.07692   2.44344
   R13        1.83725   0.15002   0.00000   0.05560   0.05568   1.89292
   R14        2.58612   0.07954   0.00000   0.03109   0.03109   2.61720
   R15        1.86649   0.09051   0.00000   0.03581   0.03581   1.90230
   R16        2.56139   0.10469   0.00000   0.03997   0.03997   2.60137
   R17        2.33555  -0.00520   0.00000  -0.00276  -0.00276   2.33279
   R18        4.06206  -0.00235   0.00000  -0.00145  -0.00145   4.06061
   R19        2.60791   0.44503   0.00000   0.09883   0.09883   2.70674
   R20        2.50892  -0.00345   0.00000  -0.00172  -0.00172   2.50720
   R21        3.18653   0.33704   0.00000   0.07954   0.07954   3.26607
   R22        2.35189   0.07514   0.00000   0.03413   0.03413   2.38602
   R23        3.26493  -0.04878   0.00000  -0.03048  -0.03048   3.23445
   R24        3.41815   0.00081   0.00000   0.00052   0.00052   3.41866
   R25        3.19461  -0.01828   0.00000  -0.01815  -0.01824   3.17637
   R26        3.38520   0.07761   0.00000   0.04012   0.04011   3.42531
    A1        1.41302   0.09257   0.00000   0.05830   0.05830   1.47132
    A2        1.67524   0.01969   0.00000   0.01651   0.01651   1.69175
    A3        2.47125  -0.00123   0.00000   0.01474   0.01460   2.48586
    A4        1.38343   0.02100   0.00000   0.01408   0.01403   1.39746
    A5        1.50863  -0.02167   0.00000   0.00292   0.00298   1.51161
    A6        2.31720   0.05145   0.00000   0.01389   0.01380   2.33100
    A7        1.74735   0.00055   0.00000   0.00055   0.00054   1.74789
    A8        2.18598  -0.05147   0.00000  -0.01351  -0.01342   2.17257
    A9        2.69079   0.03962   0.00000   0.02264   0.02271   2.71350
   A10        1.74154   0.09819   0.00000   0.03632   0.03587   1.77741
   A11        2.14690  -0.04885   0.00000  -0.01000  -0.00987   2.13703
   A12        2.36270  -0.01464   0.00000  -0.01739  -0.01745   2.34525
   A13        1.77264   0.06333   0.00000   0.02724   0.02716   1.79980
   A14        2.68876  -0.08482   0.00000  -0.04844  -0.04855   2.64021
   A15        2.00803  -0.03616   0.00000  -0.01554  -0.01531   1.99272
   A16        1.57350   0.11946   0.00000   0.06321   0.06315   1.63665
   A17        1.97744   0.08329   0.00000   0.04429   0.04430   2.02174
   A18        1.90360  -0.01043   0.00000  -0.00410  -0.00407   1.89953
   A19        2.38185  -0.07193   0.00000  -0.03962  -0.03964   2.34221
   A20        2.26058   0.01199   0.00000   0.00638   0.00637   2.26695
   A21        1.79317  -0.03918   0.00000  -0.02220  -0.02222   1.77095
   A22        2.22917   0.02750   0.00000   0.01604   0.01602   2.24520
   A23        1.80587   0.02666   0.00000   0.01471   0.01465   1.82052
   A24        2.33063   0.04471   0.00000   0.02526   0.02524   2.35586
   A25        1.67586  -0.03187   0.00000  -0.01592  -0.01613   1.65972
   A26        1.62383   0.02090   0.00000   0.01198   0.01198   1.63582
   A27        2.02405  -0.05135   0.00000  -0.02945  -0.02945   1.99460
   A28        1.71406   0.14383   0.00000   0.07492   0.07530   1.78936
   A29        2.11243  -0.05597   0.00000  -0.03164  -0.03129   2.08114
   A30        1.80262  -0.06000   0.00000  -0.03188  -0.03125   1.77137
   A31        2.08735   0.04019   0.00000   0.00925   0.00896   2.09631
   A32        1.99570   0.03560   0.00000   0.01514   0.01476   2.01046
   A33        2.28626   0.04062   0.00000   0.01645   0.01655   2.30281
   A34        1.66357   0.09610   0.00000   0.04924   0.04924   1.71281
   A35        3.08826   0.11226   0.00000   0.07480   0.07480   3.16307
   A36        3.25598  -0.02112   0.00000   0.00346   0.00353   3.25951
   A37        3.14683   0.00622   0.00000   0.00451   0.00451   3.15134
   A38        3.09872  -0.01716   0.00000  -0.00524  -0.00512   3.09360
    D1        3.03120  -0.03393   0.00000  -0.01730  -0.01719   3.01402
    D2       -2.93822  -0.00735   0.00000  -0.01275  -0.01284  -2.95107
    D3       -0.06751  -0.01678   0.00000  -0.01205  -0.01207  -0.07958
    D4        2.28680  -0.02500   0.00000  -0.01937  -0.01928   2.26751
    D5       -2.53950   0.01840   0.00000   0.01039   0.01039  -2.52911
    D6        1.36520  -0.00183   0.00000   0.00629   0.00624   1.37144
    D7        0.85186  -0.02870   0.00000  -0.01385  -0.01397   0.83788
    D8        3.08667  -0.02106   0.00000  -0.01312  -0.01322   3.07345
    D9        0.27351  -0.02193   0.00000  -0.01726  -0.01736   0.25615
   D10        2.22922  -0.00518   0.00000  -0.00117  -0.00135   2.22787
   D11       -0.96844  -0.00799   0.00000  -0.00480  -0.00492  -0.97336
   D12        3.05266   0.00862   0.00000   0.00870   0.00885   3.06152
   D13       -0.14500   0.00581   0.00000   0.00507   0.00529  -0.13972
   D14        3.09197   0.00331   0.00000   0.00208   0.00202   3.09399
   D15       -0.30536   0.01279   0.00000   0.00825   0.00836  -0.29700
   D16       -0.00942   0.00644   0.00000   0.00561   0.00558  -0.00384
   D17        2.87643   0.01593   0.00000   0.01178   0.01193   2.88836
   D18       -2.95223   0.00996   0.00000   0.00668   0.00648  -2.94575
   D19        0.01063   0.00424   0.00000   0.00374   0.00374   0.01437
   D20        0.42058   0.00547   0.00000   0.00288   0.00288   0.42346
   D21       -2.89974  -0.00025   0.00000  -0.00006   0.00014  -2.89960
   D22        0.19885  -0.00060   0.00000  -0.00060  -0.00059   0.19826
   D23       -3.05365  -0.01601   0.00000  -0.00908  -0.00886  -3.06250
   D24       -3.03205  -0.00304   0.00000  -0.00266  -0.00269  -3.03473
   D25        0.08603   0.01126   0.00000   0.00733   0.00720   0.09323
   D26        0.35600  -0.01322   0.00000  -0.00870  -0.00857   0.34743
   D27       -2.80912   0.00109   0.00000   0.00129   0.00132  -2.80779
   D28       -0.17670   0.01511   0.00000   0.00987   0.00979  -0.16691
   D29        1.77990   0.02533   0.00000   0.01843   0.01860   1.79850
   D30        2.99390  -0.00166   0.00000  -0.00194  -0.00212   2.99178
   D31       -1.33269   0.00856   0.00000   0.00661   0.00670  -1.32599
   D32       -2.23675   0.05392   0.00000   0.03927   0.03928  -2.19746
   D33        0.88191   0.06761   0.00000   0.04885   0.04883   0.93074
   D34        0.02498   0.02295   0.00000   0.01339   0.01332   0.03831
   D35       -2.37512  -0.02283   0.00000  -0.01331  -0.01324  -2.38835
   D36        1.73018   0.00645   0.00000   0.00607   0.00638   1.73656
   D37       -2.61641   0.01179   0.00000   0.00712   0.00695  -2.60945
   D38       -2.54517   0.03620   0.00000   0.02464   0.02481  -2.52036
   D39       -0.60857   0.04153   0.00000   0.02569   0.02538  -0.58319
   D40        1.06572  -0.00959   0.00000  -0.00601  -0.00613   1.05959
   D41       -1.11066   0.01563   0.00000   0.01003   0.01016  -1.10051
   D42       -0.88556  -0.00146   0.00000   0.00734   0.00743  -0.87814
   D43        0.21298  -0.00448   0.00000  -0.00159  -0.00147   0.21152
         Item               Value     Threshold  Converged?
 Maximum Force            0.445026     0.000450     NO 
 RMS     Force            0.085781     0.000300     NO 
 Maximum Displacement     0.582183     0.001800     NO 
 RMS     Displacement     0.128579     0.001200     NO 
 Predicted change in Energy=-2.309497D-01
 GradGradGradGradGradGradGradGradGradGradGradGradGradGradGradGradGradGrad

                          Input orientation:                          
 ---------------------------------------------------------------------
 Center     Atomic      Atomic             Coordinates (Angstroms)
 Number     Number       Type             X           Y           Z
 ---------------------------------------------------------------------
      1          8           0        1.789863   -0.814225   -0.035346
      2          6           0        3.077246   -1.076071   -0.009167
      3          6           0        4.220616   -2.730350    0.098809
      4          6           0        4.599802   -1.418992    0.004878
      5          6           0        5.339969   -2.611648   -0.240500
      6          6           0        6.626870   -2.167768   -0.142103
      7          6           0        7.668557   -2.984502   -0.216292
      8          6           0        8.943890   -3.196868   -0.233940
      9          6           0        9.338124   -4.474327   -0.595606
     10          6           0       10.591790   -5.042897   -0.601227
     11         16           0       11.923373   -3.396163   -0.237342
     12         16           0       11.114787   -7.459246   -0.597449
     13         16           0       11.290746   -5.961483    0.246870
     14         16           0        8.347192   -6.436220    0.177592
     15         16           0        5.857183   -4.826794   -0.014220
     16          1           0        3.216481    0.313571    0.070104
     17          1           0        5.038419   -0.378223   -0.017090
     18          1           0        4.445803   -4.053372   -0.499121
     19          1           0        7.070918   -1.223936   -0.049739
     20          1           0        7.442701   -3.950826   -0.079929
     21          1           0        9.421415   -2.315942   -0.137549
     22          1           0        8.257762   -4.987150   -0.901744
     23          1           0       10.938981   -2.515787   -0.110113
     24          1           0       11.617478   -7.464552   -1.755680
     25          1           0       12.992931   -5.844538    0.382733
 ---------------------------------------------------------------------
                    Distance matrix (angstroms):
                    1          2          3          4          5
     1  O    0.000000
     2  C    1.314003   0.000000
     3  C    3.098079   2.013850   0.000000
     4  C    2.874564   1.560759   1.368307   0.000000
     5  C    3.984478   2.744344   1.175658   1.424951   0.000000
     6  C    5.023953   3.716087   2.482860   2.165934   1.364854
     7  C    6.269122   4.976459   3.471625   3.452100   2.358374
     8  C    7.542978   6.242260   4.757906   4.699891   3.651133
     9  C    8.407525   7.147772   5.450922   5.669863   4.425033
    10  C    9.781401   8.517900   6.813940   7.028796   5.798510
    11  S   10.459218   9.148161   7.738783   7.589635   6.629984
    12  S   11.464139  10.280713   8.389089   8.904633   7.548188
    13  S   10.809287   9.560041   7.774887   8.090829   6.846216
    14  S    8.640066   7.519202   5.546919   6.264610   4.883190
    15  S    5.713515   4.668618   2.661992   3.632421   2.285954
    16  H    1.821615   1.398848   3.205396   2.218018   3.628027
    17  H    3.277735   2.081647   2.492937   1.129631   2.264736
    18  H    4.214402   3.313205   1.469224   2.686576   1.716097
    19  H    5.296943   3.996614   3.227316   2.479404   2.226728
    20  H    6.464892   5.227467   3.450121   3.807814   2.498132
    21  H    7.778572   6.465465   5.222634   4.906399   4.093439
    22  H    7.745816   6.552174   4.732103   5.189835   3.820180
    23  H    9.306302   7.993112   6.725036   6.434389   5.601350
    24  H   11.990347  10.807338   8.975821   9.428475   8.077968
    25  H   12.287700  11.009663   9.313017   9.495938   8.331136
                    6          7          8          9         10
     6  C    0.000000
     7  C    1.325772   0.000000
     8  C    2.536940   1.293014   0.000000
     9  C    3.588423   2.269562   1.384964   0.000000
    10  C    4.919121   3.595894   2.501659   1.376583   0.000000
    11  S    5.437920   4.274736   2.986143   2.823881   2.148780
    12  S    6.953307   5.660841   4.797166   3.473655   2.472303
    13  S    6.024559   4.711389   3.658143   2.595020   1.432344
    14  S    4.613176   3.539781   3.319459   2.329980   2.754293
    15  S    2.771135   2.591515   3.497527   3.546716   4.775749
    16  H    4.222893   5.547998   6.724495   7.800105   9.139891
    17  H    2.396095   3.708099   4.821253   5.966591   7.276010
    18  H    2.905171   3.407142   4.586579   4.911346   6.225973
    19  H    1.047153   1.866683   2.726612   4.000405   5.223518
    20  H    1.961821   1.001693   1.686933   2.032881   3.373594
    21  H    2.798474   1.877680   1.006654   2.208026   3.003508
    22  H    3.344515   2.197181   2.030233   1.234460   2.353955
    23  H    4.326250   3.305547   2.111774   2.575718   2.597695
    24  H    7.454242   6.167215   5.260884   3.934803   2.872144
    25  H    7.370266   6.073516   4.877005   4.023958   2.715931
                   11         12         13         14         15
    11  S    0.000000
    12  S    4.158381   0.000000
    13  S    2.686177   1.728332   0.000000
    14  S    4.712026   3.050713   2.982395   0.000000
    15  S    6.236598   5.908668   5.556914   2.971059   0.000000
    16  H    9.469246  11.101601  10.227477   8.479117   5.779599
    17  H    7.520576   9.348794   8.386540   6.905447   4.523291
    18  H    7.510959   7.488991   7.144972   4.621335   1.680863
    19  H    5.319783   7.451977   6.351321   5.371077   3.801973
    20  H    4.517616   5.105003   4.353962   2.657368   1.812596
    21  H    2.727019   5.434390   4.114869   4.269656   4.361575
    22  H    4.050849   3.790309   3.386388   1.809079   2.564409
    23  H    1.326755   4.970532   3.481953   4.708496   5.583423
    24  H    4.353241   1.262627   2.525110   3.935705   6.570499
    25  H    2.742806   2.663731   1.711599   4.687757   7.218883
                   16         17         18         19         20
    16  H    0.000000
    17  H    1.950805   0.000000
    18  H    4.572247   3.753701   0.000000
    19  H    4.151502   2.201669   3.885728   0.000000
    20  H    6.005707   4.306740   3.027810   2.752284   0.000000
    21  H    6.742303   4.793737   5.282623   2.593265   2.567387
    22  H    7.379475   5.691133   3.945260   4.036867   1.553600
    23  H    8.226466   6.276501   6.684074   4.078534   3.779447
    24  H   11.593508   9.824600   8.040399   7.907385   5.708168
    25  H   11.558504   9.659954   8.777205   7.523778   5.882623
                   21         22         23         24         25
    21  H    0.000000
    22  H    3.012214   0.000000
    23  H    1.530914   3.731387   0.000000
    24  H    5.826597   4.260800   5.259137   0.000000
    25  H    5.047515   4.980644   3.942358   3.014818   0.000000
 Stoichiometry    C9H10OS5
 Framework group  C1[X(C9H10OS5)]
 Deg. of freedom    69
 Full point group                 C1      NOp   1
 Largest Abelian subgroup         C1      NOp   1
 Largest concise Abelian subgroup C1      NOp   1
                         Standard orientation:                         
 ---------------------------------------------------------------------
 Center     Atomic      Atomic             Coordinates (Angstroms)
 Number     Number       Type             X           Y           Z
 ---------------------------------------------------------------------
      1          8           0        7.188410   -0.077319    0.070232
      2          6           0        5.936291    0.315842    0.005232
      3          6           0        4.137971   -0.580653   -0.128685
      4          6           0        4.438930    0.752085   -0.054535
      5          6           0        3.208086    0.071646    0.174616
      6          6           0        2.299851    1.080578    0.033233
      7          6           0        0.991501    0.871426    0.079577
      8          6           0       -0.227199    1.302946    0.058464
      9          6           0       -1.199395    0.383330    0.415206
     10          6           0       -2.571311    0.492460    0.384881
     11         16           0       -2.929724    2.570031   -0.030443
     12         16           0       -4.198561   -1.368806    0.379131
     13         16           0       -3.606553    0.009555   -0.479228
     14         16           0       -1.263582   -1.828413   -0.314778
     15         16           0        1.688775   -1.620916   -0.054543
     16          1           0        6.489276    1.597457   -0.086671
     17          1           0        4.558667    1.875351   -0.052562
     18          1           0        3.285764   -1.617091    0.469779
     19          1           0        2.370713    2.119322   -0.078657
     20          1           0        0.724531   -0.086112   -0.043856
     21          1           0       -0.215975    2.302762   -0.058127
     22          1           0       -0.510289   -0.581766    0.758155
     23          1           0       -1.639370    2.861502   -0.131977
     24          1           0       -4.669253   -1.106610    1.521029
     25          1           0       -5.035379    0.932572   -0.669135
 ---------------------------------------------------------------------
 Rotational constants (GHZ):           0.8791199           0.1428483           0.1242996
 Standard basis: 6-31G(2df,p) (6D, 7F)
 There are   535 symmetry adapted cartesian basis functions of A   symmetry.
 There are   490 symmetry adapted basis functions of A   symmetry.
   490 basis functions,   850 primitive gaussians,   535 cartesian basis functions
    76 alpha electrons       76 beta electrons
       nuclear repulsion energy      1542.5664548172 Hartrees.
 NAtoms=   25 NActive=   25 NUniq=   25 SFac= 1.00D+00 NAtFMM=   60 NAOKFM=F Big=F
 Integral buffers will be    131072 words long.
 Raffenetti 2 integral format.
 Two-electron integral symmetry is turned on.
 One-electron integrals computed using PRISM.
 PrsmSu:  requested number of processors reduced to:  12 ShMem   1 Linda.
 NBasis=   490 RedAO= T EigKep=  1.54D-04  NBF=   490
 NBsUse=   490 1.00D-06 EigRej= -1.00D+00 NBFU=   490
 Initial guess from the checkpoint file:  "OdCC1dCCdCCdCCdCqSr[SH]d[SH]SS1.chk"
 B after Tr=    -0.000000   -0.000000   -0.000000
         Rot=    0.999999    0.000866    0.000909    0.001073 Ang=   0.19 deg.
 ExpMin= 1.17D-01 ExpMax= 2.19D+04 ExpMxC= 3.30D+03 IAcc=2 IRadAn=         4 AccDes= 0.00D+00
 Harris functional with IExCor=  402 and IRadAn=       4 diagonalized for initial guess.
 HarFok:  IExCor=  402 AccDes= 0.00D+00 IRadAn=         4 IDoV= 1 UseB2=F ITyADJ=14
 ICtDFT=  3500011 ScaDFX=  1.000000  1.000000  1.000000  1.000000
 FoFCou: FMM=F IPFlag=           0 FMFlag=      100000 FMFlg1=           0
         NFxFlg=           0 DoJE=T BraDBF=F KetDBF=T FulRan=T
         wScrn=  0.000000 ICntrl=       500 IOpCl=  0 I1Cent=   200000004 NGrid=           0
         NMat0=    1 NMatS0=      1 NMatT0=    0 NMatD0=    1 NMtDS0=    0 NMtDT0=    0
 Petite list used in FoFCou.
 Requested convergence on RMS density matrix=1.00D-08 within 128 cycles.
 Requested convergence on MAX density matrix=1.00D-06.
 Requested convergence on             energy=1.00D-06.
 No special actions if energy rises.
 Integral accuracy reduced to 1.0D-05 until final iterations.
 EnCoef did     3 forward-backward iterations
 Initial convergence to 1.0D-05 achieved.  Increase integral accuracy.
 SCF Done:  E(RB3LYP) =  -2413.94184236     A.U. after   25 cycles
            NFock= 25  Conv=0.77D-08     -V/T= 2.0020
 PrsmSu:  requested number of processors reduced to:  13 ShMem   1 Linda.
 Calling FoFJK, ICntrl=      2127 FMM=F ISym2X=0 I1Cent= 0 IOpClX= 0 NMat=1 NMatS=1 NMatT=0.
 ***** Axes restored to original set *****
 -------------------------------------------------------------------
 Center     Atomic                   Forces (Hartrees/Bohr)
 Number     Number              X              Y              Z
 -------------------------------------------------------------------
      1        8           0.077746580   -0.100236091   -0.005355953
      2        6          -0.064077878    0.192194231   -0.021923706
      3        6          -0.250131525   -0.114136685    0.105438939
      4        6          -0.148598474    0.207842610   -0.018780593
      5        6           0.311768090   -0.016049725   -0.050094863
      6        6           0.055042629    0.006636211   -0.010082295
      7        6          -0.047734880   -0.004836828    0.011885288
      8        6           0.035889860    0.006378334   -0.010066820
      9        6          -0.007132669   -0.032463656    0.013346297
     10        6          -0.086188731    0.261911004   -0.159034783
     11       16           0.003252286   -0.019127392   -0.011478623
     12       16          -0.035328813   -0.263667413   -0.048227330
     13       16           0.186092937   -0.014480950    0.268552808
     14       16          -0.004783874    0.015919259    0.004363223
     15       16          -0.079610969   -0.016340350   -0.027487743
     16        1           0.023614674   -0.042794855    0.018266711
     17        1           0.003097097   -0.040342033    0.007897798
     18        1           0.017298765   -0.070918460    0.013734146
     19        1          -0.019326933    0.046025642   -0.007234075
     20        1          -0.050649122   -0.062595992   -0.008159664
     21        1           0.058829581    0.045399921    0.004218640
     22        1           0.037492048   -0.014188581   -0.004901350
     23        1           0.005530305    0.003894216    0.001527486
     24        1           0.030367979    0.017113474   -0.052380821
     25        1          -0.052458963    0.008864109   -0.014022718
 -------------------------------------------------------------------
 Cartesian Forces:  Max     0.311768090 RMS     0.092452732

 GradGradGradGradGradGradGradGradGradGradGradGradGradGradGradGradGradGrad
 Berny optimization.
 Using GEDIIS/GDIIS optimizer.
 FormGI is forming the generalized inverse of G from B-inverse, IUseBI=4.
 Internal  Forces:  Max     0.315650893 RMS     0.064736559
 Search for a local minimum.
 Step number   2 out of a maximum of  117
 All quantities printed in internal units (Hartrees-Bohrs-Radians)
 Mixed Optimization -- RFO/linear search
 Update second derivatives using D2CorX and points    1    2
 DE= -2.23D-01 DEPred=-2.31D-01 R= 9.68D-01
 TightC=F SS=  1.41D+00  RLast= 3.14D-01 DXNew= 5.0454D-01 9.4235D-01
 Trust test= 9.68D-01 RLast= 3.14D-01 DXMaxT set to 5.05D-01
 ITU=  1  0
 Use linear search instead of GDIIS.
 Linear search step of   0.600 exceeds DXMaxT=   0.505 but not scaled.
 Quartic linear search produced a step of  2.00000.
 Iteration  1 RMS(Cart)=  0.24686786 RMS(Int)=  0.00773331
 Iteration  2 RMS(Cart)=  0.01968192 RMS(Int)=  0.00088947
 Iteration  3 RMS(Cart)=  0.00023769 RMS(Int)=  0.00088360
 Iteration  4 RMS(Cart)=  0.00000020 RMS(Int)=  0.00088360
 Variable       Old X    -DE/DX   Delta X   Delta X   Delta X     New X
                                 (Linear)    (Quad)   (Total)
    R1        2.48311  -0.09604  -0.07049   0.00000  -0.07049   2.41261
    R2        2.94941  -0.02549  -0.03390   0.00000  -0.03390   2.91551
    R3        2.64344  -0.03913  -0.04521   0.00000  -0.04521   2.59823
    R4        2.58573   0.11077   0.09505   0.00000   0.09288   2.67860
    R5        2.22167   0.23765   0.15936   0.00000   0.16038   2.38205
    R6        2.77643   0.05326   0.05931   0.00000   0.05865   2.83508
    R7        2.69277   0.16515   0.15630   0.00000   0.15775   2.85051
    R8        2.13469  -0.03612  -0.04351   0.00000  -0.04351   2.09118
    R9        2.57920   0.03306   0.05507   0.00000   0.05519   2.63439
   R10        2.50535   0.06309   0.06316   0.00000   0.06380   2.56915
   R11        1.97883   0.03265   0.03498   0.00000   0.03498   2.01381
   R12        2.44344   0.16677   0.15383   0.00000   0.15383   2.59728
   R13        1.89292   0.11742   0.11136   0.00000   0.11178   2.00471
   R14        2.61720   0.05588   0.06217   0.00000   0.06217   2.67938
   R15        1.90230   0.06804   0.07162   0.00000   0.07162   1.97392
   R16        2.60137   0.04902   0.07994   0.00000   0.07994   2.68131
   R17        2.33279  -0.02921  -0.00551   0.00000  -0.00551   2.32728
   R18        4.06061  -0.00792  -0.00290   0.00000  -0.00290   4.05771
   R19        2.70674   0.31565   0.19766   0.00000   0.19766   2.90439
   R20        2.50720  -0.00137  -0.00344   0.00000  -0.00344   2.50376
   R21        3.26607   0.26332   0.15909   0.00000   0.15909   3.42516
   R22        2.38602   0.06007   0.06827   0.00000   0.06827   2.45429
   R23        3.23445  -0.05268  -0.06095   0.00000  -0.06095   3.17350
   R24        3.41866  -0.01038   0.00103   0.00000   0.00103   3.41970
   R25        3.17637  -0.03216  -0.03648   0.00000  -0.03697   3.13940
   R26        3.42531   0.06961   0.08022   0.00000   0.08018   3.50549
    A1        1.47132   0.09347   0.11660   0.00000   0.11660   1.58792
    A2        1.69175   0.01920   0.03301   0.00000   0.03301   1.72476
    A3        2.48586   0.00120   0.02921   0.00000   0.02841   2.51427
    A4        1.39746   0.01810   0.02807   0.00000   0.02777   1.42523
    A5        1.51161  -0.00766   0.00597   0.00000   0.00634   1.51796
    A6        2.33100   0.04058   0.02759   0.00000   0.02707   2.35806
[...]
 Iteration  2 RMS(Cart)=  0.00093002 RMS(Int)=  0.00011835
 Iteration  3 RMS(Cart)=  0.00000054 RMS(Int)=  0.00011835
 Variable       Old X    -DE/DX   Delta X   Delta X   Delta X     New X
                                 (Linear)    (Quad)   (Total)
    R1        2.27911  -0.00109   0.00012  -0.00065  -0.00053   2.27859
    R2        2.82209  -0.00063  -0.00103  -0.00048  -0.00151   2.82058
    R3        2.10641  -0.00138   0.00129  -0.00855  -0.00726   2.09915
    R4        2.47366  -0.00006   0.00011   0.00068   0.00066   2.47431
    R5        2.48134   0.00044   0.00126   0.00071   0.00191   2.48325
    R6        4.97727  -0.00050  -0.00788  -0.00088  -0.00879   4.96848
    R7        4.95377   0.00039   0.00122   0.00141   0.00275   4.95652
    R8        2.06082  -0.00010  -0.00018   0.00048   0.00030   2.06112
    R9        2.74413   0.00043   0.00301  -0.00186   0.00119   2.74533
   R10        2.55903   0.00025   0.00055   0.00004   0.00066   2.55969
   R11        2.05244   0.00030   0.00001   0.00081   0.00082   2.05326
   R12        2.70381  -0.00112  -0.00107  -0.00299  -0.00406   2.69974
   R13        2.05103   0.00017   0.00085   0.00025   0.00115   2.05218
   R14        2.58566   0.00069   0.00153   0.00076   0.00229   2.58794
   R15        2.05297  -0.00010   0.00023  -0.00044  -0.00021   2.05276
   R16        2.73064  -0.00046   0.00296  -0.00437  -0.00142   2.72922
   R17        4.48801  -0.00098  -0.00073   0.00202   0.00129   4.48930
   R18        3.36272  -0.00083  -0.00302  -0.00127  -0.00429   3.35842
   R19        3.20193   0.00071   0.00047   0.00212   0.00259   3.20452
   R20        2.54924  -0.00010  -0.00068  -0.00002  -0.00070   2.54854
   R21        4.65892   0.00077   0.01528   0.00229   0.01757   4.67649
   R22        2.54560   0.00017   0.00015   0.00036   0.00051   2.54611
   R23        2.54235  -0.00042  -0.00230   0.00102  -0.00128   2.54107
   R24        2.55465  -0.00018   0.00138  -0.00058   0.00080   2.55545
   R25        2.53853   0.00048  -0.00291   0.00457   0.00160   2.54014
   R26        5.08996  -0.00023  -0.00563  -0.00286  -0.00853   5.08143
    A1        2.11750   0.00007   0.00058   0.00054   0.00111   2.11861
    A2        1.97649   0.00022  -0.00040   0.00144   0.00104   1.97753
    A3        2.04710  -0.00067  -0.00263  -0.00848  -0.01084   2.03626
    A4        1.10473  -0.00029  -0.00002   0.00117   0.00121   1.10594
    A5        2.14533   0.00056   0.00260   0.00826   0.01087   2.15620
    A6        2.12466   0.00045   0.00432   0.00701   0.01131   2.13597
    A7        2.02662  -0.00024  -0.00279   0.00001  -0.00278   2.02385
    A8        2.13190  -0.00021  -0.00152  -0.00703  -0.00853   2.12336
    A9        2.12099  -0.00002   0.00175   0.00071   0.00250   2.12349
   A10        2.11344   0.00045   0.00293   0.00428   0.00736   2.12080
   A11        2.19794   0.00052  -0.00130   0.00108  -0.00024   2.19770
   A12        2.00281  -0.00048  -0.00013  -0.00202  -0.00214   2.00067
   A13        2.08243  -0.00004   0.00143   0.00094   0.00238   2.08481
   A14        2.13532   0.00045   0.00229   0.00051   0.00282   2.13813
   A15        2.09980  -0.00054  -0.00207  -0.00189  -0.00394   2.09585
   A16        2.04800   0.00009  -0.00026   0.00139   0.00114   2.04914
   A17        2.21604  -0.00031  -0.00205  -0.00158  -0.00361   2.21243
   A18        2.02954   0.00034   0.00281   0.00131   0.00413   2.03367
   A19        2.03729  -0.00003  -0.00081   0.00037  -0.00042   2.03686
   A20        2.15186   0.00084  -0.00246   0.00120  -0.00158   2.15029
   A21        2.34735  -0.00087   0.03524  -0.00469   0.03057   2.37793
   A22        1.67540   0.00012  -0.02247   0.00271  -0.02006   1.65534
   A23        2.06757   0.00030  -0.00414   0.00192  -0.00222   2.06535
   A24        2.06638  -0.00008   0.00432  -0.00774  -0.00342   2.06296
   A25        2.11007  -0.00026   0.00082   0.00367   0.00448   2.11455
   A26        1.70303  -0.00052  -0.00149   0.00012  -0.00137   1.70166
   A27        1.62988  -0.00078  -0.00293  -0.00512  -0.00805   1.62183
   A28        2.16309  -0.00089   0.00184  -0.00474  -0.00290   2.16019
   A29        1.68305   0.00024   0.00173  -0.00059   0.00114   1.68419
   A30        1.56651  -0.00037  -0.00203  -0.00260  -0.00463   1.56188
   A31        2.85600   0.00005  -0.00926  -0.00117  -0.01048   2.84552
   A32        1.37641   0.00018   0.00194   0.00026   0.00168   1.37809
   A33        1.79927   0.00007   0.00237   0.00130   0.00355   1.80283
   A34        0.85012  -0.00299  -0.00086  -0.00274  -0.00359   0.84652
   A35        4.09399   0.00030   0.00017   0.00197   0.00215   4.09614
   A36        4.17195   0.00031  -0.00019   0.00827   0.00810   4.18005
   A37        3.14559  -0.00027  -0.00113   0.00287   0.00174   3.14733
   A38        3.14730  -0.00027   0.00013  -0.00360  -0.00366   3.14364
    D1        3.11375  -0.00022   0.00440   0.00838   0.01258   3.12633
    D2        3.10397   0.00034   0.00565   0.01252   0.01838   3.12235
    D3       -0.03355   0.00005   0.00428   0.01198   0.01624  -0.01731
    D4        1.40917   0.00030  -0.00024   0.00176   0.00142   1.41059
    D5       -3.04436  -0.00003   0.00508  -0.00161   0.00360  -3.04076
    D6        3.04722   0.00012  -0.01112   0.00350  -0.00765   3.03957
    D7       -0.14292   0.00006  -0.00681   0.00204  -0.00490  -0.14782
    D8       -1.59523   0.00006   0.00107  -0.00079   0.00021  -1.59501
    D9        1.54205   0.00037   0.00252  -0.00020   0.00249   1.54454
   D10        3.13917   0.00007   0.00110  -0.00341  -0.00234   3.13683
   D11       -0.00188   0.00001   0.00023  -0.00489  -0.00464  -0.00652
   D12        3.11475  -0.00003   0.00310  -0.00476  -0.00169   3.11306
   D13       -0.02631  -0.00010   0.00222  -0.00624  -0.00398  -0.03029
   D14        3.12088  -0.00012  -0.00817  -0.00111  -0.00918   3.11171
   D15       -0.00768  -0.00016  -0.00786  -0.00290  -0.01066  -0.01834
   D16       -0.02127  -0.00005  -0.00725   0.00043  -0.00678  -0.02805
   D17        3.13336  -0.00009  -0.00694  -0.00136  -0.00826   3.12509
   D18        3.07180   0.00005  -0.00908   0.00076  -0.00833   3.06346
   D19       -0.04164  -0.00014  -0.00945  -0.00370  -0.01316  -0.05479
   D20       -0.08247   0.00008  -0.00941   0.00247  -0.00692  -0.08939
   D21        3.08729  -0.00010  -0.00978  -0.00198  -0.01175   3.07554
   D22        0.02405   0.00016   0.00782   0.00520   0.01320   0.03725
   D23       -3.10514   0.00012   0.00811   0.00351   0.01177  -3.09337
   D24        3.13054   0.00000  -0.00325  -0.00512  -0.00820   3.12234
   D25        0.59782  -0.00035  -0.01999  -0.00422  -0.02439   0.57343
   D26       -0.03933   0.00020  -0.00284  -0.00064  -0.00330  -0.04263
   D27       -2.57205  -0.00015  -0.01957   0.00026  -0.01949  -2.59153
   D28       -0.37206  -0.00019  -0.03028  -0.00509  -0.03505  -0.40710
   D29        3.06363   0.00002  -0.03407   0.00213  -0.03163   3.03200
   D30        2.34683  -0.00035  -0.00229  -0.00787  -0.01047   2.33636
   D31       -0.50067  -0.00015  -0.00608  -0.00065  -0.00705  -0.50772
   D32       -1.36606   0.00074   0.06146   0.00148   0.06311  -1.30295
   D33        2.27699   0.00017   0.04815   0.00191   0.04989   2.32689
   D34        2.34731   0.00033   0.06542   0.00226   0.06771   2.41502
   D35       -1.09601   0.00015   0.06993  -0.00715   0.06276  -1.03325
   D36        1.48937   0.00017  -0.00424   0.00178  -0.00245   1.48691
   D37        3.13087  -0.00025  -0.00524  -0.00253  -0.00777   3.12310
   D38       -1.35070   0.00029  -0.00726   0.00956   0.00229  -1.34841
   D39        0.29081  -0.00014  -0.00825   0.00524  -0.00302   0.28778
   D40        0.81036  -0.00012  -0.01048  -0.00330  -0.01377   0.79659
   D41       -0.89295  -0.00009  -0.01136  -0.00042  -0.01178  -0.90473
   D42        0.90770   0.00009   0.02936  -0.00202   0.02722   0.93492
   D43       -0.88762  -0.00016  -0.03321  -0.00493  -0.03813  -0.92575
         Item               Value     Threshold  Converged?
 Maximum Force            0.002992     0.000450     NO 
 RMS     Force            0.000503     0.000300     NO 
 Maximum Displacement     0.184206     0.001800     NO 
 RMS     Displacement     0.047278     0.001200     NO 
 Predicted change in Energy=-9.622786D-05
 GradGradGradGradGradGradGradGradGradGradGradGradGradGradGradGradGradGrad

                          Input orientation:                          
 ---------------------------------------------------------------------
 Center     Atomic      Atomic             Coordinates (Angstroms)
 Number     Number       Type             X           Y           Z
 ---------------------------------------------------------------------
      1          8           0        3.134946   -0.286460    1.695731
      2          6           0        3.054228    0.130304    0.567154
      3          6           0        4.307223   -1.651604   -0.597616
      4          6           0        3.625376   -0.534640   -0.640926
      5          6           0        4.992378   -2.768714   -0.500515
      6          6           0        6.437548   -2.766605   -0.352179
      7          6           0        7.226399   -3.861965   -0.239699
      8          6           0        8.648420   -3.776224   -0.132350
      9          6           0        9.519172   -4.813715    0.069845
     10          6           0       10.951196   -4.641387    0.143657
     11         16           0       11.669869   -3.212361   -0.630835
     12         16           0       12.688736   -7.668430   -1.074113
     13         16           0       11.899583   -5.984512    0.558605
     14         16           0        8.876489   -6.457829    0.384419
     15         16           0        4.163259   -4.361775   -0.586509
     16          1           0        2.520675    1.076972    0.336791
     17          1           0        3.442425   -0.034290   -1.592664
     18          1           0        2.916672   -3.878048   -0.449193
     19          1           0        6.889634   -1.778721   -0.335892
     20          1           0        6.783954   -4.853715   -0.239306
     21          1           0        9.080725   -2.781844   -0.198010
     22          1           0        9.624217   -7.108541   -0.535449
     23          1           0       12.555018   -2.911796    0.341265
     24          1           0       13.075810   -6.729533   -1.959541
     25          1           0       13.088949   -5.362875    0.474159
 ---------------------------------------------------------------------
                    Distance matrix (angstroms):
                    1          2          3          4          5
     1  O    0.000000
     2  C    1.205776   0.000000
     3  C    2.915012   2.470199   0.000000
     4  C    2.400433   1.492587   1.309351   0.000000
     5  C    3.799360   3.647005   1.314078   2.622879   0.000000
     6  C    4.610014   4.547978   2.416971   3.601854   1.452764
     7  C    5.768025   5.830628   3.679047   4.919293   2.500815
     8  C    6.776336   6.858954   4.855561   5.999791   3.810154
     9  C    7.993615   8.153903   6.132607   7.317958   4.999921
    10  C    9.081195   9.236368   7.323297   8.434963   6.279282
    11  S    9.317657   9.318683   7.526329   8.478453   6.693482
    12  S   12.387107  12.503510  10.328553  11.542232   9.141672
    13  S   10.515689  10.753202   8.817872   9.980104   7.692371
    14  S    8.530571   8.794066   6.703908   7.981835   5.429457
    15  S    4.782702   4.768612   2.714015   3.865132   1.797965
    16  H    2.020642   1.110822   3.392638   2.184854   4.647547
    17  H    3.312352   2.200591   2.086552   1.090700   3.327494
    18  H    4.189015   4.137484   2.629204   3.423069   2.354105
    19  H    4.522391   4.378379   2.598751   3.506589   2.146339
    20  H    6.157876   6.277075   4.064000   5.365847   2.761377
    21  H    6.720527   6.736820   4.921732   5.916666   4.099545
    22  H    9.676238   9.837752   7.619216   8.900191   6.347382
    23  H    9.872422   9.978497   8.396172   9.292689   7.610689
    24  H   12.397378  12.404582  10.223909  11.376562   9.119140
    25  H   11.240302  11.440248   9.593797  10.682438   8.557694
                    6          7          8          9         10
     6  C    0.000000
     7  C    1.354530   0.000000
     8  C    2.440412   1.428643   0.000000
     9  C    3.723597   2.501690   1.369481   0.000000
    10  C    4.912605   3.824732   2.475372   1.444243   0.000000
    11  S    5.258663   4.507705   3.113773   2.771423   1.777201
    12  S    7.976618   6.709885   5.688615   4.416353   3.696620
    13  S    6.404552   5.194338   3.990490   2.697408   1.695760
    14  S    4.485102   3.138603   2.740451   1.793072   2.768003
    15  S    2.787807   3.122966   4.545965   5.414873   6.832819
    16  H    5.530791   6.846113   7.830892   9.151525  10.188749
    17  H    4.239706   5.549781   6.575483   7.907825   8.978965
    18  H    3.693411   4.314845   5.741402   6.688638   8.092449
    19  H    1.086537   2.112479   2.669228   4.036122   4.992105
    20  H    2.118670   1.085968   2.156075   2.752925   4.190186
    21  H    2.647713   2.146374   1.086274   2.095825   2.659568
    22  H    5.388957   4.046882   3.495569   2.375635   2.882518
    23  H    6.158359   5.443760   4.029026   3.592677   2.367019
    24  H    7.896514   6.737686   5.626939   4.520889   3.646612
    25  H    7.187808   6.093588   4.754325   3.634330   2.280298
                   11         12         13         14         15
    11  S    0.000000
    12  S    4.592509   0.000000
    13  S    3.025286   2.474694   0.000000
    14  S    4.400770   4.257476   3.064877   0.000000
    15  S    7.594229   9.157264   7.987194   5.248874   0.000000
    16  H   10.150981  13.485628  11.742132   9.857579   5.755913
    17  H    8.872209  12.001802  10.562037   8.642902   4.501008
    18  H    8.780353  10.500036   9.281462   6.547487   1.344182
    19  H    4.999296   8.298387   6.602151   5.134247   3.764054
    20  H    5.169092   6.594390   5.299531   2.709413   2.688976
    21  H    2.660141   6.137102   4.333071   3.727439   5.179632
    22  H    4.401592   3.161473   2.763636   1.352287   6.113051
    23  H    1.348631   4.964549   3.149352   5.109579   8.566494
    24  H    4.014054   1.347344   2.877434   4.816874   9.323361
    25  H    2.803481   2.805869   1.344677   4.353366   9.044067
                   16         17         18         19         20
    16  H    0.000000
    17  H    2.409838   0.000000
    18  H    5.032575   4.044554   0.000000
    19  H    5.262631   4.062729   4.494935   0.000000
    20  H    7.326696   6.018658   3.993976   3.078325   0.000000
    21  H    7.629595   6.425305   6.265804   2.413741   3.093463
    22  H   10.873073   9.453956   7.445447   5.993726   3.638549
    23  H   10.798070   9.749845   9.718857   5.817127   6.116641
    24  H   13.327623  11.737248  10.659277   8.087988   6.787147
    25  H   12.376546  11.212537  10.321458   7.206514   6.365629
                   21         22         23         24         25
    21  H    0.000000
    22  H    4.373735   0.000000
    23  H    3.518297   5.193351   0.000000
    24  H    5.886250   3.753023   4.487767   0.000000
    25  H    4.814497   4.008869   2.512077   2.791205   0.000000
 Stoichiometry    C9H10OS5
 Framework group  C1[X(C9H10OS5)]
 Deg. of freedom    69
 Full point group                 C1      NOp   1
 Largest Abelian subgroup         C1      NOp   1
 Largest concise Abelian subgroup C1      NOp   1
                         Standard orientation:                         
 ---------------------------------------------------------------------
 Center     Atomic      Atomic             Coordinates (Angstroms)
 Number     Number       Type             X           Y           Z
 ---------------------------------------------------------------------
      1          8           0        6.366815    0.979281   -1.524356
      2          6           0        6.596314    1.221029   -0.365571
      3          6           0        4.586112    0.206749    0.650405
      4          6           0        5.725210    0.838326    0.784443
      5          6           0        3.446202   -0.419499    0.462744
      6          6           0        2.194373    0.302856    0.315594
      7          6           0        0.975403   -0.252473    0.114417
      8          6           0       -0.216941    0.528191    0.014932
      9          6           0       -1.475345    0.069723   -0.270912
     10          6           0       -2.635338    0.928078   -0.329904
     11         16           0       -2.592382    2.466497    0.558841
     12         16           0       -5.679374   -0.932831    0.637496
     13         16           0       -4.102557    0.257585   -0.852695
     14         16           0       -1.708095   -1.650841   -0.718790
     15         16           0        3.384909   -2.215867    0.418195
     16          1           0        7.515422    1.764301   -0.058942
     17          1           0        6.091715    1.115006    1.773760
     18          1           0        4.713017   -2.398568    0.320350
     19          1           0        2.284968    1.383686    0.380113
     20          1           0        0.875182   -1.330734    0.032962
     21          1           0       -0.109195    1.599105    0.161647
     22          1           0       -2.714574   -1.913912    0.145198
     23          1           0       -3.177530    3.231500   -0.385181
     24          1           0       -5.591994    0.009305    1.596704
     25          1           0       -4.837480    1.375501   -0.717391
 ---------------------------------------------------------------------
 Rotational constants (GHZ):           0.7289213           0.1073090           0.0983568
 Standard basis: 6-31G(2df,p) (6D, 7F)
 There are   535 symmetry adapted cartesian basis functions of A   symmetry.
 There are   490 symmetry adapted basis functions of A   symmetry.
   490 basis functions,   850 primitive gaussians,   535 cartesian basis functions
    76 alpha electrons       76 beta electrons
       nuclear repulsion energy      1392.1173587180 Hartrees.
 NAtoms=   25 NActive=   25 NUniq=   25 SFac= 1.00D+00 NAtFMM=   60 NAOKFM=F Big=F
 Integral buffers will be    131072 words long.
 Raffenetti 2 integral format.
 Two-electron integral symmetry is turned on.
 One-electron integrals computed using PRISM.
 PrsmSu:  requested number of processors reduced to:  12 ShMem   1 Linda.
 NBasis=   490 RedAO= T EigKep=  2.07D-04  NBF=   490
 NBsUse=   490 1.00D-06 EigRej= -1.00D+00 NBFU=   490
 Initial guess from the checkpoint file:  "OdCC1dCCdCCdCCdCqSr[SH]d[SH]SS1.chk"
 B after Tr=     0.000000    0.000000    0.000000
         Rot=    1.000000   -0.000565    0.000281   -0.000004 Ang=  -0.07 deg.
 ExpMin= 1.17D-01 ExpMax= 2.19D+04 ExpMxC= 3.30D+03 IAcc=2 IRadAn=         4 AccDes= 0.00D+00
 Harris functional with IExCor=  402 and IRadAn=       4 diagonalized for initial guess.
 HarFok:  IExCor=  402 AccDes= 0.00D+00 IRadAn=         4 IDoV= 1 UseB2=F ITyADJ=14
 ICtDFT=  3500011 ScaDFX=  1.000000  1.000000  1.000000  1.000000
 FoFCou: FMM=F IPFlag=           0 FMFlag=      100000 FMFlg1=           0
         NFxFlg=           0 DoJE=T BraDBF=F KetDBF=T FulRan=T
         wScrn=  0.000000 ICntrl=       500 IOpCl=  0 I1Cent=   200000004 NGrid=           0
         NMat0=    1 NMatS0=      1 NMatT0=    0 NMatD0=    1 NMtDS0=    0 NMtDT0=    0
 Petite list used in FoFCou.
 Requested convergence on RMS density matrix=1.00D-08 within 128 cycles.
 Requested convergence on MAX density matrix=1.00D-06.
 Requested convergence on             energy=1.00D-06.
 No special actions if energy rises.
 Integral accuracy reduced to 1.0D-05 until final iterations.
slurmstepd: error: *** JOB 27447010 ON lewis4-r630-hpc4-node227 CANCELLED AT 2023-05-17T18:46:50 DUE TO TIME LIMIT ***
