### Starting Gaussian ###
 Entering Gaussian System, Link 0=g16
 Initial command:
 /cluster/software/gaussian/gaussian-16-A.03/avx2/g16/l1.exe "/local/scratch/cz9n3/Gau-4730.inp" -scrdir="/local/scratch/cz9n3/"
 Entering Link 1 = /cluster/software/gaussian/gaussian-16-A.03/avx2/g16/l1.exe PID=      4731.
  
 Copyright (c) 1988,1990,1992,1993,1995,1998,2003,2009,2016,
            Gaussian, Inc.  All Rights Reserved.
  
 This is part of the Gaussian(R) 16 program.  It is based on
 the Gaussian(R) 09 system (copyright 2009, Gaussian, Inc.),
 the Gaussian(R) 03 system (copyright 2003, Gaussian, Inc.),
 the Gaussian(R) 98 system (copyright 1998, Gaussian, Inc.),
 the Gaussian(R) 94 system (copyright 1995, Gaussian, Inc.),
 the Gaussian 92(TM) system (copyright 1992, Gaussian, Inc.),
 the Gaussian 90(TM) system (copyright 1990, Gaussian, Inc.),
 the Gaussian 88(TM) system (copyright 1988, Gaussian, Inc.),
 the Gaussian 86(TM) system (copyright 1986, Carnegie Mellon
 University), and the Gaussian 82(TM) system (copyright 1983,
 Carnegie Mellon University). Gaussian is a federally registered
 trademark of Gaussian, Inc.
  
 This software contains proprietary and confidential information,
 including trade secrets, belonging to Gaussian, Inc.
  
 This software is provided under written license and may be
 used, copied, transmitted, or stored only in accord with that
 written license.
  
 The following legend is applicable only to US Government
 contracts under FAR:
  
                    RESTRICTED RIGHTS LEGEND
  
 Use, reproduction and disclosure by the US Government is
 subject to restrictions as set forth in subparagraphs (a)
 and (c) of the Commercial Computer Software - Restricted
 Rights clause in FAR 52.227-19.
  
 Gaussian, Inc.
 340 Quinnipiac St., Bldg. 40, Wallingford CT 06492
  
  
 ---------------------------------------------------------------
 Warning -- This program may not be used in any manner that
 competes with the business of Gaussian, Inc. or will provide
 assistance to any competitor of Gaussian, Inc.  The licensee
 of this program is prohibited from giving any competitor of
 Gaussian, Inc. access to this program.  By using this program,
 the user acknowledges that Gaussian, Inc. is engaged in the
 business of creating and licensing software in the field of
 computational chemistry and represents and warrants to the
 licensee that it is not a competitor of Gaussian, Inc. and that
 it will not use this program in any manner prohibited above.
 ---------------------------------------------------------------
  

 Cite this work as:
 Gaussian 16, Revision A.03,
 M. J. Frisch, G. W. Trucks, H. B. Schlegel, G. E. Scuseria, 
 M. A. Robb, J. R. Cheeseman, G. Scalmani, V. Barone, 
 G. A. Petersson, H. Nakatsuji, X. Li, M. Caricato, A. V. Marenich, 
 J. Bloino, B. G. Janesko, R. Gomperts, B. Mennucci, H. P. Hratchian, 
 J. V. Ortiz, A. F. Izmaylov, J. L. Sonnenberg, D. Williams-Young, 
 F. Ding, F. Lipparini, F. Egidi, J. Goings, B. Peng, A. Petrone, 
 T. Henderson, D. Ranasinghe, V. G. Zakrzewski, J. Gao, N. Rega, 
 G. Zheng, W. Liang, M. Hada, M. Ehara, K. Toyota, R. Fukuda, 
 J. Hasegawa, M. Ishida, T. Nakajima, Y. Honda, O. Kitao, H. Nakai, 
 T. Vreven, K. Throssell, J. A. Montgomery, Jr., J. E. Peralta, 
 F. Ogliaro, M. J. Bearpark, J. J. Heyd, E. N. Brothers, K. N. Kudin, 
 V. N. Staroverov, T. A. Keith, R. Kobayashi, J. Normand, 
 K. Raghavachari, A. P. Rendell, J. C. Burant, S. S. Iyengar, 
 J. Tomasi, M. Cossi, J. M. Millam, M. Klene, C. Adamo, R. Cammi, 
 J. W. Ochterski, R. L. Martin, K. Morokuma, O. Farkas, 
 J. B. Foresman, and D. J. Fox, Gaussian, Inc., Wallingford CT, 2016.
 
 ******************************************
 Gaussian 16:  ES64L-G16RevA.03 25-Dec-2016
                17-May-2023 
 ******************************************
 %chk=OdCC1dC2CdCCdCN2NdCNNCdCCdCCdC1.chk
 %NProcShared=20
 Will use up to   20 processors via shared memory.
 -----------------------------
 # opt freq b3lyp/6-31g(2df,p)
 -----------------------------
 1/18=20,19=15,26=3,38=1/1,3;
 2/9=110,12=2,17=6,18=5,40=1/2;
 3/5=1,6=6,7=104,11=2,25=1,30=1,71=1,74=-5/1,2,3;
 4//1;
 5/5=2,38=5/2;
 6/7=2,8=2,9=2,10=2,28=1/1;
 7//1,2,3,16;
 1/18=20,19=15,26=3/3(2);
 2/9=110/2;
 99//99;
 2/9=110/2;
 3/5=1,6=6,7=104,11=2,25=1,30=1,71=1,74=-5/1,2,3;
 4/5=5,16=3,69=1/1;
 5/5=2,38=5/2;
 7//1,2,3,16;
 1/18=20,19=15,26=3/3(-5);
 2/9=110/2;
 6/7=2,8=2,9=2,10=2,19=2,28=1/1;
 99/9=1/99;
 -------------------
 Title Card Required
 -------------------
 Symbolic Z-matrix:
 Charge =  0 Multiplicity = 1
 O                     0.42364   0.04158   0.02601 
 C                     1.43767  -0.17242  -0.62195 
 C                     1.47764  -0.50421  -2.26467 
 C                     3.21687  -0.35754  -1.89441 
 C                     4.38786  -0.12618  -0.46252 
 C                     5.82622  -0.04733  -0.32296 
 C                     6.74437  -0.08573  -1.42228 
 C                     6.03322  -0.15018  -2.55358 
 N                     4.54092  -0.2155   -2.83248 
 N                     4.32077  -0.24573  -4.11913 
 C                     3.15637   0.22971  -4.30882 
 N                     2.4798   -0.11556  -5.38705 
 N                     1.20906  -0.02331  -5.5221 
 C                     0.45406  -0.06426  -6.59841 
 C                    -0.71019   0.52805  -6.44453 
 C                    -1.71391   0.02767  -7.25396 
 C                    -2.47847  -0.27301  -6.13865 
 C                    -1.53971  -0.90936  -4.56063 
 C                    -0.12852  -0.71511  -3.41697 
 H                     2.37285  -0.08956   0.06106 
 H                     4.12628  -0.00502   0.59446 
 H                     6.47771   0.04506   0.6157 
 H                     7.87782  -0.05903  -1.35385 
 H                     6.66481  -0.16757  -3.45279 
 H                     2.59793   0.81792  -3.54764 
 H                     3.02466  -0.37837  -6.17028 
 H                     0.7265    0.56166  -4.84169 
 H                     0.77026  -0.47269  -7.53147 
 H                    -1.07442   0.89465  -5.39508 
 H                    -1.64721  -0.2143   -8.3679 
 H                    -3.68205  -0.31416  -6.40916 
 H                    -2.1675   -1.44232  -5.66482 
 H                     0.74383  -1.05475  -3.95292 
 
 Add virtual bond connecting atoms H32        and C18        Dist= 2.60D+00.

 GradGradGradGradGradGradGradGradGradGradGradGradGradGradGradGradGradGrad
 Berny optimization.
 Initialization pass.
                           ----------------------------
                           !    Initial Parameters    !
                           ! (Angstroms and Degrees)  !
 --------------------------                            --------------------------
 ! Name  Definition              Value          Derivative Info.                !
 --------------------------------------------------------------------------------
 ! R1    R(1,2)                  1.2223         estimate D2E/DX2                !
 ! R2    R(2,3)                  1.6764         estimate D2E/DX2                !
 ! R3    R(2,20)                 1.161          estimate D2E/DX2                !
 ! R4    R(3,4)                  1.7842         estimate D2E/DX2                !
 ! R5    R(4,9)                  1.6289         estimate D2E/DX2                !
 ! R6    R(5,6)                  1.4473         estimate D2E/DX2                !
 ! R7    R(5,21)                 1.0956         estimate D2E/DX2                !
 ! R8    R(6,7)                  1.4328         estimate D2E/DX2                !
 ! R9    R(6,22)                 1.1463         estimate D2E/DX2                !
 ! R10   R(7,8)                  1.3378         estimate D2E/DX2                !
 ! R11   R(7,23)                 1.1358         estimate D2E/DX2                !
 ! R12   R(8,9)                  1.5195         estimate D2E/DX2                !
 ! R13   R(8,24)                 1.099          estimate D2E/DX2                !
 ! R14   R(9,10)                 1.3057         estimate D2E/DX2                !
 ! R15   R(10,11)                1.2719         estimate D2E/DX2                !
 ! R16   R(11,12)                1.3189         estimate D2E/DX2                !
 ! R17   R(11,25)                1.1123         estimate D2E/DX2                !
 ! R18   R(12,13)                1.2812         estimate D2E/DX2                !
 ! R19   R(12,26)                0.9896         estimate D2E/DX2                !
 ! R20   R(13,14)                1.3153         estimate D2E/DX2                !
 ! R21   R(13,27)                1.0188         estimate D2E/DX2                !
 ! R22   R(14,15)                1.3153         estimate D2E/DX2                !
 ! R23   R(14,28)                1.0665         estimate D2E/DX2                !
 ! R24   R(15,16)                1.3831         estimate D2E/DX2                !
 ! R25   R(15,29)                1.1698         estimate D2E/DX2                !
 ! R26   R(16,17)                1.3852         estimate D2E/DX2                !
 ! R27   R(16,30)                1.1419         estimate D2E/DX2                !
 ! R28   R(17,31)                1.2343         estimate D2E/DX2                !
 ! R29   R(17,32)                1.2994         estimate D2E/DX2                !
 ! R30   R(18,19)                1.8268         estimate D2E/DX2                !
 ! R31   R(18,32)                1.3775         estimate D2E/DX2                !
 ! R32   R(19,33)                1.0787         estimate D2E/DX2                !
 ! A1    A(1,2,3)              125.0247         estimate D2E/DX2                !
 ! A2    A(1,2,20)             110.1145         estimate D2E/DX2                !
 ! A3    A(3,2,20)             124.8482         estimate D2E/DX2                !
 ! A4    A(2,3,4)               78.6747         estimate D2E/DX2                !
 ! A5    A(3,4,9)              132.8445         estimate D2E/DX2                !
 ! A6    A(6,5,21)              97.9455         estimate D2E/DX2                !
 ! A7    A(5,6,7)              124.1534         estimate D2E/DX2                !
 ! A8    A(5,6,22)             130.4049         estimate D2E/DX2                !
 ! A9    A(7,6,22)             105.4398         estimate D2E/DX2                !
 ! A10   A(6,7,8)              108.0269         estimate D2E/DX2                !
 ! A11   A(6,7,23)             126.342          estimate D2E/DX2                !
 ! A12   A(8,7,23)             125.6298         estimate D2E/DX2                !
 ! A13   A(7,8,9)              132.7913         estimate D2E/DX2                !
 ! A14   A(7,8,24)             112.7789         estimate D2E/DX2                !
 ! A15   A(9,8,24)             114.4273         estimate D2E/DX2                !
 ! A16   A(4,9,8)              134.1334         estimate D2E/DX2                !
 ! A17   A(4,9,10)             115.3676         estimate D2E/DX2                !
 ! A18   A(8,9,10)             110.331          estimate D2E/DX2                !
 ! A19   A(9,10,11)            107.0169         estimate D2E/DX2                !
 ! A20   A(10,11,12)           119.5819         estimate D2E/DX2                !
 ! A21   A(10,11,25)           123.7254         estimate D2E/DX2                !
 ! A22   A(12,11,25)           116.1254         estimate D2E/DX2                !
 ! A23   A(11,12,13)           125.1768         estimate D2E/DX2                !
 ! A24   A(11,12,26)           115.7278         estimate D2E/DX2                !
 ! A25   A(13,12,26)           118.8002         estimate D2E/DX2                !
 ! A26   A(12,13,14)           130.7913         estimate D2E/DX2                !
 ! A27   A(12,13,27)           116.1494         estimate D2E/DX2                !
 ! A28   A(14,13,27)           107.0063         estimate D2E/DX2                !
 ! A29   A(13,14,15)           113.4736         estimate D2E/DX2                !
 ! A30   A(13,14,28)           123.8925         estimate D2E/DX2                !
 ! A31   A(15,14,28)           122.4971         estimate D2E/DX2                !
 ! A32   A(14,15,16)           114.2661         estimate D2E/DX2                !
 ! A33   A(14,15,29)           121.446          estimate D2E/DX2                !
 ! A34   A(16,15,29)           114.3583         estimate D2E/DX2                !
 ! A35   A(15,16,17)            90.4514         estimate D2E/DX2                !
 ! A36   A(15,16,30)           127.2419         estimate D2E/DX2                !
 ! A37   A(17,16,30)           140.5062         estimate D2E/DX2                !
 ! A38   A(16,17,31)           111.6529         estimate D2E/DX2                !
 ! A39   A(16,17,32)           110.9058         estimate D2E/DX2                !
 ! A40   A(31,17,32)           106.4558         estimate D2E/DX2                !
 ! A41   A(19,18,32)           153.5167         estimate D2E/DX2                !
 ! A42   A(18,19,33)           106.2716         estimate D2E/DX2                !
 ! A43   A(17,32,18)            93.0497         estimate D2E/DX2                !
 ! D1    D(1,2,3,4)            173.0222         estimate D2E/DX2                !
 ! D2    D(1,2,3,20)           178.5795         estimate D2E/DX2                !
 ! D3    D(20,2,3,4)            -5.5573         estimate D2E/DX2                !
 ! D4    D(2,3,4,9)           -166.8243         estimate D2E/DX2                !
 ! D5    D(3,4,9,8)           -176.7817         estimate D2E/DX2                !
 ! D6    D(3,4,9,10)            -2.0575         estimate D2E/DX2                !
 ! D7    D(21,5,6,7)          -177.1225         estimate D2E/DX2                !
 ! D8    D(21,5,6,22)            3.4457         estimate D2E/DX2                !
 ! D9    D(5,6,7,8)              2.4167         estimate D2E/DX2                !
 ! D10   D(5,6,7,23)          -177.9826         estimate D2E/DX2                !
 ! D11   D(22,6,7,8)          -178.0322         estimate D2E/DX2                !
 ! D12   D(22,6,7,23)            1.5685         estimate D2E/DX2                !
 ! D13   D(6,7,8,9)             -1.5193         estimate D2E/DX2                !
 ! D14   D(6,7,8,24)           179.1066         estimate D2E/DX2                !
 ! D15   D(23,7,8,9)           178.8764         estimate D2E/DX2                !
 ! D16   D(23,7,8,24)           -0.4976         estimate D2E/DX2                !
 ! D17   D(7,8,9,4)             -6.0638         estimate D2E/DX2                !
 ! D18   D(7,8,9,10)           179.0196         estimate D2E/DX2                !
 ! D19   D(24,8,9,4)           173.3023         estimate D2E/DX2                !
 ! D20   D(24,8,9,10)           -1.6143         estimate D2E/DX2                !
 ! D21   D(4,9,10,11)           29.6311         estimate D2E/DX2                !
 ! D22   D(8,9,10,11)         -154.4047         estimate D2E/DX2                !
 ! D23   D(9,10,11,12)        -155.0001         estimate D2E/DX2                !
 ! D24   D(9,10,11,25)          16.0181         estimate D2E/DX2                !
 ! D25   D(10,11,12,13)        159.5852         estimate D2E/DX2                !
 ! D26   D(10,11,12,26)        -26.758          estimate D2E/DX2                !
 ! D27   D(25,11,12,13)        -12.0994         estimate D2E/DX2                !
 ! D28   D(25,11,12,26)        161.5574         estimate D2E/DX2                !
 ! D29   D(11,12,13,14)        164.1039         estimate D2E/DX2                !
 ! D30   D(11,12,13,27)         15.4518         estimate D2E/DX2                !
 ! D31   D(26,12,13,14)         -9.3744         estimate D2E/DX2                !
 ! D32   D(26,12,13,27)       -158.0264         estimate D2E/DX2                !
 ! D33   D(12,13,14,15)       -156.6963         estimate D2E/DX2                !
 ! D34   D(12,13,14,28)         19.1368         estimate D2E/DX2                !
 ! D35   D(27,13,14,15)         -5.9279         estimate D2E/DX2                !
 ! D36   D(27,13,14,28)        169.9052         estimate D2E/DX2                !
 ! D37   D(13,14,15,16)       -152.6864         estimate D2E/DX2                !
 ! D38   D(13,14,15,29)         -8.9826         estimate D2E/DX2                !
 ! D39   D(28,14,15,16)         31.4146         estimate D2E/DX2                !
 ! D40   D(28,14,15,29)        175.1183         estimate D2E/DX2                !
 ! D41   D(14,15,16,17)        121.9023         estimate D2E/DX2                !
 ! D42   D(14,15,16,30)        -45.3565         estimate D2E/DX2                !
 ! D43   D(29,15,16,17)        -24.4305         estimate D2E/DX2                !
 ! D44   D(29,15,16,30)        168.3107         estimate D2E/DX2                !
 ! D45   D(15,16,17,31)        155.4001         estimate D2E/DX2                !
 ! D46   D(15,16,17,32)        -86.0514         estimate D2E/DX2                !
 ! D47   D(30,16,17,31)        -40.6253         estimate D2E/DX2                !
 ! D48   D(30,16,17,32)         77.9232         estimate D2E/DX2                !
 ! D49   D(16,17,32,18)        108.1698         estimate D2E/DX2                !
 ! D50   D(31,17,32,18)       -130.1834         estimate D2E/DX2                !
 ! D51   D(32,18,19,33)         19.9766         estimate D2E/DX2                !
 ! D52   D(19,18,32,17)       -127.3            estimate D2E/DX2                !
 --------------------------------------------------------------------------------
 Trust Radius=3.00D-01 FncErr=1.00D-07 GrdErr=1.00D-06 EigMax=2.50D+02 EigMin=1.00D-04
 Number of steps in this run=    137 maximum allowed number of steps=    198.
 GradGradGradGradGradGradGradGradGradGradGradGradGradGradGradGradGradGrad

                          Input orientation:                          
 ---------------------------------------------------------------------
 Center     Atomic      Atomic             Coordinates (Angstroms)
 Number     Number       Type             X           Y           Z
 ---------------------------------------------------------------------
      1          8           0        0.423640    0.041580    0.026010
      2          6           0        1.437670   -0.172420   -0.621950
      3          6           0        1.477640   -0.504210   -2.264670
      4          6           0        3.216870   -0.357540   -1.894410
      5          6           0        4.387860   -0.126180   -0.462520
      6          6           0        5.826220   -0.047330   -0.322960
      7          6           0        6.744370   -0.085730   -1.422280
      8          6           0        6.033220   -0.150180   -2.553580
      9          7           0        4.540920   -0.215500   -2.832480
     10          7           0        4.320770   -0.245730   -4.119130
     11          6           0        3.156370    0.229710   -4.308820
     12          7           0        2.479800   -0.115560   -5.387050
     13          7           0        1.209060   -0.023310   -5.522100
     14          6           0        0.454060   -0.064260   -6.598410
     15          6           0       -0.710190    0.528050   -6.444530
     16          6           0       -1.713910    0.027670   -7.253960
     17          6           0       -2.478470   -0.273010   -6.138650
     18          6           0       -1.539710   -0.909360   -4.560630
     19          6           0       -0.128520   -0.715110   -3.416970
     20          1           0        2.372850   -0.089560    0.061060
     21          1           0        4.126280   -0.005020    0.594460
     22          1           0        6.477710    0.045060    0.615700
     23          1           0        7.877820   -0.059030   -1.353850
     24          1           0        6.664810   -0.167570   -3.452790
     25          1           0        2.597930    0.817920   -3.547640
     26          1           0        3.024660   -0.378370   -6.170280
     27          1           0        0.726500    0.561660   -4.841690
     28          1           0        0.770260   -0.472690   -7.531470
     29          1           0       -1.074420    0.894650   -5.395080
     30          1           0       -1.647210   -0.214300   -8.367900
     31          1           0       -3.682050   -0.314160   -6.409160
     32          1           0       -2.167500   -1.442320   -5.664820
     33          1           0        0.743830   -1.054750   -3.952920
 ---------------------------------------------------------------------
                    Distance matrix (angstroms):
                    1          2          3          4          5
     1  O    0.000000
     2  C    1.222254   0.000000
     3  C    2.579926   1.676368   0.000000
     4  C    3.413128   2.195217   1.784244   0.000000
     5  C    3.997730   2.954857   3.443840   1.864150   0.000000
     6  C    5.414569   4.400502   4.784258   3.061763   1.447264
     7  C    6.485783   5.367412   5.350065   3.569320   2.544782
     8  C    6.177252   4.985055   4.578440   2.899885   2.660887
     9  N    5.018869   3.810310   3.128809   1.628883   2.376576
    10  N    5.696697   4.532980   3.404295   2.486056   3.659179
    11  C    5.127763   4.087621   2.745054   2.485538   4.054288
    12  N    5.792556   4.878058   3.302216   3.577759   5.281269
    13  N    5.603804   4.907746   3.303672   4.159705   5.976178
    14  C    6.625335   6.057826   4.474659   5.463218   7.288879
    15  C    6.587117   6.245510   4.829430   6.075332   7.886861
    16  C    7.587310   7.345478   5.946587   7.292856   9.131206
    17  C    6.820868   6.766110   5.541839   7.103352   8.909910
    18  C    5.079005   4.992101   3.813133   5.480720   7.248721
    19  C    3.568133   3.249554   1.987970   3.692923   5.428932
    20  H    1.953931   1.161004   2.526332   2.146636   2.082245
    21  H    3.746312   2.955723   3.929263   2.673157   1.095587
    22  H    6.082722   5.194331   5.796458   4.134709   2.357828
    23  H    7.581486   6.482597   6.479975   4.701677   3.602610
    24  H    7.148286   5.944466   5.332137   3.788526   3.758714
    25  H    4.254552   3.299491   2.156175   2.120840   3.689599
    26  H    6.733177   5.774506   4.202725   4.280239   5.873707
    27  H    4.904764   4.341756   2.888135   3.966526   5.749418
    28  H    7.582884   6.948170   5.314185   6.146186   7.948406
    29  H    5.688596   5.498364   4.274259   5.677838   7.430259
    30  H    8.649371   8.337744   6.862809   8.098510   9.946098
    31  H    7.641640   7.728093   6.620825   8.244995  10.026032
    32  H    6.426625   6.327751   5.072289   6.662145   8.471652
    33  H    4.139607   3.515008   1.921395   3.292338   5.130701
                    6          7          8          9         10
     6  C    0.000000
     7  C    1.432822   0.000000
     8  C    2.242564   1.337807   0.000000
     9  N    2.824530   2.619293   1.519543   0.000000
    10  N    4.088600   3.629385   2.322189   1.305698   0.000000
    11  C    4.805406   4.615773   3.391379   2.072383   1.271948
    12  N    6.070271   5.822959   4.544947   3.283905   2.239137
    13  N    6.953402   6.888547   5.665750   4.286290   3.420604
    14  C    8.260851   8.146213   6.891666   5.559454   4.596869
    15  C    8.973814   9.009450   7.814926   6.416691   5.596140
    16  C   10.241970  10.274427   9.063290   7.663649   6.805826
    17  C   10.141058  10.360502   9.236703   7.759246   7.092875
    18  C    8.541538   8.896830   7.871078   6.359403   5.914436
    19  C    6.743720   7.184116   6.247530   4.732326   4.528745
    20  H    3.474913   4.616330   4.498703   3.617867   4.614409
    21  H    1.932161   3.305775   3.683429   3.458344   4.723738
    22  H    1.146324   2.059509   3.206248   3.963457   5.211100
    23  H    2.296069   1.135828   2.202319   3.653181   4.509350
    24  H    3.242457   2.033715   1.098994   2.213140   2.438164
    25  H    4.644252   4.746230   3.704941   2.314005   2.103837
    26  H    6.492263   6.038658   4.709992   3.669670   2.429961
    27  H    6.840828   6.951708   5.822666   4.380719   3.754031
    28  H    8.815117   8.553475   7.251355   6.030301   4.929675
    29  H    8.615832   8.824838   7.725564   6.271475   5.660087
    30  H   10.981853  10.893887   9.633246   8.302640   7.325969
    31  H   11.292485  11.559904  10.453653   8.967698   8.324305
    32  H    9.714990   9.962977   8.865735   7.384452   6.776329
    33  H    6.326310   6.584043   5.545633   4.046927   3.671054
                   11         12         13         14         15
    11  C    0.000000
    12  N    1.318916   0.000000
    13  N    2.308264   1.281222   0.000000
    14  C    3.554029   2.360857   1.315350   0.000000
    15  C    4.427251   3.421774   2.199635   1.315290   0.000000
    16  C    5.695112   4.592719   3.397895   2.266780   1.383116
    17  C    5.945791   5.017383   3.747047   2.975683   1.965216
    18  C    4.838807   4.179659   3.043887   2.973527   2.510643
    19  C    3.532504   3.323253   2.588297   3.299177   3.324140
    20  H    4.451032   5.449222   5.703549   6.930435   7.225599
    21  H    5.003796   6.204964   6.776637   8.076267   8.557043
    22  H    5.942751   7.214020   8.089248   9.398920  10.086924
    23  H    5.577393   6.738584   7.864346   9.089425  10.000680
    24  H    3.633149   4.610681   5.836785   6.962687   7.989056
    25  H    1.112313   2.066100   2.556388   3.831660   4.406774
    26  H    1.962687   0.989642   1.960257   2.624870   3.853040
    27  H    2.509663   1.957065   1.018829   1.884692   2.152743
    28  H    4.070916   2.765611   2.105245   1.066489   2.091567
    29  H    4.418336   3.695006   2.464359   2.168816   1.169788
    30  H    6.304574   5.091898   4.036500   2.751171   2.264606
    31  H    7.174344   6.249204   4.979400   4.147972   3.089097
    32  H    5.742649   4.840955   3.665394   3.105353   2.571781
    33  H    2.756239   2.439754   1.934589   2.839657   3.290524
                   16         17         18         19         20
    16  C    0.000000
    17  C    1.385235   0.000000
    18  C    2.856991   1.943286   0.000000
    19  C    4.217544   3.622880   1.826786   0.000000
    20  H    8.380028   7.874348   6.110664   4.329533   0.000000
    21  H    9.782974   9.435535   7.713380   5.890596   1.834715
    22  H   11.359335  11.222102   9.590846   7.777053   4.144348
    23  H   11.261443  11.410208   9.984807   8.293876   5.683977
    24  H    9.202715   9.530190   8.312142   6.815454   5.547445
    25  H    5.740494   5.802870   4.596706   3.130621   3.727854
    26  H    4.877835   5.504229   4.868922   4.199602   6.271991
    27  H    3.472721   3.556770   2.716358   2.095478   5.212630
    28  H    2.549210   3.540348   3.788474   4.218493   7.769272
    29  H    2.148496   1.971721   2.041385   2.720105   6.528538
    30  H    1.141867   2.379915   3.871688   5.202782   9.339369
    31  H    2.168896   1.234291   2.891530   4.662782   8.864311
    32  H    2.211782   1.299424   1.377462   3.120754   7.431718
    33  H    4.255465   3.971366   2.367489   1.078699   4.438168
                   21         22         23         24         25
    21  H    0.000000
    22  H    2.352059   0.000000
    23  H    4.227633   2.418733   0.000000
    24  H    4.780250   4.078337   2.426669   0.000000
    25  H    4.491111   5.743118   5.784375   4.185654   0.000000
    26  H    6.864012   7.625770   6.844935   4.547514   2.914009
    27  H    6.436719   7.945212   7.980706   6.142015   2.289647
    28  H    8.804108   9.960895   9.426108   7.174570   4.569130
    29  H    7.983187   9.689476   9.868315   8.049626   4.111578
    30  H   10.663062  12.115555  11.829928   9.656613   6.505505
    31  H   10.493630  12.357120  12.619503  10.761929   6.993429
    32  H    8.992001  10.788739  11.018458   9.193898   5.683349
    33  H    5.763815   7.413451   7.657704   6.007930   2.666239
                   26         27         28         29         30
    26  H    0.000000
    27  H    2.816087   0.000000
    28  H    2.635157   2.882137   0.000000
    29  H    4.361648   1.913227   3.136339   0.000000
    30  H    5.165542   4.320969   2.571097   3.224208   0.000000
    31  H    6.711270   4.760182   4.594320   3.047838   2.826165
    32  H    5.324097   3.615068   3.613170   2.594034   3.014196
    33  H    3.252132   1.844721   3.625674   3.030845   5.090725
                   31         32         33
    31  H    0.000000
    32  H    2.029938   0.000000
    33  H    5.115662   3.399508   0.000000
 Stoichiometry    C14H14N4O
 Framework group  C1[X(C14H14N4O)]
 Deg. of freedom    93
 Full point group                 C1      NOp   1
 Largest Abelian subgroup         C1      NOp   1
 Largest concise Abelian subgroup C1      NOp   1
                         Standard orientation:                         
 ---------------------------------------------------------------------
 Center     Atomic      Atomic             Coordinates (Angstroms)
 Number     Number       Type             X           Y           Z
 ---------------------------------------------------------------------
      1          8           0       -0.868252    3.778164    0.376081
      2          6           0       -1.274060    2.657493    0.105304
      3          6           0       -0.300240    1.349160   -0.282186
      4          6           0       -1.904715    0.574837   -0.184170
      5          6           0       -3.708040    0.982902    0.053648
      6          6           0       -4.932890    0.212695    0.086762
      7          6           0       -4.988467   -1.215041   -0.020293
      8          6           0       -3.734063   -1.673562   -0.097467
      9          7           0       -2.381517   -0.981369   -0.119819
     10          7           0       -1.421339   -1.863774   -0.185152
     11          6           0       -0.386917   -1.326694    0.324130
     12          7           0        0.809768   -1.750906   -0.032978
     13          7           0        1.897863   -1.087481    0.099098
     14          6           0        3.153243   -1.476881    0.048761
     15          6           0        3.976905   -0.673620    0.686209
     16          6           0        5.269681   -0.678303    0.194559
     17          6           0        5.196364    0.684629   -0.041908
     18          6           0        3.494114    1.391295   -0.657803
     19          6           0        1.676836    1.426637   -0.475045
     20          1           0       -2.432291    2.623852    0.178109
     21          1           0       -4.147166    1.972921    0.219002
     22          1           0       -6.022630    0.553829    0.187516
     23          1           0       -5.928040   -1.853158   -0.030976
     24          1           0       -3.685050   -2.769268   -0.166856
     25          1           0       -0.413785   -0.412034    0.956520
     26          1           0        0.858456   -2.690260   -0.340607
     27          1           0        1.860246   -0.282835    0.722910
     28          1           0        3.475568   -2.388440   -0.401312
     29          1           0        3.621858    0.361309    1.100055
     30          1           0        5.898804   -1.588822   -0.086546
     31          1           0        6.314968    1.206295   -0.049934
     32          1           0        4.669403    0.925759   -1.204952
     33          1           0        1.315760    0.486960   -0.862632
 ---------------------------------------------------------------------
 Rotational constants (GHZ):           0.7201355           0.1960423           0.1565224
 Standard basis: 6-31G(2df,p) (6D, 7F)
 There are   659 symmetry adapted cartesian basis functions of A   symmetry.
 There are   602 symmetry adapted basis functions of A   symmetry.
   602 basis functions,   934 primitive gaussians,   659 cartesian basis functions
    67 alpha electrons       67 beta electrons
       nuclear repulsion energy      1287.6243907970 Hartrees.
 NAtoms=   33 NActive=   33 NUniq=   33 SFac= 1.00D+00 NAtFMM=   60 NAOKFM=F Big=F
 Integral buffers will be    131072 words long.
 Raffenetti 2 integral format.
 Two-electron integral symmetry is turned on.
 One-electron integrals computed using PRISM.
 PrsmSu:  requested number of processors reduced to:  12 ShMem   1 Linda.
 NBasis=   602 RedAO= T EigKep=  1.59D-04  NBF=   602
 NBsUse=   602 1.00D-06 EigRej= -1.00D+00 NBFU=   602
 ExpMin= 1.61D-01 ExpMax= 5.48D+03 ExpMxC= 8.25D+02 IAcc=3 IRadAn=         5 AccDes= 0.00D+00
 Harris functional with IExCor=  402 and IRadAn=       5 diagonalized for initial guess.
 HarFok:  IExCor=  402 AccDes= 0.00D+00 IRadAn=         5 IDoV= 1 UseB2=F ITyADJ=14
 ICtDFT=  3500011 ScaDFX=  1.000000  1.000000  1.000000  1.000000
 FoFCou: FMM=F IPFlag=           0 FMFlag=      100000 FMFlg1=           0
         NFxFlg=           0 DoJE=T BraDBF=F KetDBF=T FulRan=T
         wScrn=  0.000000 ICntrl=       500 IOpCl=  0 I1Cent=   200000004 NGrid=           0
         NMat0=    1 NMatS0=      1 NMatT0=    0 NMatD0=    1 NMtDS0=    0 NMtDT0=    0
 Petite list used in FoFCou.
 Requested convergence on RMS density matrix=1.00D-08 within 128 cycles.
 Requested convergence on MAX density matrix=1.00D-06.
 Requested convergence on             energy=1.00D-06.
 No special actions if energy rises.
 Integral accuracy reduced to 1.0D-05 until final iterations.
 EnCoef did     2 forward-backward iterations
 EnCoef did     3 forward-backward iterations
 Problem detected with inexpensive integrals.
 Switching to full accuracy and repeating last cycle.
 EnCoef did     4 forward-backward iterations
 EnCoef did     2 forward-backward iterations
 EnCoef did     5 forward-backward iterations
 EnCoef did     2 forward-backward iterations
 EnCoef did     4 forward-backward iterations
 Restarting incremental Fock formation.
 SCF Done:  E(RB3LYP) =  -835.014585949     A.U. after   35 cycles
            NFock= 35  Conv=0.71D-08     -V/T= 2.0078

 **********************************************************************

            Population analysis using the SCF density.

 **********************************************************************

 Orbital symmetries:
       Occupied  (A) (A) (A) (A) (A) (A) (A) (A) (A) (A) (A) (A)
                 (A) (A) (A) (A) (A) (A) (A) (A) (A) (A) (A) (A)
                 (A) (A) (A) (A) (A) (A) (A) (A) (A) (A) (A) (A)
                 (A) (A) (A) (A) (A) (A) (A) (A) (A) (A) (A) (A)
                 (A) (A) (A) (A) (A) (A) (A) (A) (A) (A) (A) (A)
                 (A) (A) (A) (A) (A) (A) (A)
       Virtual   (A) (A) (A) (A) (A) (A) (A) (A) (A) (A) (A) (A)
                 (A) (A) (A) (A) (A) (A) (A) (A) (A) (A) (A) (A)
                 (A) (A) (A) (A) (A) (A) (A) (A) (A) (A) (A) (A)
                 (A) (A) (A) (A) (A) (A) (A) (A) (A) (A) (A) (A)
                 (A) (A) (A) (A) (A) (A) (A) (A) (A) (A) (A) (A)
                 (A) (A) (A) (A) (A) (A) (A) (A) (A) (A) (A) (A)
                 (A) (A) (A) (A) (A) (A) (A) (A) (A) (A) (A) (A)
                 (A) (A) (A) (A) (A) (A) (A) (A) (A) (A) (A) (A)
                 (A) (A) (A) (A) (A) (A) (A) (A) (A) (A) (A) (A)
                 (A) (A) (A) (A) (A) (A) (A) (A) (A) (A) (A) (A)
                 (A) (A) (A) (A) (A) (A) (A) (A) (A) (A) (A) (A)
                 (A) (A) (A) (A) (A) (A) (A) (A) (A) (A) (A) (A)
                 (A) (A) (A) (A) (A) (A) (A) (A) (A) (A) (A) (A)
                 (A) (A) (A) (A) (A) (A) (A) (A) (A) (A) (A) (A)
                 (A) (A) (A) (A) (A) (A) (A) (A) (A) (A) (A) (A)
                 (A) (A) (A) (A) (A) (A) (A) (A) (A) (A) (A) (A)
                 (A) (A) (A) (A) (A) (A) (A) (A) (A) (A) (A) (A)
                 (A) (A) (A) (A) (A) (A) (A) (A) (A) (A) (A) (A)
                 (A) (A) (A) (A) (A) (A) (A) (A) (A) (A) (A) (A)
                 (A) (A) (A) (A) (A) (A) (A) (A) (A) (A) (A) (A)
                 (A) (A) (A) (A) (A) (A) (A) (A) (A) (A) (A) (A)
                 (A) (A) (A) (A) (A) (A) (A) (A) (A) (A) (A) (A)
                 (A) (A) (A) (A) (A) (A) (A) (A) (A) (A) (A) (A)
                 (A) (A) (A) (A) (A) (A) (A) (A) (A) (A) (A) (A)
                 (A) (A) (A) (A) (A) (A) (A) (A) (A) (A) (A) (A)
                 (A) (A) (A) (A) (A) (A) (A) (A) (A) (A) (A) (A)
                 (A) (A) (A) (A) (A) (A) (A) (A) (A) (A) (A) (A)
                 (A) (A) (A) (A) (A) (A) (A) (A) (A) (A) (A) (A)
                 (A) (A) (A) (A) (A) (A) (A) (A) (A) (A) (A) (A)
                 (A) (A) (A) (A) (A) (A) (A) (A) (A) (A) (A) (A)
                 (A) (A) (A) (A) (A) (A) (A) (A) (A) (A) (A) (A)
                 (A) (A) (A) (A) (A) (A) (A) (A) (A) (A) (A) (A)
                 (A) (A) (A) (A) (A) (A) (A) (A) (A) (A) (A) (A)
                 (A) (A) (A) (A) (A) (A) (A) (A) (A) (A) (A) (A)
                 (A) (A) (A) (A) (A) (A) (A) (A) (A) (A) (A) (A)
                 (A) (A) (A) (A) (A) (A) (A) (A) (A) (A) (A) (A)
                 (A) (A) (A) (A) (A) (A) (A) (A) (A) (A) (A) (A)
                 (A) (A) (A) (A) (A) (A) (A) (A) (A) (A) (A) (A)
                 (A) (A) (A) (A) (A) (A) (A) (A) (A) (A) (A) (A)
                 (A) (A) (A) (A) (A) (A) (A) (A) (A) (A) (A) (A)
                 (A) (A) (A) (A) (A) (A) (A) (A) (A) (A) (A) (A)
                 (A) (A) (A) (A) (A) (A) (A) (A) (A) (A) (A) (A)
                 (A) (A) (A) (A) (A) (A) (A) (A) (A) (A) (A) (A)
                 (A) (A) (A) (A) (A) (A) (A) (A) (A) (A) (A) (A)
                 (A) (A) (A) (A) (A) (A) (A)
 The electronic state is 1-A.
 Alpha  occ. eigenvalues --  -19.09828 -14.43720 -14.42844 -14.42537 -14.35185
 Alpha  occ. eigenvalues --  -10.30061 -10.27982 -10.27158 -10.24766 -10.24324
 Alpha  occ. eigenvalues --  -10.24169 -10.23416 -10.23152 -10.22969 -10.22596
 Alpha  occ. eigenvalues --  -10.22207 -10.21445 -10.20526 -10.19855  -1.11894
 Alpha  occ. eigenvalues --   -1.05625  -0.99467  -0.93889  -0.87311  -0.84344
 Alpha  occ. eigenvalues --   -0.79222  -0.74162  -0.73570  -0.71426  -0.67932
 Alpha  occ. eigenvalues --   -0.67163  -0.64921  -0.62323  -0.60875  -0.60327
 Alpha  occ. eigenvalues --   -0.59363  -0.54625  -0.53461  -0.52645  -0.51560
 Alpha  occ. eigenvalues --   -0.50272  -0.48648  -0.48366  -0.47079  -0.45728
 Alpha  occ. eigenvalues --   -0.43905  -0.43762  -0.41805  -0.40528  -0.39814
 Alpha  occ. eigenvalues --   -0.38743  -0.37398  -0.36133  -0.35084  -0.34615
 Alpha  occ. eigenvalues --   -0.32757  -0.32699  -0.30407  -0.29593  -0.27199
 Alpha  occ. eigenvalues --   -0.25910  -0.24540  -0.23800  -0.20990  -0.20327
 Alpha  occ. eigenvalues --   -0.17948  -0.16139
 Alpha virt. eigenvalues --   -0.13207  -0.09537  -0.05433  -0.05128  -0.03597
 Alpha virt. eigenvalues --   -0.02586   0.00099   0.01695   0.03313   0.04127
 Alpha virt. eigenvalues --    0.04871   0.06585   0.07704   0.07990   0.08971
 Alpha virt. eigenvalues --    0.10672   0.11290   0.11990   0.12306   0.13431
 Alpha virt. eigenvalues --    0.13846   0.15401   0.16391   0.16725   0.18105
 Alpha virt. eigenvalues --    0.18381   0.19687   0.20790   0.23099   0.24518
 Alpha virt. eigenvalues --    0.26086   0.27160   0.28669   0.29585   0.30189
 Alpha virt. eigenvalues --    0.30667   0.32327   0.33554   0.34113   0.34982
 Alpha virt. eigenvalues --    0.35884   0.38544   0.40211   0.41686   0.43156
 Alpha virt. eigenvalues --    0.44387   0.44538   0.45432   0.46726   0.47827
 Alpha virt. eigenvalues --    0.48629   0.49713   0.50189   0.51211   0.51378
 Alpha virt. eigenvalues --    0.52055   0.53058   0.54132   0.54570   0.54849
 Alpha virt. eigenvalues --    0.55347   0.55741   0.56411   0.57426   0.57755
 Alpha virt. eigenvalues --    0.58050   0.58393   0.58507   0.59193   0.59864
 Alpha virt. eigenvalues --    0.60591   0.61267   0.61773   0.62660   0.63868
 Alpha virt. eigenvalues --    0.65235   0.65877   0.66195   0.67211   0.67782
 Alpha virt. eigenvalues --    0.68028   0.68732   0.69439   0.70196   0.71392
 Alpha virt. eigenvalues --    0.72112   0.72465   0.72848   0.72934   0.73310
 Alpha virt. eigenvalues --    0.73592   0.73991   0.74831   0.75847   0.76120
 Alpha virt. eigenvalues --    0.77477   0.77982   0.78570   0.79257   0.79858
 Alpha virt. eigenvalues --    0.80009   0.80797   0.80953   0.82060   0.82500
 Alpha virt. eigenvalues --    0.83601   0.84592   0.85298   0.86050   0.86906
 Alpha virt. eigenvalues --    0.87595   0.88544   0.88667   0.89426   0.90802
 Alpha virt. eigenvalues --    0.91752   0.92029   0.92494   0.94327   0.94954
 Alpha virt. eigenvalues --    0.95338   0.96428   0.97742   0.98425   0.98983
 Alpha virt. eigenvalues --    0.99758   1.00235   1.01503   1.02095   1.02445
 Alpha virt. eigenvalues --    1.03582   1.04022   1.05894   1.06874   1.08295
 Alpha virt. eigenvalues --    1.08864   1.09471   1.10607   1.11008   1.11524
 Alpha virt. eigenvalues --    1.13395   1.14278   1.15432   1.16236   1.17646
 Alpha virt. eigenvalues --    1.18338   1.18622   1.20514   1.22524   1.23321
 Alpha virt. eigenvalues --    1.24131   1.26019   1.27118   1.28033   1.29288
 Alpha virt. eigenvalues --    1.29358   1.30403   1.32772   1.33935   1.35050
 Alpha virt. eigenvalues --    1.35292   1.35605   1.37347   1.38381   1.39174
 Alpha virt. eigenvalues --    1.40210   1.40924   1.42106   1.43073   1.43994
 Alpha virt. eigenvalues --    1.44799   1.45438   1.46246   1.47997   1.48886
 Alpha virt. eigenvalues --    1.49652   1.50443   1.52956   1.53917   1.55011
 Alpha virt. eigenvalues --    1.55727   1.56735   1.58748   1.59756   1.60467
 Alpha virt. eigenvalues --    1.61572   1.61877   1.62379   1.63335   1.64459
 Alpha virt. eigenvalues --    1.65180   1.67821   1.69449   1.70090   1.71177
 Alpha virt. eigenvalues --    1.72522   1.73314   1.74621   1.75432   1.76272
 Alpha virt. eigenvalues --    1.76648   1.78542   1.79592   1.81174   1.83307
 Alpha virt. eigenvalues --    1.84731   1.86248   1.87072   1.88206   1.89285
 Alpha virt. eigenvalues --    1.90478   1.91268   1.93639   1.94063   1.96547
 Alpha virt. eigenvalues --    2.00646   2.00920   2.02479   2.03918   2.06615
 Alpha virt. eigenvalues --    2.10502   2.11239   2.12181   2.14079   2.15680
 Alpha virt. eigenvalues --    2.18089   2.18641   2.19805   2.21083   2.24072
 Alpha virt. eigenvalues --    2.24470   2.25865   2.27779   2.29600   2.31837
 Alpha virt. eigenvalues --    2.33096   2.34186   2.34610   2.38093   2.38392
 Alpha virt. eigenvalues --    2.38604   2.40190   2.40857   2.41946   2.45722
 Alpha virt. eigenvalues --    2.46396   2.49286   2.51181   2.52653   2.53692
 Alpha virt. eigenvalues --    2.55202   2.58265   2.60363   2.61547   2.62489
 Alpha virt. eigenvalues --    2.62948   2.65259   2.67275   2.68478   2.69922
 Alpha virt. eigenvalues --    2.70989   2.71947   2.72556   2.72886   2.75179
 Alpha virt. eigenvalues --    2.76080   2.76413   2.78421   2.78933   2.79894
 Alpha virt. eigenvalues --    2.81941   2.82626   2.83119   2.84068   2.85280
 Alpha virt. eigenvalues --    2.86668   2.86910   2.87696   2.89612   2.90778
 Alpha virt. eigenvalues --    2.92042   2.93571   2.93798   2.95463   2.96004
 Alpha virt. eigenvalues --    2.96309   2.96883   2.98205   2.98946   3.00362
 Alpha virt. eigenvalues --    3.01865   3.02280   3.04162   3.05189   3.06697
 Alpha virt. eigenvalues --    3.08161   3.08971   3.09524   3.11502   3.11967
 Alpha virt. eigenvalues --    3.12784   3.14491   3.15372   3.15838   3.16329
 Alpha virt. eigenvalues --    3.17070   3.17378   3.18697   3.19692   3.20935
 Alpha virt. eigenvalues --    3.21715   3.22651   3.23088   3.24227   3.24555
 Alpha virt. eigenvalues --    3.26362   3.27284   3.28009   3.29313   3.30450
 Alpha virt. eigenvalues --    3.32174   3.33400   3.34378   3.35285   3.36115
 Alpha virt. eigenvalues --    3.38034   3.38934   3.39762   3.40328   3.40745
 Alpha virt. eigenvalues --    3.43222   3.43844   3.44340   3.45385   3.46516
 Alpha virt. eigenvalues --    3.48170   3.49499   3.50119   3.51824   3.53117
 Alpha virt. eigenvalues --    3.54720   3.54973   3.56055   3.57671   3.59225
 Alpha virt. eigenvalues --    3.60328   3.61302   3.62051   3.64862   3.65555
 Alpha virt. eigenvalues --    3.67468   3.67925   3.68983   3.70114   3.71328
 Alpha virt. eigenvalues --    3.72326   3.73226   3.74077   3.74970   3.77818
 Alpha virt. eigenvalues --    3.78469   3.79814   3.80553   3.81953   3.84487
 Alpha virt. eigenvalues --    3.86054   3.87195   3.88747   3.91909   3.94790
 Alpha virt. eigenvalues --    3.96557   3.97244   3.98530   4.00464   4.02303
 Alpha virt. eigenvalues --    4.04543   4.05273   4.05980   4.07428   4.08822
 Alpha virt. eigenvalues --    4.10138   4.12056   4.12863   4.14082   4.16362
 Alpha virt. eigenvalues --    4.17362   4.18098   4.19036   4.21063   4.22133
 Alpha virt. eigenvalues --    4.23041   4.24439   4.24779   4.26209   4.27702
 Alpha virt. eigenvalues --    4.28077   4.29013   4.30385   4.31645   4.32096
 Alpha virt. eigenvalues --    4.33070   4.33804   4.34859   4.36180   4.37330
 Alpha virt. eigenvalues --    4.37749   4.38632   4.39125   4.40177   4.41250
 Alpha virt. eigenvalues --    4.43080   4.44022   4.44272   4.46576   4.48081
 Alpha virt. eigenvalues --    4.48470   4.48823   4.49011   4.50553   4.51030
 Alpha virt. eigenvalues --    4.51441   4.52919   4.54259   4.54765   4.55211
 Alpha virt. eigenvalues --    4.55448   4.56323   4.57272   4.57994   4.59987
 Alpha virt. eigenvalues --    4.60456   4.61323   4.62573   4.63316   4.63757
 Alpha virt. eigenvalues --    4.64528   4.65126   4.66161   4.68172   4.68974
 Alpha virt. eigenvalues --    4.69316   4.70090   4.71599   4.72906   4.73366
 Alpha virt. eigenvalues --    4.74834   4.75558   4.77261   4.77625   4.78269
 Alpha virt. eigenvalues --    4.79276   4.81972   4.82954   4.83970   4.84894
 Alpha virt. eigenvalues --    4.86598   4.91039   4.92567   4.92700   4.94308
 Alpha virt. eigenvalues --    4.94818   4.96755   4.97569   4.98333   5.01138
 Alpha virt. eigenvalues --    5.02283   5.03723   5.04910   5.07180   5.10136
 Alpha virt. eigenvalues --    5.11501   5.11896   5.14467   5.15520   5.15718
 Alpha virt. eigenvalues --    5.17030   5.18644   5.21730   5.23850   5.25418
 Alpha virt. eigenvalues --    5.26803   5.27629   5.31550   5.33798   5.34474
 Alpha virt. eigenvalues --    5.35362   5.36312   5.38902   5.40159   5.41944
 Alpha virt. eigenvalues --    5.43663   5.48010   5.50450   5.51542   5.58349
 Alpha virt. eigenvalues --    5.60176   5.63429   5.63803   5.67119   5.70345
 Alpha virt. eigenvalues --    5.76215   5.76856   5.81653   5.93442   5.98815
 Alpha virt. eigenvalues --    6.02750   6.04826   6.23134   6.26825   6.29687
 Alpha virt. eigenvalues --    6.51093   6.85463   9.73195   9.88125  10.13406
 Alpha virt. eigenvalues --   10.24338  10.34841  10.50406  10.79013  10.88320
 Alpha virt. eigenvalues --   11.05893  11.15598  11.29382  11.33206  11.39561
 Alpha virt. eigenvalues --   11.40914  11.48582  11.50049  11.74214  11.77680
 Alpha virt. eigenvalues --   12.25697  12.84552  13.14459  20.28098  24.61195
          Condensed to atoms (all electrons):
               1          2          3          4          5          6
     1  O    7.675677   0.719302  -0.048899  -0.003508  -0.000215  -0.000017
     2  C    0.719302   4.580929   0.248207  -0.021393  -0.019084   0.001018
     3  C   -0.048899   0.248207   5.993230   0.115366  -0.009096  -0.000230
     4  C   -0.003508  -0.021393   0.115366   5.429930   0.301810  -0.013386
     5  C   -0.000215  -0.019084  -0.009096   0.301810   5.165799   0.539651
     6  C   -0.000017   0.001018  -0.000230  -0.013386   0.539651   4.853706
     7  C    0.000000  -0.000005   0.000000  -0.001102  -0.012708   0.462247
     8  C   -0.000000  -0.000067   0.000106  -0.021342  -0.041625   0.000352
     9  N   -0.000017  -0.000806  -0.008910   0.296861  -0.016530  -0.024152
    10  N    0.000000  -0.000012  -0.001229  -0.070323   0.002858   0.001056
    11  C    0.000008   0.000304  -0.009779  -0.023815   0.000101  -0.000008
    12  N   -0.000000   0.000010  -0.009731   0.001011  -0.000022  -0.000000
    13  N    0.000000  -0.000015  -0.004885   0.000504  -0.000000  -0.000000
    14  C   -0.000000  -0.000001   0.000542  -0.000024   0.000000   0.000000
    15  C    0.000000  -0.000001  -0.000104   0.000003  -0.000000   0.000000
    16  C    0.000000   0.000000  -0.000008  -0.000000   0.000000  -0.000000
    17  C   -0.000000   0.000000  -0.000090   0.000000  -0.000000  -0.000000
    18  C    0.000007  -0.000009   0.003108  -0.000083   0.000000  -0.000000
    19  C    0.000213  -0.000718   0.054180   0.001759  -0.000035   0.000000
    20  H   -0.055762   0.351157  -0.063502  -0.033259  -0.000668   0.000625
    21  H    0.000117  -0.006908   0.000556  -0.023972   0.340137  -0.044304
    22  H   -0.000000   0.000003  -0.000002   0.000972  -0.040643   0.353037
    23  H   -0.000000   0.000000   0.000000  -0.000061   0.003220  -0.034091
    24  H   -0.000000   0.000000  -0.000003   0.001755   0.001295   0.006505
    25  H   -0.000080   0.001632   0.010859   0.007943   0.000207  -0.000090
    26  H   -0.000000   0.000002  -0.000199  -0.000042   0.000001  -0.000000
    27  H   -0.000001  -0.000005   0.015383  -0.000536  -0.000000   0.000000
    28  H   -0.000000  -0.000000  -0.000011   0.000000  -0.000000  -0.000000
    29  H    0.000000  -0.000001   0.000069  -0.000002   0.000000   0.000000
    30  H   -0.000000   0.000000  -0.000000   0.000000  -0.000000  -0.000000
    31  H    0.000000  -0.000000   0.000000  -0.000000   0.000000  -0.000000
    32  H    0.000000  -0.000000  -0.000041   0.000000  -0.000000   0.000000
    33  H    0.000145   0.001314  -0.011581   0.000138   0.000016   0.000000
               7          8          9         10         11         12
     1  O    0.000000  -0.000000  -0.000017   0.000000   0.000008  -0.000000
     2  C   -0.000005  -0.000067  -0.000806  -0.000012   0.000304   0.000010
     3  C    0.000000   0.000106  -0.008910  -0.001229  -0.009779  -0.009731
     4  C   -0.001102  -0.021342   0.296861  -0.070323  -0.023815   0.001011
     5  C   -0.012708  -0.041625  -0.016530   0.002858   0.000101  -0.000022
     6  C    0.462247   0.000352  -0.024152   0.001056  -0.000008  -0.000000
     7  C    4.866948   0.561014   0.010261   0.001367  -0.000136   0.000004
     8  C    0.561014   4.749432   0.369989  -0.064510   0.005101  -0.000167
     9  N    0.010261   0.369989   6.266736   0.341398  -0.080105  -0.000592
    10  N    0.001367  -0.064510   0.341398   6.501324   0.589199  -0.033476
    11  C   -0.000136   0.005101  -0.080105   0.589199   4.767383   0.370781
    12  N    0.000004  -0.000167  -0.000592  -0.033476   0.370781   6.337724
    13  N   -0.000000   0.000001   0.000020   0.001935  -0.048641   0.301070
    14  C   -0.000000  -0.000000   0.000002  -0.000215   0.007739  -0.054122
    15  C    0.000000   0.000000  -0.000000   0.000005  -0.000581   0.006556
    16  C    0.000000   0.000000   0.000000  -0.000000   0.000009  -0.000037
    17  C    0.000000   0.000000   0.000000   0.000000  -0.000003  -0.000046
    18  C   -0.000000  -0.000000   0.000000  -0.000003   0.000143   0.001267
    19  C    0.000000  -0.000001  -0.000011   0.000134  -0.008001   0.001372
    20  H   -0.000124   0.000108   0.001157  -0.000064  -0.000020  -0.000006
    21  H    0.004350   0.001224   0.001042  -0.000113   0.000000   0.000000
    22  H   -0.050396   0.003453   0.000748   0.000006  -0.000001  -0.000000
    23  H    0.368664  -0.027175   0.001917  -0.000053   0.000001  -0.000000
    24  H   -0.061126   0.366005  -0.039997   0.004738   0.001196  -0.000057
    25  H    0.000048   0.001698   0.001669  -0.042468   0.347211  -0.042835
    26  H    0.000000   0.000034   0.000385   0.008117  -0.027679   0.338982
    27  H    0.000000  -0.000000  -0.000045  -0.000049  -0.006706  -0.030084
    28  H    0.000000   0.000000  -0.000000  -0.000002   0.000029  -0.004042
    29  H   -0.000000  -0.000000   0.000000  -0.000001   0.000018   0.000928
    30  H    0.000000   0.000000  -0.000000   0.000000  -0.000001   0.000001
    31  H   -0.000000  -0.000000   0.000000  -0.000000   0.000000   0.000000
    32  H    0.000000  -0.000000  -0.000000   0.000000  -0.000005  -0.000029
    33  H   -0.000000   0.000001  -0.000021  -0.000158   0.010719  -0.004661
              13         14         15         16         17         18
     1  O    0.000000  -0.000000   0.000000   0.000000  -0.000000   0.000007
     2  C   -0.000015  -0.000001  -0.000001   0.000000   0.000000  -0.000009
     3  C   -0.004885   0.000542  -0.000104  -0.000008  -0.000090   0.003108
     4  C    0.000504  -0.000024   0.000003  -0.000000   0.000000  -0.000083
     5  C   -0.000000   0.000000  -0.000000   0.000000  -0.000000   0.000000
     6  C   -0.000000   0.000000   0.000000  -0.000000  -0.000000  -0.000000
     7  C   -0.000000  -0.000000   0.000000   0.000000   0.000000  -0.000000
     8  C    0.000001  -0.000000   0.000000   0.000000   0.000000  -0.000000
     9  N    0.000020   0.000002  -0.000000   0.000000   0.000000   0.000000
    10  N    0.001935  -0.000215   0.000005  -0.000000   0.000000  -0.000003
    11  C   -0.048641   0.007739  -0.000581   0.000009  -0.000003   0.000143
    12  N    0.301070  -0.054122   0.006556  -0.000037  -0.000046   0.001267
    13  N    6.307346   0.458354  -0.010688   0.000310   0.001256  -0.020377
    14  C    0.458354   4.769358   0.534725  -0.044278  -0.017925  -0.002028
    15  C   -0.010688   0.534725   5.040888   0.425925  -0.070992  -0.015673
    16  C    0.000310  -0.044278   0.425925   4.886260   0.540093  -0.024593
    17  C    0.001256  -0.017925  -0.070992   0.540093   5.499715   0.043103
    18  C   -0.020377  -0.002028  -0.015673  -0.024593   0.043103   5.953910
    19  C   -0.022296  -0.001595  -0.012486   0.000715   0.002863   0.153415
    20  H   -0.000000   0.000000  -0.000000  -0.000000  -0.000000   0.000001
    21  H    0.000000  -0.000000   0.000000   0.000000   0.000000  -0.000000
    22  H   -0.000000   0.000000  -0.000000  -0.000000  -0.000000   0.000000
    23  H    0.000000  -0.000000   0.000000  -0.000000   0.000000  -0.000000
    24  H    0.000000   0.000000  -0.000000   0.000000  -0.000000   0.000000
    25  H   -0.004165   0.000577  -0.000152  -0.000002   0.000000   0.000013
    26  H   -0.037522  -0.003538   0.000003   0.000013   0.000000  -0.000055
    27  H    0.305442  -0.043004   0.002060   0.000569  -0.002133   0.006851
    28  H   -0.032751   0.367391  -0.037472  -0.002351  -0.000125  -0.000619
    29  H   -0.011095  -0.045254   0.369158  -0.020607  -0.035210   0.003262
    30  H    0.000279   0.000518  -0.044564   0.366253  -0.037758   0.000524
    31  H   -0.000025   0.000242   0.007336  -0.045602   0.276902  -0.015942
    32  H   -0.000629   0.004192  -0.004775  -0.009928   0.127711   0.075445
    33  H    0.006691   0.002556   0.000149  -0.000080   0.000201  -0.002170
              19         20         21         22         23         24
     1  O    0.000213  -0.055762   0.000117  -0.000000  -0.000000  -0.000000
     2  C   -0.000718   0.351157  -0.006908   0.000003   0.000000   0.000000
     3  C    0.054180  -0.063502   0.000556  -0.000002   0.000000  -0.000003
     4  C    0.001759  -0.033259  -0.023972   0.000972  -0.000061   0.001755
     5  C   -0.000035  -0.000668   0.340137  -0.040643   0.003220   0.001295
     6  C    0.000000   0.000625  -0.044304   0.353037  -0.034091   0.006505
     7  C    0.000000  -0.000124   0.004350  -0.050396   0.368664  -0.061126
     8  C   -0.000001   0.000108   0.001224   0.003453  -0.027175   0.366005
     9  N   -0.000011   0.001157   0.001042   0.000748   0.001917  -0.039997
    10  N    0.000134  -0.000064  -0.000113   0.000006  -0.000053   0.004738
    11  C   -0.008001  -0.000020   0.000000  -0.000001   0.000001   0.001196
    12  N    0.001372  -0.000006   0.000000  -0.000000  -0.000000  -0.000057
    13  N   -0.022296  -0.000000   0.000000  -0.000000   0.000000   0.000000
    14  C   -0.001595   0.000000  -0.000000   0.000000  -0.000000   0.000000
    15  C   -0.012486  -0.000000   0.000000  -0.000000   0.000000  -0.000000
    16  C    0.000715  -0.000000   0.000000  -0.000000  -0.000000   0.000000
    17  C    0.002863  -0.000000   0.000000  -0.000000   0.000000  -0.000000
    18  C    0.153415   0.000001  -0.000000   0.000000  -0.000000   0.000000
    19  C    5.850235   0.000354  -0.000000  -0.000000  -0.000000  -0.000000
    20  H    0.000354   0.681749   0.007097  -0.000084  -0.000001   0.000003
    21  H   -0.000000   0.007097   0.601002  -0.008356  -0.000196   0.000004
    22  H   -0.000000  -0.000084  -0.008356   0.641471  -0.003037  -0.000542
    23  H   -0.000000  -0.000001  -0.000196  -0.003037   0.562753  -0.005222
    24  H   -0.000000   0.000003   0.000004  -0.000542  -0.005222   0.604681
    25  H    0.003958   0.000008   0.000015   0.000000  -0.000000   0.000050
    26  H   -0.000409   0.000000   0.000000   0.000000  -0.000000   0.000018
    27  H    0.022634   0.000009  -0.000000   0.000000  -0.000000  -0.000000
    28  H   -0.000189  -0.000000   0.000000  -0.000000  -0.000000   0.000000
    29  H    0.006145   0.000000  -0.000000   0.000000   0.000000   0.000000
    30  H   -0.000015  -0.000000   0.000000  -0.000000   0.000000  -0.000000
    31  H   -0.000063   0.000000  -0.000000   0.000000  -0.000000   0.000000
    32  H    0.000710  -0.000000   0.000000  -0.000000   0.000000  -0.000000
    33  H    0.237506  -0.000030   0.000000   0.000000   0.000000   0.000000
              25         26         27         28         29         30
     1  O   -0.000080  -0.000000  -0.000001  -0.000000   0.000000  -0.000000
     2  C    0.001632   0.000002  -0.000005  -0.000000  -0.000001   0.000000
     3  C    0.010859  -0.000199   0.015383  -0.000011   0.000069  -0.000000
     4  C    0.007943  -0.000042  -0.000536   0.000000  -0.000002   0.000000
     5  C    0.000207   0.000001  -0.000000  -0.000000   0.000000  -0.000000
     6  C   -0.000090  -0.000000   0.000000  -0.000000   0.000000  -0.000000
     7  C    0.000048   0.000000   0.000000   0.000000  -0.000000   0.000000
     8  C    0.001698   0.000034  -0.000000   0.000000  -0.000000   0.000000
     9  N    0.001669   0.000385  -0.000045  -0.000000   0.000000  -0.000000
    10  N   -0.042468   0.008117  -0.000049  -0.000002  -0.000001   0.000000
    11  C    0.347211  -0.027679  -0.006706   0.000029   0.000018  -0.000001
    12  N   -0.042835   0.338982  -0.030084  -0.004042   0.000928   0.000001
    13  N   -0.004165  -0.037522   0.305442  -0.032751  -0.011095   0.000279
    14  C    0.000577  -0.003538  -0.043004   0.367391  -0.045254   0.000518
    15  C   -0.000152   0.000003   0.002060  -0.037472   0.369158  -0.044564
    16  C   -0.000002   0.000013   0.000569  -0.002351  -0.020607   0.366253
    17  C    0.000000   0.000000  -0.002133  -0.000125  -0.035210  -0.037758
    18  C    0.000013  -0.000055   0.006851  -0.000619   0.003262   0.000524
    19  C    0.003958  -0.000409   0.022634  -0.000189   0.006145  -0.000015
    20  H    0.000008   0.000000   0.000009  -0.000000   0.000000  -0.000000
    21  H    0.000015   0.000000  -0.000000   0.000000  -0.000000   0.000000
    22  H    0.000000   0.000000   0.000000  -0.000000   0.000000  -0.000000
    23  H   -0.000000  -0.000000  -0.000000  -0.000000   0.000000   0.000000
    24  H    0.000050   0.000018  -0.000000   0.000000   0.000000  -0.000000
    25  H    0.527401   0.005021   0.008460   0.000003  -0.000054  -0.000000
    26  H    0.005021   0.442222   0.003557   0.003376   0.000023  -0.000002
    27  H    0.008460   0.003557   0.446676   0.005307   0.014453  -0.000034
    28  H    0.000003   0.003376   0.005307   0.562881   0.003697   0.002495
    29  H   -0.000054   0.000023   0.014453   0.003697   0.526505   0.002463
    30  H   -0.000000  -0.000002  -0.000034   0.002495   0.002463   0.566711
    31  H    0.000000  -0.000000   0.000044   0.000019   0.001809  -0.001376
    32  H    0.000001  -0.000002   0.000617   0.000549   0.000681  -0.001094
    33  H   -0.003570   0.000889  -0.032044  -0.000045  -0.001376   0.000003
              31         32         33
     1  O    0.000000   0.000000   0.000145
     2  C   -0.000000  -0.000000   0.001314
     3  C    0.000000  -0.000041  -0.011581
     4  C   -0.000000   0.000000   0.000138
     5  C    0.000000  -0.000000   0.000016
     6  C   -0.000000   0.000000   0.000000
     7  C   -0.000000   0.000000  -0.000000
     8  C   -0.000000  -0.000000   0.000001
     9  N    0.000000  -0.000000  -0.000021
    10  N   -0.000000   0.000000  -0.000158
    11  C    0.000000  -0.000005   0.010719
    12  N    0.000000  -0.000029  -0.004661
    13  N   -0.000025  -0.000629   0.006691
    14  C    0.000242   0.004192   0.002556
    15  C    0.007336  -0.004775   0.000149
    16  C   -0.045602  -0.009928  -0.000080
    17  C    0.276902   0.127711   0.000201
    18  C   -0.015942   0.075445  -0.002170
    19  C   -0.000063   0.000710   0.237506
    20  H    0.000000  -0.000000  -0.000030
    21  H   -0.000000   0.000000   0.000000
    22  H    0.000000  -0.000000   0.000000
    23  H   -0.000000   0.000000   0.000000
    24  H    0.000000  -0.000000   0.000000
    25  H    0.000000   0.000001  -0.003570
    26  H   -0.000000  -0.000002   0.000889
    27  H    0.000044   0.000617  -0.032044
    28  H    0.000019   0.000549  -0.000045
    29  H    0.001809   0.000681  -0.001376
    30  H   -0.001376  -0.001094   0.000003
    31  H    0.689713   0.002861  -0.000003
    32  H    0.002861   0.578733  -0.000980
    33  H   -0.000003  -0.000980   0.563103
 Mulliken charges:
               1
     1  O   -0.286972
     2  C    0.145145
     3  C   -0.273306
     4  C    0.054795
     5  C   -0.214469
     6  C   -0.101918
     7  C   -0.149306
     8  C    0.096372
     9  N   -0.121000
    10  N   -0.239460
    11  C    0.105538
    12  N   -0.179801
    13  N   -0.190119
    14  C    0.065788
    15  C   -0.189320
    16  C   -0.072661
    17  C   -0.327564
    18  C   -0.159498
    19  C   -0.290376
    20  H    0.111252
    21  H    0.128305
    22  H    0.103370
    23  H    0.133280
    24  H    0.120696
    25  H    0.176641
    26  H    0.266805
    27  H    0.282579
    28  H    0.131861
    29  H    0.184388
    30  H    0.145597
    31  H    0.084086
    32  H    0.225984
    33  H    0.233288
 Sum of Mulliken charges =  -0.00000
 Mulliken charges with hydrogens summed into heavy atoms:
               1
     1  O   -0.286972
     2  C    0.256397
     3  C   -0.273306
     4  C    0.054795
     5  C   -0.086165
     6  C    0.001452
     7  C   -0.016026
     8  C    0.217068
     9  N   -0.121000
    10  N   -0.239460
    11  C    0.282179
    12  N    0.087004
    13  N    0.092460
    14  C    0.197649
    15  C   -0.004932
    16  C    0.072936
    17  C   -0.017494
    18  C   -0.159498
    19  C   -0.057088
 Electronic spatial extent (au):  <R**2>=           6546.9587
 Charge=             -0.0000 electrons
 Dipole moment (field-independent basis, Debye):
    X=              1.2852    Y=             -9.2115    Z=              0.5737  Tot=              9.3184
 Quadrupole moment (field-independent basis, Debye-Ang):
   XX=            -79.4155   YY=           -123.1983   ZZ=           -116.0973
   XY=             -8.2065   XZ=             -2.5348   YZ=              0.4480
 Traceless Quadrupole moment (field-independent basis, Debye-Ang):
   XX=             26.8215   YY=            -16.9612   ZZ=             -9.8603
   XY=             -8.2065   XZ=             -2.5348   YZ=              0.4480
 Octapole moment (field-independent basis, Debye-Ang**2):
  XXX=            -52.3734  YYY=           -119.2545  ZZZ=              7.4241  XYY=              8.2438
  XXY=            -64.4585  XXZ=             -8.9804  XZZ=             -0.1480  YZZ=             -3.8523
  YYZ=            -10.7511  XYZ=              6.9630
 Hexadecapole moment (field-independent basis, Debye-Ang**3):
 XXXX=          -5916.0467 YYYY=          -2019.5539 ZZZZ=           -197.7247 XXXY=            -77.1720
 XXXZ=            -84.5333 YYYX=            -42.2551 YYYZ=            -10.2081 ZZZX=              5.6512
 ZZZY=             17.7119 XXYY=          -1329.6971 XXZZ=          -1307.7574 YYZZ=           -339.4957
 XXYZ=             29.1908 YYXZ=             -9.7115 ZZXY=            -12.6899
 N-N= 1.287624390797D+03 E-N=-4.516343382120D+03  KE= 8.285161579830D+02
 PrsmSu:  requested number of processors reduced to:  12 ShMem   1 Linda.
 Calling FoFJK, ICntrl=      2127 FMM=F ISym2X=0 I1Cent= 0 IOpClX= 0 NMat=1 NMatS=1 NMatT=0.
 ***** Axes restored to original set *****
 -------------------------------------------------------------------
 Center     Atomic                   Forces (Hartrees/Bohr)
 Number     Number              X              Y              Z
 -------------------------------------------------------------------
      1        8           0.004790910   -0.003617760   -0.024493593
      2        6          -0.039342856    0.000235098    0.018127469
      3        6           0.062665932    0.022719270    0.085693604
      4        6           0.132587301    0.023636018    0.017866335
      5        6           0.026208596    0.000765030    0.009377368
      6        6           0.001121463   -0.004407355   -0.001783468
      7        6          -0.028843276   -0.001897352    0.019636378
      8        6          -0.023777619   -0.007738574   -0.057864556
      9        7           0.036983628   -0.004642083    0.082187424
     10        7           0.006423359   -0.004843632   -0.041458141
     11        6          -0.032418442    0.020423224    0.007778453
     12        7           0.079093247   -0.005004166   -0.025734016
     13        7          -0.059458525    0.038564666    0.003374745
     14        6           0.057628578    0.004989191   -0.008718387
     15        6           0.000909324    0.042937212    0.011564429
     16        6          -0.020801145   -0.001318671    0.007539166
     17        6          -0.130929224   -0.048861216   -0.032747416
     18        6           0.041966077    0.029778095   -0.008355906
     19        6          -0.051270071   -0.015459426    0.026431423
     20        1          -0.023747966   -0.010419355   -0.033363755
     21        1          -0.029532483   -0.006370402   -0.008561182
     22        1          -0.043495581   -0.001091685   -0.006889258
     23        1          -0.034743491   -0.000210669   -0.004451377
     24        1          -0.024138922   -0.000930982   -0.007961616
     25        1           0.009960678   -0.007918314   -0.014203689
     26        1           0.007409476   -0.014798534   -0.017279577
     27        1           0.013174701   -0.001762737    0.007270636
     28        1           0.007195248   -0.013838473   -0.006167514
     29        1           0.029070394    0.003629299   -0.044162322
     30        1          -0.012579048    0.009359256    0.033391056
     31        1           0.045908801   -0.006385833    0.031364178
     32        1           0.000217878   -0.001944592    0.003982749
     33        1          -0.008236940   -0.033574547   -0.021389640
 -------------------------------------------------------------------
 Cartesian Forces:  Max     0.132587301 RMS     0.033630186

 GradGradGradGradGradGradGradGradGradGradGradGradGradGradGradGradGradGrad
 Berny optimization.
 FormGI is forming the generalized inverse of G from B-inverse, IUseBI=4.
 Internal  Forces:  Max     0.302613175 RMS     0.072753334
 Search for a local minimum.
 Step number   1 out of a maximum of  137
 All quantities printed in internal units (Hartrees-Bohrs-Radians)
 Mixed Optimization -- RFO/linear search
 Second derivative matrix not updated -- first step.
 ITU=  0
     Eigenvalues ---    0.00230   0.00230   0.00230   0.00230   0.00230
     Eigenvalues ---    0.00230   0.00230   0.00231   0.00642   0.01464
     Eigenvalues ---    0.01554   0.01570   0.01655   0.02277   0.02284
     Eigenvalues ---    0.02312   0.02459   0.02542   0.02764   0.02812
     Eigenvalues ---    0.02838   0.02866   0.02911   0.03018   0.03052
     Eigenvalues ---    0.03209   0.03250   0.03386   0.03625   0.04995
     Eigenvalues ---    0.13073   0.13157   0.14389   0.14501   0.15202
     Eigenvalues ---    0.15203   0.15325   0.15933   0.15956   0.15971
     Eigenvalues ---    0.16000   0.16000   0.16000   0.16000   0.16000
     Eigenvalues ---    0.16000   0.16000   0.16000   0.18629   0.19189
     Eigenvalues ---    0.21899   0.21989   0.22000   0.22000   0.22000
     Eigenvalues ---    0.22001   0.22005   0.22016   0.22027   0.22323
     Eigenvalues ---    0.22399   0.22411   0.24953   0.24977   0.25000
     Eigenvalues ---    0.25000   0.25000   0.25000   0.27009   0.27746
     Eigenvalues ---    0.29038   0.29446   0.30012   0.30411   0.32356
     Eigenvalues ---    0.33794   0.34175   0.36152   0.37677   0.38606
     Eigenvalues ---    0.40587   0.44525   0.48158   0.48537   0.49557
     Eigenvalues ---    0.57699   0.62202   0.63104   0.63120   0.65635
     Eigenvalues ---    0.72690   0.75627   0.94391
 RFO step:  Lambda=-7.17315611D-01 EMin= 2.30000000D-03
 Linear search not attempted -- first point.
 Maximum step size (   0.300) exceeded in Quadratic search.
    -- Step size scaled by   0.372
 Iteration  1 RMS(Cart)=  0.23828436 RMS(Int)=  0.01351651
 Iteration  2 RMS(Cart)=  0.10612938 RMS(Int)=  0.00194983
 Iteration  3 RMS(Cart)=  0.00389520 RMS(Int)=  0.00014589
 Iteration  4 RMS(Cart)=  0.00000507 RMS(Int)=  0.00014589
 Iteration  5 RMS(Cart)=  0.00000000 RMS(Int)=  0.00014589
 Variable       Old X    -DE/DX   Delta X   Delta X   Delta X     New X
                                 (Linear)    (Quad)   (Total)
    R1        2.30973  -0.01759   0.00000  -0.00394  -0.00394   2.30578
    R2        3.16788  -0.04027   0.00000  -0.01649  -0.01649   3.15139
    R3        2.19398  -0.03950   0.00000  -0.01478  -0.01478   2.17920
    R4        3.37173  -0.01453   0.00000  -0.00627  -0.00627   3.36546
    R5        3.07814  -0.07740   0.00000  -0.03077  -0.03077   3.04737
    R6        2.73493   0.00353   0.00000   0.00119   0.00119   2.73612
    R7        2.07036  -0.00191   0.00000  -0.00067  -0.00067   2.06969
    R8        2.70764   0.02296   0.00000   0.00761   0.00761   2.71525
    R9        2.16624  -0.03045   0.00000  -0.01125  -0.01125   2.15499
   R10        2.52809  -0.05253   0.00000  -0.01511  -0.01511   2.51298
   R11        2.14640  -0.03494   0.00000  -0.01278  -0.01278   2.13362
   R12        2.87152  -0.16606   0.00000  -0.06052  -0.06052   2.81100
   R13        2.07680  -0.00734   0.00000  -0.00259  -0.00259   2.07421
   R14        2.46741   0.08921   0.00000   0.02417   0.02417   2.49159
   R15        2.40363   0.02763   0.00000   0.00698   0.00698   2.41061
   R16        2.49239   0.03635   0.00000   0.01010   0.01010   2.50249
   R17        2.10197  -0.01891   0.00000  -0.00676  -0.00676   2.09521
   R18        2.42116   0.08657   0.00000   0.02231   0.02231   2.44347
   R19        1.87015   0.02168   0.00000   0.00666   0.00666   1.87681
   R20        2.48565   0.03039   0.00000   0.00839   0.00839   2.49404
   R21        1.92531  -0.00240   0.00000  -0.00077  -0.00077   1.92454
   R22        2.48554   0.08466   0.00000   0.02337   0.02337   2.50891
   R23        2.01537   0.01283   0.00000   0.00436   0.00436   2.01974
   R24        2.61371   0.09971   0.00000   0.03086   0.03086   2.64457
   R25        2.21058  -0.04753   0.00000  -0.01792  -0.01792   2.19266
   R26        2.61772   0.07250   0.00000   0.02251   0.02251   2.64023
   R27        2.15782  -0.03529   0.00000  -0.01298  -0.01298   2.14483
   R28        2.33247  -0.05143   0.00000  -0.02035  -0.02035   2.31212
   R29        2.45556   0.01518   0.00000   0.00625   0.00625   2.46181
   R30        3.45213  -0.04803   0.00000  -0.02108  -0.02108   3.43105
   R31        2.60303  -0.01810   0.00000  -0.00775  -0.00775   2.59528
   R32        2.03845   0.01454   0.00000   0.00502   0.00502   2.04346
    A1        2.18209  -0.01735   0.00000  -0.00689  -0.00689   2.17520
    A2        1.92186   0.02422   0.00000   0.01004   0.01004   1.93190
    A3        2.17901  -0.00685   0.00000  -0.00314  -0.00314   2.17587
    A4        1.37313   0.19903   0.00000   0.07659   0.07659   1.44972
    A5        2.31857  -0.04979   0.00000  -0.01916  -0.01916   2.29941
    A6        1.70947   0.06436   0.00000   0.02731   0.02731   1.73678
    A7        2.16689  -0.06443   0.00000  -0.02559  -0.02559   2.14130
    A8        2.27600  -0.00226   0.00000  -0.00184  -0.00184   2.27416
    A9        1.84027   0.06664   0.00000   0.02740   0.02740   1.86767
   A10        1.88543  -0.15838   0.00000  -0.06290  -0.06290   1.82252
   A11        2.20508   0.08179   0.00000   0.03255   0.03255   2.23763
   A12        2.19265   0.07665   0.00000   0.03037   0.03037   2.22302
   A13        2.31764  -0.30261   0.00000  -0.12018  -0.12018   2.19747
   A14        1.96836   0.17646   0.00000   0.07076   0.07076   2.03913
   A15        1.99713   0.12614   0.00000   0.04941   0.04941   2.04654
   A16        2.34107  -0.23234   0.00000  -0.08944  -0.08944   2.25163
   A17        2.01354   0.12203   0.00000   0.04700   0.04701   2.06056
   A18        1.92564   0.11023   0.00000   0.04245   0.04246   1.96810
   A19        1.86780   0.01457   0.00000   0.00561   0.00561   1.87340
   A20        2.08710   0.04847   0.00000   0.01922   0.01922   2.10631
   A21        2.15941  -0.02568   0.00000  -0.01027  -0.01027   2.14914
   A22        2.02677  -0.02367   0.00000  -0.00942  -0.00942   2.01735
   A23        2.18475  -0.08039   0.00000  -0.03191  -0.03191   2.15284
   A24        2.01983   0.04309   0.00000   0.01721   0.01721   2.03704
   A25        2.07346   0.03751   0.00000   0.01484   0.01484   2.08830
   A26        2.28274   0.05742   0.00000   0.02273   0.02273   2.30547
   A27        2.02719  -0.03267   0.00000  -0.01316  -0.01316   2.01403
   A28        1.86761  -0.01791   0.00000  -0.00679  -0.00678   1.86083
   A29        1.98049  -0.03677   0.00000  -0.01462  -0.01462   1.96586
   A30        2.16233   0.00860   0.00000   0.00313   0.00313   2.16546
   A31        2.13798   0.02743   0.00000   0.01112   0.01112   2.14909
   A32        1.99432   0.11827   0.00000   0.04742   0.04722   2.04154
   A33        2.11963  -0.05909   0.00000  -0.02302  -0.02336   2.09627
   A34        1.99593  -0.01525   0.00000  -0.00397  -0.00408   1.99185
   A35        1.57867   0.27057   0.00000   0.10792   0.10776   1.68644
   A36        2.22079  -0.10731   0.00000  -0.04114  -0.04115   2.17964
   A37        2.45230  -0.14428   0.00000  -0.05735  -0.05774   2.39456
   A38        1.94871  -0.01138   0.00000  -0.00583  -0.00575   1.94296
   A39        1.93567   0.05002   0.00000   0.02022   0.02026   1.95593
   A40        1.85800  -0.07605   0.00000  -0.03418  -0.03413   1.82388
   A41        2.67937  -0.05232   0.00000  -0.02220  -0.02220   2.65717
   A42        1.85479  -0.05818   0.00000  -0.02468  -0.02468   1.83010
   A43        1.62402   0.19203   0.00000   0.07390   0.07390   1.69792
    D1        3.01981  -0.00521   0.00000  -0.00269  -0.00269   3.01711
    D2        3.11680   0.00168   0.00000   0.00087   0.00087   3.11767
    D3       -0.09699  -0.00689   0.00000  -0.00356  -0.00356  -0.10056
    D4       -2.91163  -0.00978   0.00000  -0.00506  -0.00506  -2.91669
    D5       -3.08542  -0.00783   0.00000  -0.00385  -0.00380  -3.08922
    D6       -0.03591   0.00044   0.00000   0.00002  -0.00003  -0.03594
    D7       -3.09137  -0.00744   0.00000  -0.00378  -0.00377  -3.09514
    D8        0.06014  -0.00077   0.00000  -0.00039  -0.00040   0.05973
    D9        0.04218   0.00187   0.00000   0.00096   0.00096   0.04314
   D10       -3.10638   0.01052   0.00000   0.00532   0.00533  -3.10106
   D11       -3.10725  -0.00356   0.00000  -0.00179  -0.00180  -3.10904
   D12        0.02738   0.00509   0.00000   0.00257   0.00257   0.02994
   D13       -0.02652   0.01735   0.00000   0.00869   0.00868  -0.01783
   D14        3.12600   0.01738   0.00000   0.00867   0.00868   3.13468
   D15        3.12198   0.00875   0.00000   0.00436   0.00435   3.12634
   D16       -0.00869   0.00877   0.00000   0.00434   0.00435  -0.00434
   D17       -0.10583   0.01705   0.00000   0.00852   0.00847  -0.09737
   D18        3.12448   0.00757   0.00000   0.00421   0.00425   3.12873
   D19        3.02470   0.01721   0.00000   0.00861   0.00857   3.03326
   D20       -0.02818   0.00773   0.00000   0.00430   0.00435  -0.02382
   D21        0.51716  -0.01243   0.00000  -0.00721  -0.00738   0.50979
   D22       -2.69487  -0.02489   0.00000  -0.01149  -0.01133  -2.70620
   D23       -2.70526  -0.00394   0.00000  -0.00188  -0.00188  -2.70714
   D24        0.27957  -0.01263   0.00000  -0.00633  -0.00633   0.27324
   D25        2.78529  -0.02235   0.00000  -0.01120  -0.01120   2.77408
   D26       -0.46702  -0.01695   0.00000  -0.00845  -0.00846  -0.47547
   D27       -0.21117  -0.01350   0.00000  -0.00676  -0.00676  -0.21793
   D28        2.81971  -0.00811   0.00000  -0.00401  -0.00401   2.81570
   D29        2.86415  -0.00878   0.00000  -0.00457  -0.00458   2.85957
   D30        0.26969  -0.01536   0.00000  -0.00741  -0.00740   0.26228
   D31       -0.16361  -0.01435   0.00000  -0.00741  -0.00742  -0.17104
   D32       -2.75808  -0.02093   0.00000  -0.01026  -0.01024  -2.76833
   D33       -2.73487  -0.00818   0.00000  -0.00413  -0.00416  -2.73902
   D34        0.33400  -0.01841   0.00000  -0.00924  -0.00924   0.32476
   D35       -0.10346  -0.00804   0.00000  -0.00397  -0.00396  -0.10742
   D36        2.96540  -0.01827   0.00000  -0.00907  -0.00905   2.95635
   D37       -2.66488  -0.07091   0.00000  -0.03449  -0.03436  -2.69924
   D38       -0.15678  -0.00050   0.00000  -0.00095  -0.00109  -0.15787
   D39        0.54829  -0.06000   0.00000  -0.02911  -0.02896   0.51932
   D40        3.05639   0.01040   0.00000   0.00444   0.00431   3.06070
   D41        2.12760   0.04470   0.00000   0.02277   0.02354   2.15113
   D42       -0.79162  -0.01013   0.00000  -0.00547  -0.00582  -0.79744
   D43       -0.42639   0.00032   0.00000   0.00053   0.00089  -0.42550
   D44        2.93758  -0.05451   0.00000  -0.02771  -0.02847   2.90911
   D45        2.71224  -0.06839   0.00000  -0.03446  -0.03402   2.67823
   D46       -1.50188  -0.13842   0.00000  -0.06789  -0.06745  -1.56933
   D47       -0.70905   0.02811   0.00000   0.01241   0.01197  -0.69707
   D48        1.36002  -0.04192   0.00000  -0.02101  -0.02146   1.33856
   D49        1.88792   0.05837   0.00000   0.03018   0.03024   1.91816
   D50       -2.27213   0.02567   0.00000   0.01329   0.01323  -2.25890
   D51        0.34866  -0.04899   0.00000  -0.02534  -0.02534   0.32332
   D52       -2.22180  -0.13411   0.00000  -0.06937  -0.06937  -2.29117
         Item               Value     Threshold  Converged?
 Maximum Force            0.302613     0.000450     NO 
 RMS     Force            0.072753     0.000300     NO 
 Maximum Displacement     1.666578     0.001800     NO 
 RMS     Displacement     0.338810     0.001200     NO 
 Predicted change in Energy=-2.558763D-01
 GradGradGradGradGradGradGradGradGradGradGradGradGradGradGradGradGradGrad

                          Input orientation:                          
 ---------------------------------------------------------------------
 Center     Atomic      Atomic             Coordinates (Angstroms)
 Number     Number       Type             X           Y           Z
 ---------------------------------------------------------------------
      1          8           0        0.534788    0.157567   -0.011574
      2          6           0        1.583375   -0.058918   -0.596733
      3          6           0        1.705926   -0.416208   -2.221035
      4          6           0        3.451887   -0.274925   -1.899548
      5          6           0        4.179063   -0.093421   -0.955039
[...]
    D5        3.13240  -0.00063   0.00102   0.00000   0.00077   3.13317
    D6       -0.04955   0.00047   0.00573   0.00000   0.00542  -0.04413
    D7        3.14078   0.00046   0.00949   0.00000   0.00934  -3.13307
    D8       -0.00794   0.00057   0.00193   0.00000   0.00181  -0.00613
    D9        0.01636   0.00001  -0.01117   0.00000  -0.01113   0.00522
   D10       -3.13329   0.00038  -0.01345   0.00000  -0.01352   3.13637
   D11       -3.11819  -0.00010  -0.00368   0.00000  -0.00367  -3.12185
   D12        0.01536   0.00028  -0.00597   0.00000  -0.00606   0.00930
   D13       -0.00520   0.00104  -0.00860   0.00000  -0.00866  -0.01386
   D14        3.12860   0.00088  -0.00514   0.00000  -0.00515   3.12345
   D15       -3.13893   0.00067  -0.00637   0.00000  -0.00636   3.13790
   D16       -0.00513   0.00051  -0.00291   0.00000  -0.00285  -0.00798
   D17       -0.03254   0.00127   0.00330   0.00000   0.00319  -0.02936
   D18       -3.13905   0.00030  -0.00093   0.00000  -0.00098  -3.14003
   D19        3.11607   0.00139   0.00017   0.00000   0.00003   3.11610
   D20        0.00956   0.00042  -0.00406   0.00000  -0.00414   0.00543
   D21        0.15205  -0.00222  -0.02519   0.00000  -0.02525   0.12680
   D22       -3.02672  -0.00139  -0.02088   0.00000  -0.02089  -3.04762
   D23       -3.14050  -0.00134  -0.01056   0.00000  -0.01060   3.13208
   D24       -0.08034   0.00113   0.00313   0.00000   0.00294  -0.07740
   D25        2.92245   0.00204   0.02080   0.00000   0.02114   2.94359
   D26       -0.05104   0.00227   0.03175   0.00000   0.03190  -0.01914
   D27       -0.13855   0.00009   0.00891   0.00000   0.00894  -0.12962
   D28       -3.11204   0.00032   0.01986   0.00000   0.01969  -3.09234
   D29        3.01277   0.00024   0.00694   0.00000   0.00694   3.01971
   D30        0.01538  -0.00071  -0.00989   0.00000  -0.00997   0.00541
   D31       -0.28597  -0.00006  -0.00335   0.00000  -0.00347  -0.28945
   D32        2.99982  -0.00101  -0.02018   0.00000  -0.02038   2.97944
   D33       -3.09883  -0.00073  -0.01652   0.00000  -0.01689  -3.11572
   D34        0.06753  -0.00083  -0.01388   0.00000  -0.01411   0.05342
   D35       -0.11219   0.00036   0.00167   0.00000   0.00160  -0.11059
   D36        3.05417   0.00026   0.00431   0.00000   0.00438   3.05855
   D37       -3.08864  -0.00058  -0.00346   0.00000  -0.00317  -3.09181
   D38        0.05079  -0.00005   0.00345   0.00000   0.00376   0.05454
   D39        0.02681  -0.00048  -0.00625   0.00000  -0.00616   0.02065
   D40       -3.11695   0.00006   0.00066   0.00000   0.00076  -3.11619
   D41        3.09665   0.00067   0.01169   0.00000   0.01163   3.10828
   D42       -0.03313   0.00084   0.01871   0.00000   0.01874  -0.01439
   D43       -0.04275   0.00014   0.00473   0.00000   0.00464  -0.03811
   D44        3.11066   0.00031   0.01174   0.00000   0.01175   3.12241
   D45        2.55665  -0.00059  -0.00289   0.00000  -0.00412   2.55253
   D46       -1.68999  -0.00159  -0.01677   0.00000  -0.01752  -1.70752
   D47       -0.59630  -0.00076  -0.00963   0.00000  -0.01098  -0.60728
   D48        1.44025  -0.00175  -0.02350   0.00000  -0.02439   1.41586
   D49        2.13972   0.00361   0.03050   0.00000   0.03328   2.17300
   D50       -2.09014   0.00474   0.01987   0.00000   0.02064  -2.06950
   D51        2.88297   0.00000   5.85582   0.00000  -3.13260  -0.24963
   D52       -3.11187   0.00012   0.00898   0.00000   0.00905  -3.10282
         Item               Value     Threshold  Converged?
 Maximum Force            0.029570     0.000450     NO 
 RMS     Force            0.005996     0.000300     NO 
 Maximum Displacement     4.837343     0.001800     NO 
 RMS     Displacement     0.610983     0.001200     NO 
 Predicted change in Energy=-3.956022D+00
 GradGradGradGradGradGradGradGradGradGradGradGradGradGradGradGradGradGrad

                          Input orientation:                          
 ---------------------------------------------------------------------
 Center     Atomic      Atomic             Coordinates (Angstroms)
 Number     Number       Type             X           Y           Z
 ---------------------------------------------------------------------
      1          8           0        1.597348    0.162728    0.656654
      2          6           0        2.714837   -0.192570    0.276958
      3          6           0        3.272352    0.105361   -1.026121
      4          6           0        4.620743    0.161027   -1.203038
      5          6           0        5.632165    0.319738   -0.163727
      6          6           0        6.967484    0.372958   -0.411737
      7          6           0        7.445199    0.330170   -1.763808
      8          6           0        6.550264    0.243169   -2.772958
      9          7           0        5.183832    0.177004   -2.558140
     10          7           0        4.493832    0.093467   -3.717950
     11          6           0        3.201852    0.128431   -3.707860
     12          7           0        2.579648    0.049004   -4.934919
     13          7           0        1.242664   -0.152473   -5.003815
     14          6           0        0.494484   -0.120625   -6.105228
     15          6           0       -0.908565   -0.315580   -6.065166
     16          6           0       -1.694467   -0.345651   -7.168495
     17          6           0       -3.192431   -0.592995   -7.164243
     18          6           0       -3.865879   -0.312559   -5.874367
     19          6           0       -4.407368   -0.152709   -4.819068
     20          1           0        3.301704   -0.864104    0.967439
     21          1           0        5.277022    0.360669    0.862600
     22          1           0        7.676925    0.461376    0.404806
     23          1           0        8.504434    0.375375   -1.998107
     24          1           0        6.820259    0.221842   -3.822852
     25          1           0        2.626486    0.153606   -2.749971
     26          1           0        3.093074   -0.016686   -5.811995
     27          1           0        0.809051   -0.223961   -4.085528
     28          1           0        1.026093    0.037217   -7.040681
     29          1           0       -1.375567   -0.443614   -5.087380
     30          1           0       -1.247155   -0.201452   -8.152120
     31          1           0       -3.643812   -0.005483   -7.974649
     32          1           0       -3.378582   -1.654207   -7.396443
     33          1           0       -5.468784   -3.215372   -6.103559
 ---------------------------------------------------------------------
                    Distance matrix (angstroms):
                    1          2          3          4          5
     1  O    0.000000
     2  C    1.232553   0.000000
     3  C    2.375008   1.448310   0.000000
     4  C    3.549560   2.438831   1.361087   0.000000
     5  C    4.120368   2.994574   2.521587   1.458880   0.000000
     6  C    5.479417   4.345012   3.755406   2.485611   1.359197
     7  C    6.331195   5.178253   4.243510   2.884549   2.418151
     8  C    6.024956   4.919589   3.716872   2.488865   2.767102
     9  N    4.816427   3.777605   2.450708   1.467524   2.440202
    10  N    5.247054   4.382457   2.956027   2.519019   3.738917
    11  C    4.650225   4.027282   2.682764   2.878967   4.301615
    12  N    5.678339   5.219223   3.970102   4.255062   5.670575
    13  N    5.680322   5.482286   4.473048   5.094665   6.551119
    14  C    6.857087   6.757769   5.793526   6.413799   7.867091
    15  C    7.189662   7.305252   6.561191   7.378394   8.832427
    16  C    8.504554   8.654488   7.912108   8.702027  10.158201
    17  C    9.202148   9.509344   8.941905   9.856481  11.301053
    18  C    8.528011   9.008829   8.639124   9.698884  11.100632
    19  C    8.132629   8.757675   8.569197   9.730411  11.076445
    20  H    2.013902   1.127890   2.216982   2.738928   2.848170
    21  H    3.690745   2.685860   2.766072   2.176561   1.086807
    22  H    6.092116   5.006627   4.644843   3.466355   2.127048
    23  H    7.402757   6.246432   5.328447   3.970030   3.408514
    24  H    6.881008   5.816758   4.519172   3.421257   3.848421
    25  H    3.558693   3.047940   1.841501   2.523909   3.968673
    26  H    6.641747   6.103224   4.790785   4.858790   6.201862
    27  H    4.822783   4.760703   3.941608   4.794368   6.240077
    28  H    7.719524   7.513488   6.420689   6.856743   8.281800
    29  H    6.496137   6.750596   6.196640   7.170038   8.598452
    30  H    9.263818   9.313797   8.443929   9.102383  10.555146
    31  H   10.099379  10.419042   9.804471  10.685754  12.130954
    32  H    9.639165   9.906927   9.376139  10.278256  11.721868
    33  H   10.346123  10.808329  10.640259  11.713827  13.077067
                    6          7          8          9         10
     6  C    0.000000
     7  C    1.434621   0.000000
     8  C    2.401308   1.351615   0.000000
     9  N    2.797652   2.401709   1.384797   0.000000
    10  N    4.138612   3.547572   2.268113   1.352123   0.000000
    11  C    5.010409   4.671834   3.478372   2.291824   1.292492
    12  N    6.310089   5.814515   4.525215   3.528064   2.268720
    13  N    7.357773   7.014416   5.770951   4.650020   3.504858
    14  C    8.634767   8.207533   6.921622   5.887309   4.662587
    15  C    9.719439   9.418283   8.172208   7.046927   5.904459
    16  C   11.009067  10.639590   9.361787   8.296959   7.098882
    17  C   12.237372  11.965622  10.719266   9.590144   8.451438
    18  C   12.152036  12.051982  10.882261   9.650611   8.642901
    19  C   12.210166  12.249536  11.154057   9.859595   8.972426
    20  H    4.107358   5.104366   5.076393   4.129893   4.928588
    21  H    2.117014   3.405868   3.853859   3.426934   4.654699
    22  H    1.085296   2.184902   3.378633   3.882709   5.221547
    23  H    2.208799   1.085780   2.106336   3.373335   4.372901
    24  H    3.417633   2.154518   1.084264   2.068672   2.332327
    25  H    4.935556   4.921757   3.924868   2.564637   2.104182
    26  H    6.657752   5.953917   4.610362   3.872513   2.521761
    27  H    7.195787   7.052369   5.907841   4.651064   3.716650
    28  H    8.908184   8.314815   6.983720   6.115514   4.803012
    29  H    9.598694   9.457843   8.285350   7.057474   6.050920
    30  H   11.301494  10.800472   9.483292   8.531907   7.260012
    31  H   13.036121  12.714299  11.447210  10.358532   9.184255
    32  H   12.646603  12.361980  11.115693  10.003871   8.863440
    33  H   14.139792  14.077474  12.942640  11.728446  10.765373
                   11         12         13         14         15
    11  C    0.000000
    12  N    1.378086   0.000000
    13  N    2.365761   1.353834   0.000000
    14  C    3.624810   2.397146   1.331878   0.000000
    15  C    4.759157   3.684836   2.404341   1.417095   0.000000
    16  C    6.014540   4.838665   3.653751   2.443906   1.354946
    17  C    7.304376   6.220848   4.952936   3.864969   2.549701
    18  C    7.405474   6.523657   5.184659   4.370686   2.963463
    19  C    7.695067   6.990887   5.653052   5.067878   3.717648
    20  H    4.780535   6.016058   6.356252   7.645643   8.214912
    21  H    5.024875   6.401889   7.138220   8.464924   9.311968
    22  H    6.086966   7.393574   8.427912   9.711166  10.778444
    23  H    5.576882   6.620760   7.876942   9.015196  10.277302
    24  H    3.621438   4.387407   5.713524   6.733644   8.065452
    25  H    1.117691   2.187952   2.662417   3.984770   4.869009
    26  H    2.111936   1.018422   2.023761   2.617147   4.020765
    27  H    2.447920   1.982672   1.018028   2.046660   2.622511
    28  H    3.981199   2.616851   2.057112   1.087472   2.195222
    29  H    4.814881   3.988690   2.635693   2.153468   1.091122
    30  H    6.297138   5.005751   4.014153   2.688793   2.117321
    31  H    8.067624   6.926355   5.720587   4.542410   3.350203
    32  H    7.751487   6.667873   5.416252   4.361163   3.108890
    33  H    9.596892   8.763512   7.458842   6.718484   5.404245
                   16         17         18         19         20
    16  C    0.000000
    17  C    1.518254   0.000000
    18  C    2.528021   1.481876   0.000000
    19  C    3.594004   2.677642   1.196836   0.000000
    20  H    9.561586  10.410165   9.924149   9.665378   0.000000
    21  H   10.658284  11.707746  11.376844  11.239765   2.326573
    22  H   12.075975  13.287028  13.162952  13.179382   4.606085
    23  H   11.457328  12.823547  12.981651  13.226917   6.115486
    24  H    9.166021  10.586917  10.894395  11.277958   6.042052
    25  H    6.200262   7.341867   7.220108   7.338263   3.912900
    26  H    4.986869   6.455097   6.965519   7.567102   6.835376
    27  H    3.973297   5.062265   5.006272   5.268224   5.670589
    28  H    2.750340   4.267128   5.041232   5.873171   8.373815
    29  H    2.107684   2.763452   2.614990   3.057521   7.662539
    30  H    1.090138   2.216598   3.472495   4.593316  10.212619
    31  H    2.136714   1.098032   2.134197   3.249982  11.355103
    32  H    2.144883   1.102152   2.086670   3.155274  10.733359
    33  H    4.859512   3.630935   3.323877   3.486606  11.508646
                   21         22         23         24         25
    21  H    0.000000
    22  H    2.445251   0.000000
    23  H    4.312777   2.542864   0.000000
    24  H    4.935009   4.320225   2.487913   0.000000
    25  H    4.485408   5.962740   5.929988   4.329372   0.000000
    26  H    7.032940   7.738788   6.631913   4.231488   3.102047
    27  H    6.692423   8.234105   7.995965   6.033437   2.286775
    28  H    8.979803   9.992435   9.025934   6.630300   4.580939
    29  H    8.961366  10.626887  10.384063   8.319461   4.672963
    30  H   11.142084  12.381419  11.545480   9.165419   6.656905
    31  H   12.562337  14.092279  13.544150  11.259924   8.163285
    32  H   12.132229  13.695233  13.208607  10.968430   7.805045
    33  H   13.296157  15.122400  14.999968  12.962895   9.387756
                   26         27         28         29         30
    26  H    0.000000
    27  H    2.870611   0.000000
    28  H    2.405200   2.974601   0.000000
    29  H    4.547096   2.413402   3.132819   0.000000
    30  H    4.934361   4.556935   2.541637   3.076973   0.000000
    31  H    7.075510   5.916163   4.762577   3.697731   2.411196
    32  H    6.861069   5.526665   4.731664   3.287761   2.687847
    33  H    9.144507   7.241008   7.323999   5.046750   5.576958
                   31         32         33
    31  H    0.000000
    32  H    1.767190   0.000000
    33  H    4.139430   2.911654   0.000000
 Stoichiometry    C14H14N4O
 Framework group  C1[X(C14H14N4O)]
 Deg. of freedom    93
 Full point group                 C1      NOp   1
 Largest Abelian subgroup         C1      NOp   1
 Largest concise Abelian subgroup C1      NOp   1
                         Standard orientation:                         
 ---------------------------------------------------------------------
 Center     Atomic      Atomic             Coordinates (Angstroms)
 Number     Number       Type             X           Y           Z
 ---------------------------------------------------------------------
      1          8           0       -1.663191    3.734127    0.182206
      2          6           0       -2.382047    2.830011   -0.247919
      3          6           0       -2.183609    1.422018    0.027359
      4          6           0       -3.233539    0.556798   -0.012633
      5          6           0       -4.650094    0.898600    0.057181
      6          6           0       -5.651140   -0.019924    0.016721
      7          6           0       -5.335695   -1.418232   -0.041277
      8          6           0       -4.038552   -1.798009   -0.048480
      9          7           0       -2.992724   -0.890822   -0.018191
     10          7           0       -1.789237   -1.506927   -0.034679
     11          6           0       -0.704889   -0.815429    0.093987
     12          7           0        0.476632   -1.524556    0.077634
     13          7           0        1.657244   -0.869979   -0.025085
     14          6           0        2.870982   -1.408812    0.076887
     15          6           0        4.049264   -0.627040   -0.016089
     16          6           0        5.300191   -1.145896    0.026906
     17          6           0        6.581304   -0.342870   -0.110900
     18          6           0        6.447802    1.100030    0.199217
     19          6           0        6.335381    2.277340    0.382851
     20          1           0       -3.197420    3.122632   -0.970191
     21          1           0       -4.896450    1.955844    0.109090
     22          1           0       -6.689544    0.294666    0.041590
     23          1           0       -6.110074   -2.178783   -0.069852
     24          1           0       -3.709092   -2.830685   -0.074309
     25          1           0       -0.727741    0.300761    0.147179
     26          1           0        0.511836   -2.538360   -0.012618
     27          1           0        1.542242    0.140146   -0.078029
     28          1           0        2.906261   -2.487644    0.209069
     29          1           0        3.934880    0.452706   -0.123850
     30          1           0        5.433192   -2.220600    0.152302
     31          1           0        7.351503   -0.806687    0.519450
     32          1           0        6.935171   -0.413245   -1.152324
     33          1           0        8.125211    1.830710   -2.575772
 ---------------------------------------------------------------------
 Rotational constants (GHZ):           0.7238102           0.1204312           0.1038107
 Standard basis: 6-31G(2df,p) (6D, 7F)
 There are   659 symmetry adapted cartesian basis functions of A   symmetry.
 There are   602 symmetry adapted basis functions of A   symmetry.
   602 basis functions,   934 primitive gaussians,   659 cartesian basis functions
    67 alpha electrons       67 beta electrons
       nuclear repulsion energy      1192.6656084580 Hartrees.
 NAtoms=   33 NActive=   33 NUniq=   33 SFac= 1.00D+00 NAtFMM=   60 NAOKFM=F Big=F
 Integral buffers will be    131072 words long.
 Raffenetti 2 integral format.
 Two-electron integral symmetry is turned on.
 One-electron integrals computed using PRISM.
 PrsmSu:  requested number of processors reduced to:  12 ShMem   1 Linda.
 NBasis=   602 RedAO= T EigKep=  1.30D-04  NBF=   602
 NBsUse=   602 1.00D-06 EigRej= -1.00D+00 NBFU=   602
 Initial guess from the checkpoint file:  "OdCC1dC2CdCCdCN2NdCNNCdCCdCCdC1.chk"
 B after Tr=    -0.000000   -0.000000   -0.000000
         Rot=    0.999988    0.004675    0.001001    0.000725 Ang=   0.55 deg.
 ExpMin= 1.61D-01 ExpMax= 5.48D+03 ExpMxC= 8.25D+02 IAcc=2 IRadAn=         4 AccDes= 0.00D+00
 Harris functional with IExCor=  402 and IRadAn=       4 diagonalized for initial guess.
 HarFok:  IExCor=  402 AccDes= 0.00D+00 IRadAn=         4 IDoV= 1 UseB2=F ITyADJ=14
 ICtDFT=  3500011 ScaDFX=  1.000000  1.000000  1.000000  1.000000
 FoFCou: FMM=F IPFlag=           0 FMFlag=      100000 FMFlg1=           0
         NFxFlg=           0 DoJE=T BraDBF=F KetDBF=T FulRan=T
         wScrn=  0.000000 ICntrl=       500 IOpCl=  0 I1Cent=   200000004 NGrid=           0
         NMat0=    1 NMatS0=      1 NMatT0=    0 NMatD0=    1 NMtDS0=    0 NMtDT0=    0
 Petite list used in FoFCou.
 Requested convergence on RMS density matrix=1.00D-08 within 128 cycles.
 Requested convergence on MAX density matrix=1.00D-06.
 Requested convergence on             energy=1.00D-06.
 No special actions if energy rises.
 Integral accuracy reduced to 1.0D-05 until final iterations.
 Problem detected with inexpensive integrals.
 Switching to full accuracy and repeating last cycle.
slurmstepd: error: *** JOB 27447179 ON lewis4-r630-hpc4-node228 CANCELLED AT 2023-05-17T09:13:17 DUE TO TIME LIMIT ***
