### Starting Gaussian ###
 Entering Gaussian System, Link 0=g16
 Initial command:
 /cluster/software/gaussian/gaussian-16-A.03/avx2/g16/l1.exe "/local/scratch/ks29c/Gau-1518.inp" -scrdir="/local/scratch/ks29c/"
 Entering Link 1 = /cluster/software/gaussian/gaussian-16-A.03/avx2/g16/l1.exe PID=      1523.
  
 Copyright (c) 1988,1990,1992,1993,1995,1998,2003,2009,2016,
            Gaussian, Inc.  All Rights Reserved.
  
 This is part of the Gaussian(R) 16 program.  It is based on
 the Gaussian(R) 09 system (copyright 2009, Gaussian, Inc.),
 the Gaussian(R) 03 system (copyright 2003, Gaussian, Inc.),
 the Gaussian(R) 98 system (copyright 1998, Gaussian, Inc.),
 the Gaussian(R) 94 system (copyright 1995, Gaussian, Inc.),
 the Gaussian 92(TM) system (copyright 1992, Gaussian, Inc.),
 the Gaussian 90(TM) system (copyright 1990, Gaussian, Inc.),
 the Gaussian 88(TM) system (copyright 1988, Gaussian, Inc.),
 the Gaussian 86(TM) system (copyright 1986, Carnegie Mellon
 University), and the Gaussian 82(TM) system (copyright 1983,
 Carnegie Mellon University). Gaussian is a federally registered
 trademark of Gaussian, Inc.
  
 This software contains proprietary and confidential information,
 including trade secrets, belonging to Gaussian, Inc.
  
 This software is provided under written license and may be
 used, copied, transmitted, or stored only in accord with that
 written license.
  
 The following legend is applicable only to US Government
 contracts under FAR:
  
                    RESTRICTED RIGHTS LEGEND
  
 Use, reproduction and disclosure by the US Government is
 subject to restrictions as set forth in subparagraphs (a)
 and (c) of the Commercial Computer Software - Restricted
 Rights clause in FAR 52.227-19.
  
 Gaussian, Inc.
 340 Quinnipiac St., Bldg. 40, Wallingford CT 06492
  
  
 ---------------------------------------------------------------
 Warning -- This program may not be used in any manner that
 competes with the business of Gaussian, Inc. or will provide
 assistance to any competitor of Gaussian, Inc.  The licensee
 of this program is prohibited from giving any competitor of
 Gaussian, Inc. access to this program.  By using this program,
 the user acknowledges that Gaussian, Inc. is engaged in the
 business of creating and licensing software in the field of
 computational chemistry and represents and warrants to the
 licensee that it is not a competitor of Gaussian, Inc. and that
 it will not use this program in any manner prohibited above.
 ---------------------------------------------------------------
  

 Cite this work as:
 Gaussian 16, Revision A.03,
 M. J. Frisch, G. W. Trucks, H. B. Schlegel, G. E. Scuseria, 
 M. A. Robb, J. R. Cheeseman, G. Scalmani, V. Barone, 
 G. A. Petersson, H. Nakatsuji, X. Li, M. Caricato, A. V. Marenich, 
 J. Bloino, B. G. Janesko, R. Gomperts, B. Mennucci, H. P. Hratchian, 
 J. V. Ortiz, A. F. Izmaylov, J. L. Sonnenberg, D. Williams-Young, 
 F. Ding, F. Lipparini, F. Egidi, J. Goings, B. Peng, A. Petrone, 
 T. Henderson, D. Ranasinghe, V. G. Zakrzewski, J. Gao, N. Rega, 
 G. Zheng, W. Liang, M. Hada, M. Ehara, K. Toyota, R. Fukuda, 
 J. Hasegawa, M. Ishida, T. Nakajima, Y. Honda, O. Kitao, H. Nakai, 
 T. Vreven, K. Throssell, J. A. Montgomery, Jr., J. E. Peralta, 
 F. Ogliaro, M. J. Bearpark, J. J. Heyd, E. N. Brothers, K. N. Kudin, 
 V. N. Staroverov, T. A. Keith, R. Kobayashi, J. Normand, 
 K. Raghavachari, A. P. Rendell, J. C. Burant, S. S. Iyengar, 
 J. Tomasi, M. Cossi, J. M. Millam, M. Klene, C. Adamo, R. Cammi, 
 J. W. Ochterski, R. L. Martin, K. Morokuma, O. Farkas, 
 J. B. Foresman, and D. J. Fox, Gaussian, Inc., Wallingford CT, 2016.
 
 ******************************************
 Gaussian 16:  ES64L-G16RevA.03 25-Dec-2016
                17-May-2023 
 ******************************************
 %chk=OdCc1cnn2c3cqcccccc12rCdCCd3.chk
 %NProcShared=20
 Will use up to   20 processors via shared memory.
 -----------------------------
 # opt freq b3lyp/6-31g(2df,p)
 -----------------------------
 1/18=20,19=15,26=3,38=1/1,3;
 2/9=110,12=2,17=6,18=5,40=1/2;
 3/5=1,6=6,7=104,11=2,25=1,30=1,71=1,74=-5/1,2,3;
 4//1;
 5/5=2,38=5/2;
 6/7=2,8=2,9=2,10=2,28=1/1;
 7//1,2,3,16;
 1/18=20,19=15,26=3/3(2);
 2/9=110/2;
 99//99;
 2/9=110/2;
 3/5=1,6=6,7=104,11=2,25=1,30=1,71=1,74=-5/1,2,3;
 4/5=5,16=3,69=1/1;
 5/5=2,38=5/2;
 7//1,2,3,16;
 1/18=20,19=15,26=3/3(-5);
 2/9=110/2;
 6/7=2,8=2,9=2,10=2,19=2,28=1/1;
 99/9=1/99;
 -------------------
 Title Card Required
 -------------------
 Symbolic Z-matrix:
 Charge =  0 Multiplicity = 1
 O                     0.72201  -0.19427   0.03533 
 C                     1.92712  -0.25681   0.22315 
 C                     2.63908   0.63464   1.08748 
 C                     2.54993   0.9475    2.43551 
 N                     3.52187   1.77094   2.85547 
 N                     4.23753   2.11941   1.70206 
 C                     5.47712   2.77109   1.63945 
 C                     6.58809   2.9318    0.83674 
 C                     6.6379    2.31785  -0.45473 
 C                     5.91804   1.10104  -0.76444 
 C                     5.23374   0.75903  -1.88182 
 C                     3.76978   0.8866   -1.74718 
 C                     3.50277   1.93316  -0.90929 
 C                     3.40117   1.64409   0.55434 
 C                     7.72997   4.10615   1.83077 
 C                     7.63884   3.99218   0.59371 
 C                     6.50567   3.45289   2.09031 
 H                     2.58392  -0.89675  -0.4003 
 H                     1.77128   0.59068   3.09944 
 H                     7.20509   2.73611  -1.27423 
 H                     5.39222   0.99032   0.151 
 H                     5.52613   1.14504  -2.83932 
 H                     3.10377   0.08017  -2.09912 
 H                     4.21409   2.73     -1.16358 
 H                     8.31956   4.54789   2.60293 
 H                     8.64445   4.22613   0.23589 
 H                     6.51235   3.6729    3.22085 
 

 GradGradGradGradGradGradGradGradGradGradGradGradGradGradGradGradGradGrad
 Berny optimization.
 Initialization pass.
                           ----------------------------
                           !    Initial Parameters    !
                           ! (Angstroms and Degrees)  !
 --------------------------                            --------------------------
 ! Name  Definition              Value          Derivative Info.                !
 --------------------------------------------------------------------------------
 ! R1    R(1,2)                  1.2213         estimate D2E/DX2                !
 ! R2    R(2,3)                  1.4313         estimate D2E/DX2                !
 ! R3    R(2,18)                 1.1089         estimate D2E/DX2                !
 ! R4    R(3,4)                  1.3867         estimate D2E/DX2                !
 ! R5    R(3,14)                 1.3726         estimate D2E/DX2                !
 ! R6    R(4,5)                  1.3413         estimate D2E/DX2                !
 ! R7    R(4,19)                 1.0837         estimate D2E/DX2                !
 ! R8    R(5,6)                  1.4014         estimate D2E/DX2                !
 ! R9    R(6,7)                  1.4019         estimate D2E/DX2                !
 ! R10   R(6,14)                 1.4976         estimate D2E/DX2                !
 ! R11   R(7,8)                  1.38           estimate D2E/DX2                !
 ! R12   R(7,17)                 1.3138         estimate D2E/DX2                !
 ! R13   R(8,9)                  1.4308         estimate D2E/DX2                !
 ! R14   R(8,16)                 1.5125         estimate D2E/DX2                !
 ! R15   R(8,17)                 1.3601         estimate D2E/DX2                !
 ! R16   R(9,10)                 1.4473         estimate D2E/DX2                !
 ! R17   R(9,20)                 1.0808         estimate D2E/DX2                !
 ! R18   R(10,11)                1.3542         estimate D2E/DX2                !
 ! R19   R(10,21)                1.0615         estimate D2E/DX2                !
 ! R20   R(11,12)                1.4757         estimate D2E/DX2                !
 ! R21   R(11,22)                1.073          estimate D2E/DX2                !
 ! R22   R(12,13)                1.367          estimate D2E/DX2                !
 ! R23   R(12,23)                1.1035         estimate D2E/DX2                !
 ! R24   R(13,14)                1.4954         estimate D2E/DX2                !
 ! R25   R(13,24)                1.098          estimate D2E/DX2                !
 ! R26   R(15,16)                1.2456         estimate D2E/DX2                !
 ! R27   R(15,17)                1.4117         estimate D2E/DX2                !
 ! R28   R(15,25)                1.0672         estimate D2E/DX2                !
 ! R29   R(16,26)                1.0927         estimate D2E/DX2                !
 ! R30   R(17,27)                1.1518         estimate D2E/DX2                !
 ! A1    A(1,2,3)              123.4919         estimate D2E/DX2                !
 ! A2    A(1,2,18)             121.8411         estimate D2E/DX2                !
 ! A3    A(3,2,18)             113.8491         estimate D2E/DX2                !
 ! A4    A(2,3,4)              134.0719         estimate D2E/DX2                !
 ! A5    A(2,3,14)             119.9779         estimate D2E/DX2                !
 ! A6    A(4,3,14)             104.3209         estimate D2E/DX2                !
 ! A7    A(3,4,5)              113.3459         estimate D2E/DX2                !
 ! A8    A(3,4,19)             124.5732         estimate D2E/DX2                !
 ! A9    A(5,4,19)             122.0706         estimate D2E/DX2                !
 ! A10   A(4,5,6)              105.3673         estimate D2E/DX2                !
 ! A11   A(5,6,7)              127.1507         estimate D2E/DX2                !
 ! A12   A(5,6,14)             105.4647         estimate D2E/DX2                !
 ! A13   A(7,6,14)             127.3842         estimate D2E/DX2                !
 ! A14   A(6,7,8)              142.3708         estimate D2E/DX2                !
 ! A15   A(6,7,17)             156.663          estimate D2E/DX2                !
 ! A16   A(7,8,9)              120.2032         estimate D2E/DX2                !
 ! A17   A(7,8,16)             137.2565         estimate D2E/DX2                !
 ! A18   A(9,8,16)              97.5626         estimate D2E/DX2                !
 ! A19   A(16,8,17)             85.5027         estimate D2E/DX2                !
 ! A20   A(8,9,10)             122.4507         estimate D2E/DX2                !
 ! A21   A(8,9,20)             122.4507         estimate D2E/DX2                !
 ! A22   A(10,9,20)            115.0937         estimate D2E/DX2                !
 ! A23   A(9,10,11)            129.8099         estimate D2E/DX2                !
 ! A24   A(9,10,21)             98.5995         estimate D2E/DX2                !
 ! A25   A(11,10,21)           115.7817         estimate D2E/DX2                !
 ! A26   A(10,11,12)           113.8411         estimate D2E/DX2                !
 ! A27   A(10,11,22)           120.5152         estimate D2E/DX2                !
 ! A28   A(12,11,22)           108.7028         estimate D2E/DX2                !
 ! A29   A(11,12,13)           108.4146         estimate D2E/DX2                !
 ! A30   A(11,12,23)           120.429          estimate D2E/DX2                !
 ! A31   A(13,12,23)           129.5745         estimate D2E/DX2                !
 ! A32   A(12,13,14)           117.7242         estimate D2E/DX2                !
 ! A33   A(12,13,24)           106.6854         estimate D2E/DX2                !
 ! A34   A(14,13,24)           114.2669         estimate D2E/DX2                !
 ! A35   A(3,14,6)             104.2304         estimate D2E/DX2                !
 ! A36   A(3,14,13)            124.0605         estimate D2E/DX2                !
 ! A37   A(6,14,13)            130.6042         estimate D2E/DX2                !
 ! A38   A(16,15,17)            94.4043         estimate D2E/DX2                !
 ! A39   A(16,15,25)           142.8278         estimate D2E/DX2                !
 ! A40   A(17,15,25)           122.5214         estimate D2E/DX2                !
 ! A41   A(8,16,15)             87.4434         estimate D2E/DX2                !
 ! A42   A(8,16,26)            147.3596         estimate D2E/DX2                !
 ! A43   A(15,16,26)           103.7856         estimate D2E/DX2                !
 ! A44   A(7,17,15)            148.8691         estimate D2E/DX2                !
 ! A45   A(7,17,27)            116.1372         estimate D2E/DX2                !
 ! A46   A(8,17,15)             87.4373         estimate D2E/DX2                !
 ! A47   A(15,17,27)            94.993          estimate D2E/DX2                !
 ! A48   L(9,8,17,16,-1)       183.0654         estimate D2E/DX2                !
 ! A49   L(8,17,27,15,-1)      182.4303         estimate D2E/DX2                !
 ! A50   L(9,8,17,16,-2)       180.9635         estimate D2E/DX2                !
 ! A51   L(8,17,27,15,-2)      191.9456         estimate D2E/DX2                !
 ! D1    D(1,2,3,4)             58.9201         estimate D2E/DX2                !
 ! D2    D(1,2,3,14)          -103.9994         estimate D2E/DX2                !
 ! D3    D(18,2,3,4)          -131.2875         estimate D2E/DX2                !
 ! D4    D(18,2,3,14)           65.793          estimate D2E/DX2                !
 ! D5    D(2,3,4,5)            174.1717         estimate D2E/DX2                !
 ! D6    D(2,3,4,19)            -6.9759         estimate D2E/DX2                !
 ! D7    D(14,3,4,5)           -21.0515         estimate D2E/DX2                !
 ! D8    D(14,3,4,19)          157.8009         estimate D2E/DX2                !
 ! D9    D(2,3,14,6)          -166.2161         estimate D2E/DX2                !
 ! D10   D(2,3,14,13)            2.8724         estimate D2E/DX2                !
 ! D11   D(4,3,14,6)            26.3632         estimate D2E/DX2                !
 ! D12   D(4,3,14,13)         -164.5482         estimate D2E/DX2                !
 ! D13   D(3,4,5,6)              5.0877         estimate D2E/DX2                !
 ! D14   D(19,4,5,6)          -173.7972         estimate D2E/DX2                !
 ! D15   D(4,5,6,7)           -168.1288         estimate D2E/DX2                !
 ! D16   D(4,5,6,14)            11.6587         estimate D2E/DX2                !
 ! D17   D(5,6,7,8)            154.8541         estimate D2E/DX2                !
 ! D18   D(5,6,7,17)           -12.621          estimate D2E/DX2                !
 ! D19   D(14,6,7,8)           -24.8882         estimate D2E/DX2                !
 ! D20   D(14,6,7,17)          167.6367         estimate D2E/DX2                !
 ! D21   D(5,6,14,3)           -24.2729         estimate D2E/DX2                !
 ! D22   D(5,6,14,13)          167.6474         estimate D2E/DX2                !
 ! D23   D(7,6,14,3)           155.514          estimate D2E/DX2                !
 ! D24   D(7,6,14,13)          -12.5658         estimate D2E/DX2                !
 ! D25   D(6,7,8,9)              3.2966         estimate D2E/DX2                !
 ! D26   D(6,7,8,16)           151.9692         estimate D2E/DX2                !
 ! D27   D(6,7,17,15)         -175.6309         estimate D2E/DX2                !
 ! D28   D(6,7,17,27)            4.7763         estimate D2E/DX2                !
 ! D29   D(7,8,9,10)           -28.0257         estimate D2E/DX2                !
 ! D30   D(7,8,9,20)           151.1231         estimate D2E/DX2                !
 ! D31   D(16,8,9,10)          172.8278         estimate D2E/DX2                !
 ! D32   D(16,8,9,20)           -8.0234         estimate D2E/DX2                !
 ! D33   D(10,9,17,15)         157.3416         estimate D2E/DX2                !
 ! D34   D(20,9,17,15)         -23.1706         estimate D2E/DX2                !
 ! D35   D(7,8,16,15)           45.4871         estimate D2E/DX2                !
 ! D36   D(7,8,16,26)          157.3586         estimate D2E/DX2                !
 ! D37   D(9,8,16,15)         -161.4678         estimate D2E/DX2                !
 ! D38   D(9,8,16,26)          -49.5962         estimate D2E/DX2                !
 ! D39   D(17,8,16,15)          17.5687         estimate D2E/DX2                !
 ! D40   D(17,8,16,26)         129.4402         estimate D2E/DX2                !
 ! D41   D(16,8,17,15)         -15.4463         estimate D2E/DX2                !
 ! D42   D(8,9,10,11)          139.3768         estimate D2E/DX2                !
 ! D43   D(8,9,10,21)            5.0552         estimate D2E/DX2                !
 ! D44   D(20,9,10,11)         -39.8301         estimate D2E/DX2                !
 ! D45   D(20,9,10,21)        -174.1516         estimate D2E/DX2                !
 ! D46   D(9,10,11,12)        -101.6962         estimate D2E/DX2                !
 ! D47   D(9,10,11,22)          30.1705         estimate D2E/DX2                !
 ! D48   D(21,10,11,12)         26.5289         estimate D2E/DX2                !
 ! D49   D(21,10,11,22)        158.3956         estimate D2E/DX2                !
 ! D50   D(10,11,12,13)         32.9662         estimate D2E/DX2                !
 ! D51   D(10,11,12,23)       -134.0126         estimate D2E/DX2                !
 ! D52   D(22,11,12,13)       -104.3992         estimate D2E/DX2                !
 ! D53   D(22,11,12,23)         88.622          estimate D2E/DX2                !
 ! D54   D(11,12,13,14)        -89.5252         estimate D2E/DX2                !
 ! D55   D(11,12,13,24)         40.4326         estimate D2E/DX2                !
 ! D56   D(23,12,13,14)         75.8761         estimate D2E/DX2                !
 ! D57   D(23,12,13,24)       -154.1661         estimate D2E/DX2                !
 ! D58   D(12,13,14,3)         -49.4174         estimate D2E/DX2                !
 ! D59   D(12,13,14,6)         116.5973         estimate D2E/DX2                !
 ! D60   D(24,13,14,3)        -175.7676         estimate D2E/DX2                !
 ! D61   D(24,13,14,6)          -9.7529         estimate D2E/DX2                !
 ! D62   D(17,15,16,8)         -16.9036         estimate D2E/DX2                !
 ! D63   D(17,15,16,26)       -165.8802         estimate D2E/DX2                !
 ! D64   D(25,15,16,8)         169.383          estimate D2E/DX2                !
 ! D65   D(25,15,16,26)         20.4064         estimate D2E/DX2                !
 ! D66   D(16,15,17,7)           7.2867         estimate D2E/DX2                !
 ! D67   D(16,15,17,8)          18.8653         estimate D2E/DX2                !
 ! D68   D(16,15,17,27)       -173.0803         estimate D2E/DX2                !
 ! D69   D(25,15,17,7)        -177.2137         estimate D2E/DX2                !
 ! D70   D(25,15,17,8)        -165.6351         estimate D2E/DX2                !
 ! D71   D(25,15,17,27)          2.4193         estimate D2E/DX2                !
 --------------------------------------------------------------------------------
 Trust Radius=3.00D-01 FncErr=1.00D-07 GrdErr=1.00D-06 EigMax=2.50D+02 EigMin=1.00D-04
 Number of steps in this run=    162 maximum allowed number of steps=    162.
 GradGradGradGradGradGradGradGradGradGradGradGradGradGradGradGradGradGrad

                          Input orientation:                          
 ---------------------------------------------------------------------
 Center     Atomic      Atomic             Coordinates (Angstroms)
 Number     Number       Type             X           Y           Z
 ---------------------------------------------------------------------
      1          8           0        0.722010   -0.194270    0.035330
      2          6           0        1.927120   -0.256810    0.223150
      3          6           0        2.639080    0.634640    1.087480
      4          6           0        2.549930    0.947500    2.435510
      5          7           0        3.521870    1.770940    2.855470
      6          7           0        4.237530    2.119410    1.702060
      7          6           0        5.477120    2.771090    1.639450
      8          6           0        6.588090    2.931800    0.836740
      9          6           0        6.637900    2.317850   -0.454730
     10          6           0        5.918040    1.101040   -0.764440
     11          6           0        5.233740    0.759030   -1.881820
     12          6           0        3.769780    0.886600   -1.747180
     13          6           0        3.502770    1.933160   -0.909290
     14          6           0        3.401170    1.644090    0.554340
     15          6           0        7.729970    4.106150    1.830770
     16          6           0        7.638840    3.992180    0.593710
     17          6           0        6.505670    3.452890    2.090310
     18          1           0        2.583920   -0.896750   -0.400300
     19          1           0        1.771280    0.590680    3.099440
     20          1           0        7.205090    2.736110   -1.274230
     21          1           0        5.392220    0.990320    0.151000
     22          1           0        5.526130    1.145040   -2.839320
     23          1           0        3.103770    0.080170   -2.099120
     24          1           0        4.214090    2.730000   -1.163580
     25          1           0        8.319560    4.547890    2.602930
     26          1           0        8.644450    4.226130    0.235890
     27          1           0        6.512350    3.672900    3.220850
 ---------------------------------------------------------------------
                    Distance matrix (angstroms):
                    1          2          3          4          5
     1  O    0.000000
     2  C    1.221261   0.000000
     3  C    2.338647   1.431306   0.000000
     4  C    3.225801   2.594762   1.386728   0.000000
     5  N    4.433335   3.685662   2.279536   1.341301   0.000000
     6  N    4.526586   3.629269   2.266560   2.181586   1.401412
     7  C    5.829034   4.876124   3.594935   3.539440   2.510380
     8  C    6.695182   5.680525   4.575423   4.774961   3.850269
     9  C    6.445825   5.411085   4.604581   5.190650   4.578884
    10  C    5.414443   4.329727   3.794564   4.648378   4.392510
    11  C    4.993992   4.049267   3.945184   5.087012   5.137740
    12  C    3.692496   2.930014   3.062232   4.357366   4.693389
    13  C    3.626416   2.925929   2.533615   3.614847   3.768302
    14  C    3.290416   2.428154   1.372592   2.179139   2.307782
    15  C    8.415980   7.435922   6.206531   6.097179   4.920500
    16  C    8.104362   7.128462   6.042722   6.209614   5.196047
    17  C    7.139709   6.181527   4.888632   4.695106   3.509628
    18  H    2.037145   1.108873   2.135811   3.382932   4.312350
    19  H    3.332549   3.002594   2.191573   1.083706   2.125347
    20  H    7.234114   6.249535   5.553584   6.215449   5.617124
    21  H    4.819491   3.683403   2.929724   3.646839   3.379606
    22  H    5.756469   4.929176   4.900543   6.059754   6.069550
    23  H    3.209981   2.625071   3.267689   4.649932   5.251807
    24  H    4.709922   4.009275   3.455208   4.347434   4.189478
    25  H    9.316835   8.343368   7.062434   6.802901   5.549149
    26  H    9.074426   8.075855   7.049005   7.261606   6.255476
    27  H    7.657061   6.741896   5.365120   4.872919   3.562853
                    6          7          8          9         10
     6  N    0.000000
     7  C    1.401852   0.000000
     8  C    2.633228   1.380009   0.000000
     9  C    3.233094   2.436889   1.430843   0.000000
    10  C    3.153540   2.960095   2.522782   1.447323   0.000000
    11  C    3.960715   4.062876   3.734402   2.537355   1.354170
    12  C    3.692678   4.235041   4.336168   3.456156   2.372084
    13  C    2.719138   3.331105   3.683083   3.191183   2.558698
    14  C    1.497561   2.599454   3.448827   3.456674   2.892874
    15  C    4.020055   2.625704   1.916007   3.100668   4.364504
    16  C    4.037898   2.694006   1.512463   2.214608   3.628280
    17  C    2.659580   1.313789   1.360061   2.789808   3.745144
    18  H    4.031323   5.097474   5.676393   5.174106   3.903860
    19  H    3.220571   4.540816   5.813976   6.268910   5.690840
    20  H    4.247945   3.387718   2.207981   1.080845   2.142391
    21  H    2.239183   2.322463   2.381111   1.918584   1.061497
    22  H    4.820168   4.765063   4.222995   2.880588   2.112027
    23  H    4.460144   5.181771   5.375086   4.494586   3.277753
    24  H    2.930062   3.074721   3.110929   2.558748   2.390872
    25  H    4.834465   3.487804   2.954516   4.141297   5.383981
    26  H    5.099889   3.757539   2.502984   2.853898   4.266164
    27  H    3.145610   2.094227   2.497788   3.919415   4.780189
                   11         12         13         14         15
    11  C    0.000000
    12  C    1.475663   0.000000
    13  C    2.306654   1.366983   0.000000
    14  C    3.174353   2.450849   1.495358   0.000000
    15  C    5.587280   6.233004   5.486259   5.140965   0.000000
    16  C    4.729272   5.485802   4.858564   4.844886   1.245637
    17  C    4.965129   5.366309   4.508280   3.907542   1.411744
    18  H    3.458042   2.529958   3.018567   2.834626   7.515884
    19  H    6.068766   5.250838   4.568394   3.200586   7.033778
    20  H    2.857312   3.930105   3.805927   4.359585   3.434171
    21  H    2.052064   2.499231   2.362876   2.134099   4.242063
    22  H    1.072987   2.084305   2.905191   4.035026   5.952716
    23  H    2.246073   1.103522   2.237961   3.094373   7.283837
    24  H    2.332440   1.983967   1.097995   2.188901   4.818852
    25  H    6.632551   7.282101   6.509529   6.067894   1.067231
    26  H    5.304566   6.232771   5.745087   5.853232   1.842366
    27  H    6.013545   6.321905   5.398363   4.572285   1.898059
                   16         17         18         19         20
    16  C    0.000000
    17  C    1.953131   0.000000
    18  H    7.102247   6.364168   0.000000
    19  H    7.230294   5.623614   3.888575   0.000000
    20  H    2.292390   3.510426   5.942780   7.297818   0.000000
    21  H    3.775508   3.326401   3.428048   4.686600   2.892328
    22  H    4.935124   5.530544   4.332935   7.048055   2.792833
    23  H    6.566736   6.363921   2.027463   5.390842   4.955329
    24  H    4.050936   4.044961   4.048872   5.358857   2.993052
    25  H    2.192979   2.179909   8.459377   7.667203   4.422325
    26  H    1.092712   2.934477   7.961072   8.285945   2.563665
    27  H    2.876245   1.151768   7.030433   5.656197   4.643620
                   21         22         23         24         25
    21  H    0.000000
    22  H    2.997313   0.000000
    23  H    3.335928   2.747667   0.000000
    24  H    2.478426   2.653611   3.021530   0.000000
    25  H    5.218964   7.000052   8.323116   5.860564   0.000000
    26  H    4.588537   5.354806   7.303451   4.881087   2.410801
    27  H    4.227872   6.639907   7.268302   5.039274   2.100819
                   26         27
    26  H    0.000000
    27  H    3.709703   0.000000
 Stoichiometry    C14H10N2O
 Framework group  C1[X(C14H10N2O)]
 Deg. of freedom    75
 Full point group                 C1      NOp   1
 Largest Abelian subgroup         C1      NOp   1
 Largest concise Abelian subgroup C1      NOp   1
                         Standard orientation:                         
 ---------------------------------------------------------------------
 Center     Atomic      Atomic             Coordinates (Angstroms)
 Number     Number       Type             X           Y           Z
 ---------------------------------------------------------------------
      1          8           0       -4.356803   -0.134556    0.320133
      2          6           0       -3.351157    0.012677   -0.356976
      3          6           0       -2.170268   -0.780770   -0.200195
      4          6           0       -1.902501   -2.138807   -0.284159
      5          7           0       -0.597520   -2.430719   -0.179751
      6          7           0        0.034282   -1.211954    0.102018
      7          6           0        1.410327   -0.945573    0.075003
      8          6           0        2.322607    0.077052   -0.087499
      9          6           0        1.871334    1.424894   -0.251777
     10          6           0        0.586664    1.748133   -0.834772
     11          6           0       -0.316331    2.690838   -0.474657
     12          6           0       -1.462838    2.158560    0.286777
     13          6           0       -1.027462    1.107224    1.044262
     14          6           0       -1.070542   -0.256330    0.431922
     15          6           0        4.030643   -0.777814    0.063834
     16          6           0        3.730271    0.392436    0.366990
     17          6           0        2.692728   -1.226765    0.025799
     18          1           0       -3.217019    0.889653   -1.022197
     19          1           0       -2.656532   -2.908108   -0.402619
     20          1           0        2.459124    2.275686    0.062680
     21          1           0        0.207682    0.762229   -0.940324
     22          1           0        0.005134    3.606651   -0.017221
     23          1           0       -2.492581    2.462682    0.032022
     24          1           0       -0.044987    1.391799    1.443454
     25          1           0        4.860535   -1.435480   -0.069340
     26          1           0        4.651314    0.952421    0.187783
     27          1           0        2.963571   -2.336897   -0.118497
 ---------------------------------------------------------------------
 Rotational constants (GHZ):           0.9964759           0.3875545           0.2917323
 Standard basis: 6-31G(2df,p) (6D, 7F)
 There are   577 symmetry adapted cartesian basis functions of A   symmetry.
 There are   526 symmetry adapted basis functions of A   symmetry.
   526 basis functions,   818 primitive gaussians,   577 cartesian basis functions
    58 alpha electrons       58 beta electrons
       nuclear repulsion energy      1122.8974988713 Hartrees.
 NAtoms=   27 NActive=   27 NUniq=   27 SFac= 1.00D+00 NAtFMM=   60 NAOKFM=F Big=F
 Integral buffers will be    131072 words long.
 Raffenetti 2 integral format.
 Two-electron integral symmetry is turned on.
 One-electron integrals computed using PRISM.
 PrsmSu:  requested number of processors reduced to:  12 ShMem   1 Linda.
 NBasis=   526 RedAO= T EigKep=  1.38D-04  NBF=   526
 NBsUse=   526 1.00D-06 EigRej= -1.00D+00 NBFU=   526
 ExpMin= 1.61D-01 ExpMax= 5.48D+03 ExpMxC= 8.25D+02 IAcc=3 IRadAn=         5 AccDes= 0.00D+00
 Harris functional with IExCor=  402 and IRadAn=       5 diagonalized for initial guess.
 HarFok:  IExCor=  402 AccDes= 0.00D+00 IRadAn=         5 IDoV= 1 UseB2=F ITyADJ=14
 ICtDFT=  3500011 ScaDFX=  1.000000  1.000000  1.000000  1.000000
 FoFCou: FMM=F IPFlag=           0 FMFlag=      100000 FMFlg1=           0
         NFxFlg=           0 DoJE=T BraDBF=F KetDBF=T FulRan=T
         wScrn=  0.000000 ICntrl=       500 IOpCl=  0 I1Cent=   200000004 NGrid=           0
         NMat0=    1 NMatS0=      1 NMatT0=    0 NMatD0=    1 NMtDS0=    0 NMtDT0=    0
 Petite list used in FoFCou.
 Requested convergence on RMS density matrix=1.00D-08 within 128 cycles.
 Requested convergence on MAX density matrix=1.00D-06.
 Requested convergence on             energy=1.00D-06.
 No special actions if energy rises.
 Integral accuracy reduced to 1.0D-05 until final iterations.
 Initial convergence to 1.0D-05 achieved.  Increase integral accuracy.
 SCF Done:  E(RB3LYP) =  -723.508729920     A.U. after   19 cycles
            NFock= 19  Conv=0.48D-08     -V/T= 2.0052

 **********************************************************************

            Population analysis using the SCF density.

 **********************************************************************

 Orbital symmetries:
       Occupied  (A) (A) (A) (A) (A) (A) (A) (A) (A) (A) (A) (A)
                 (A) (A) (A) (A) (A) (A) (A) (A) (A) (A) (A) (A)
                 (A) (A) (A) (A) (A) (A) (A) (A) (A) (A) (A) (A)
                 (A) (A) (A) (A) (A) (A) (A) (A) (A) (A) (A) (A)
                 (A) (A) (A) (A) (A) (A) (A) (A) (A) (A)
       Virtual   (A) (A) (A) (A) (A) (A) (A) (A) (A) (A) (A) (A)
                 (A) (A) (A) (A) (A) (A) (A) (A) (A) (A) (A) (A)
                 (A) (A) (A) (A) (A) (A) (A) (A) (A) (A) (A) (A)
                 (A) (A) (A) (A) (A) (A) (A) (A) (A) (A) (A) (A)
                 (A) (A) (A) (A) (A) (A) (A) (A) (A) (A) (A) (A)
                 (A) (A) (A) (A) (A) (A) (A) (A) (A) (A) (A) (A)
                 (A) (A) (A) (A) (A) (A) (A) (A) (A) (A) (A) (A)
                 (A) (A) (A) (A) (A) (A) (A) (A) (A) (A) (A) (A)
                 (A) (A) (A) (A) (A) (A) (A) (A) (A) (A) (A) (A)
                 (A) (A) (A) (A) (A) (A) (A) (A) (A) (A) (A) (A)
                 (A) (A) (A) (A) (A) (A) (A) (A) (A) (A) (A) (A)
                 (A) (A) (A) (A) (A) (A) (A) (A) (A) (A) (A) (A)
                 (A) (A) (A) (A) (A) (A) (A) (A) (A) (A) (A) (A)
                 (A) (A) (A) (A) (A) (A) (A) (A) (A) (A) (A) (A)
                 (A) (A) (A) (A) (A) (A) (A) (A) (A) (A) (A) (A)
                 (A) (A) (A) (A) (A) (A) (A) (A) (A) (A) (A) (A)
                 (A) (A) (A) (A) (A) (A) (A) (A) (A) (A) (A) (A)
                 (A) (A) (A) (A) (A) (A) (A) (A) (A) (A) (A) (A)
                 (A) (A) (A) (A) (A) (A) (A) (A) (A) (A) (A) (A)
                 (A) (A) (A) (A) (A) (A) (A) (A) (A) (A) (A) (A)
                 (A) (A) (A) (A) (A) (A) (A) (A) (A) (A) (A) (A)
                 (A) (A) (A) (A) (A) (A) (A) (A) (A) (A) (A) (A)
                 (A) (A) (A) (A) (A) (A) (A) (A) (A) (A) (A) (A)
                 (A) (A) (A) (A) (A) (A) (A) (A) (A) (A) (A) (A)
                 (A) (A) (A) (A) (A) (A) (A) (A) (A) (A) (A) (A)
                 (A) (A) (A) (A) (A) (A) (A) (A) (A) (A) (A) (A)
                 (A) (A) (A) (A) (A) (A) (A) (A) (A) (A) (A) (A)
                 (A) (A) (A) (A) (A) (A) (A) (A) (A) (A) (A) (A)
                 (A) (A) (A) (A) (A) (A) (A) (A) (A) (A) (A) (A)
                 (A) (A) (A) (A) (A) (A) (A) (A) (A) (A) (A) (A)
                 (A) (A) (A) (A) (A) (A) (A) (A) (A) (A) (A) (A)
                 (A) (A) (A) (A) (A) (A) (A) (A) (A) (A) (A) (A)
                 (A) (A) (A) (A) (A) (A) (A) (A) (A) (A) (A) (A)
                 (A) (A) (A) (A) (A) (A) (A) (A) (A) (A) (A) (A)
                 (A) (A) (A) (A) (A) (A) (A) (A) (A) (A) (A) (A)
                 (A) (A) (A) (A) (A) (A) (A) (A) (A) (A) (A) (A)
                 (A) (A) (A) (A) (A) (A) (A) (A) (A) (A) (A) (A)
                 (A) (A) (A) (A) (A) (A) (A) (A) (A) (A) (A) (A)
                 (A) (A) (A) (A) (A) (A) (A) (A) (A) (A) (A) (A)
 The electronic state is 1-A.
 Alpha  occ. eigenvalues --  -19.13131 -14.44775 -14.35391 -10.28903 -10.28673
 Alpha  occ. eigenvalues --  -10.26657 -10.26631 -10.25737 -10.22677 -10.22322
 Alpha  occ. eigenvalues --  -10.21647 -10.21602 -10.20435 -10.20013 -10.19583
 Alpha  occ. eigenvalues --  -10.18315 -10.18261  -1.06326  -1.03551  -1.02917
 Alpha  occ. eigenvalues --   -0.88194  -0.85923  -0.83202  -0.80719  -0.77961
 Alpha  occ. eigenvalues --   -0.71890  -0.68136  -0.65811  -0.64767  -0.62249
 Alpha  occ. eigenvalues --   -0.59704  -0.57165  -0.55716  -0.54025  -0.53266
 Alpha  occ. eigenvalues --   -0.51404  -0.49920  -0.48559  -0.47332  -0.45974
 Alpha  occ. eigenvalues --   -0.44446  -0.42937  -0.42695  -0.42313  -0.39819
 Alpha  occ. eigenvalues --   -0.39513  -0.38731  -0.36419  -0.34278  -0.32193
 Alpha  occ. eigenvalues --   -0.31022  -0.29940  -0.27675  -0.26203  -0.25086
 Alpha  occ. eigenvalues --   -0.23356  -0.19611  -0.18795
 Alpha virt. eigenvalues --   -0.10388  -0.06823  -0.05293  -0.03016  -0.02204
 Alpha virt. eigenvalues --    0.01749   0.03741   0.04652   0.05718   0.09213
 Alpha virt. eigenvalues --    0.10882   0.11506   0.13236   0.13270   0.14078
 Alpha virt. eigenvalues --    0.14653   0.15738   0.16943   0.18591   0.19259
 Alpha virt. eigenvalues --    0.20505   0.23579   0.24461   0.25987   0.26722
 Alpha virt. eigenvalues --    0.27910   0.29653   0.31196   0.32383   0.32645
 Alpha virt. eigenvalues --    0.33673   0.34759   0.36336   0.37314   0.37978
 Alpha virt. eigenvalues --    0.39332   0.40035   0.40866   0.42301   0.42974
 Alpha virt. eigenvalues --    0.44180   0.45106   0.45637   0.46181   0.47656
 Alpha virt. eigenvalues --    0.49088   0.49543   0.50740   0.51896   0.52048
 Alpha virt. eigenvalues --    0.52858   0.53069   0.54351   0.55349   0.56121
 Alpha virt. eigenvalues --    0.56975   0.57828   0.57891   0.58386   0.59671
 Alpha virt. eigenvalues --    0.60254   0.60960   0.61814   0.63199   0.63425
 Alpha virt. eigenvalues --    0.64314   0.65630   0.66742   0.67479   0.68557
 Alpha virt. eigenvalues --    0.68812   0.70363   0.70581   0.71453   0.71935
 Alpha virt. eigenvalues --    0.72771   0.74008   0.74502   0.75172   0.75750
 Alpha virt. eigenvalues --    0.77374   0.77765   0.79072   0.79641   0.79797
 Alpha virt. eigenvalues --    0.79925   0.81918   0.82090   0.82620   0.83074
 Alpha virt. eigenvalues --    0.84574   0.85183   0.86312   0.86557   0.87341
 Alpha virt. eigenvalues --    0.90092   0.90602   0.91591   0.92248   0.93252
 Alpha virt. eigenvalues --    0.94147   0.94398   0.95394   0.97190   0.98096
 Alpha virt. eigenvalues --    0.99993   1.00558   1.01769   1.02142   1.03889
 Alpha virt. eigenvalues --    1.05431   1.06178   1.08079   1.08293   1.09250
 Alpha virt. eigenvalues --    1.11008   1.11189   1.13376   1.14590   1.16106
 Alpha virt. eigenvalues --    1.16524   1.16662   1.18676   1.20597   1.22272
 Alpha virt. eigenvalues --    1.23759   1.24787   1.25053   1.25605   1.26885
 Alpha virt. eigenvalues --    1.28407   1.30408   1.31215   1.33172   1.34147
 Alpha virt. eigenvalues --    1.34704   1.36314   1.37172   1.38606   1.39999
 Alpha virt. eigenvalues --    1.41064   1.41344   1.43857   1.45099   1.46567
 Alpha virt. eigenvalues --    1.47441   1.48173   1.49543   1.50215   1.50941
 Alpha virt. eigenvalues --    1.52726   1.52848   1.54703   1.55716   1.56349
 Alpha virt. eigenvalues --    1.57580   1.58673   1.59754   1.60324   1.62275
 Alpha virt. eigenvalues --    1.63447   1.63698   1.65511   1.66436   1.68430
 Alpha virt. eigenvalues --    1.68749   1.70703   1.72481   1.73668   1.74803
 Alpha virt. eigenvalues --    1.76031   1.77874   1.79287   1.81473   1.82306
 Alpha virt. eigenvalues --    1.86242   1.86809   1.88083   1.89933   1.91027
 Alpha virt. eigenvalues --    1.92446   1.94186   1.95014   1.96676   2.01847
 Alpha virt. eigenvalues --    2.02732   2.03254   2.04030   2.05057   2.08173
 Alpha virt. eigenvalues --    2.09293   2.12665   2.15119   2.15780   2.19793
 Alpha virt. eigenvalues --    2.21682   2.24813   2.26397   2.27461   2.29986
 Alpha virt. eigenvalues --    2.31288   2.32752   2.34373   2.34979   2.37674
 Alpha virt. eigenvalues --    2.39524   2.40432   2.42493   2.45312   2.46790
 Alpha virt. eigenvalues --    2.48449   2.50390   2.51959   2.53580   2.55940
 Alpha virt. eigenvalues --    2.58622   2.60623   2.63310   2.65364   2.65675
 Alpha virt. eigenvalues --    2.67220   2.69315   2.70754   2.73489   2.75105
 Alpha virt. eigenvalues --    2.77752   2.78575   2.81243   2.83034   2.83652
 Alpha virt. eigenvalues --    2.84637   2.86051   2.88350   2.89619   2.90147
 Alpha virt. eigenvalues --    2.91275   2.93625   2.94749   2.95582   2.96723
 Alpha virt. eigenvalues --    2.97360   2.98187   2.98937   2.99860   3.01208
 Alpha virt. eigenvalues --    3.02524   3.03356   3.04401   3.05076   3.05883
 Alpha virt. eigenvalues --    3.07614   3.08060   3.09049   3.10646   3.11633
 Alpha virt. eigenvalues --    3.12818   3.13059   3.15330   3.16760   3.17234
 Alpha virt. eigenvalues --    3.18852   3.19946   3.20659   3.21683   3.22799
 Alpha virt. eigenvalues --    3.24368   3.25087   3.26386   3.27067   3.27735
 Alpha virt. eigenvalues --    3.28608   3.29869   3.32192   3.32864   3.34203
 Alpha virt. eigenvalues --    3.35446   3.37588   3.38454   3.39113   3.40319
 Alpha virt. eigenvalues --    3.40811   3.41315   3.42398   3.43842   3.46375
 Alpha virt. eigenvalues --    3.46668   3.49495   3.49855   3.51970   3.53118
 Alpha virt. eigenvalues --    3.54061   3.54776   3.56368   3.58362   3.60088
 Alpha virt. eigenvalues --    3.61209   3.62025   3.64662   3.65097   3.66043
 Alpha virt. eigenvalues --    3.67742   3.69702   3.70628   3.72787   3.74202
 Alpha virt. eigenvalues --    3.75109   3.77333   3.79211   3.81499   3.82532
 Alpha virt. eigenvalues --    3.85351   3.85940   3.88628   3.89972   3.91837
 Alpha virt. eigenvalues --    3.93357   3.94232   3.95451   3.96578   3.97989
 Alpha virt. eigenvalues --    4.01275   4.01727   4.05289   4.06618   4.07227
 Alpha virt. eigenvalues --    4.08603   4.10189   4.11758   4.12288   4.15621
 Alpha virt. eigenvalues --    4.16697   4.17334   4.19944   4.20384   4.21642
 Alpha virt. eigenvalues --    4.23915   4.25836   4.27368   4.27637   4.29174
 Alpha virt. eigenvalues --    4.31475   4.32279   4.33353   4.35788   4.36221
 Alpha virt. eigenvalues --    4.38338   4.39005   4.40195   4.41222   4.43237
 Alpha virt. eigenvalues --    4.44267   4.45330   4.46871   4.47548   4.47831
 Alpha virt. eigenvalues --    4.49220   4.50464   4.50698   4.52085   4.52650
 Alpha virt. eigenvalues --    4.55004   4.55994   4.58318   4.59544   4.59684
 Alpha virt. eigenvalues --    4.60721   4.61828   4.62877   4.64404   4.64937
 Alpha virt. eigenvalues --    4.67155   4.69049   4.69422   4.70000   4.72322
 Alpha virt. eigenvalues --    4.73179   4.74235   4.76282   4.78125   4.78530
 Alpha virt. eigenvalues --    4.80037   4.81699   4.82898   4.83536   4.84224
 Alpha virt. eigenvalues --    4.87628   4.87875   4.88895   4.90673   4.92003
 Alpha virt. eigenvalues --    4.93014   4.94120   4.95134   4.96560   4.97191
 Alpha virt. eigenvalues --    5.00068   5.01190   5.03064   5.04938   5.07217
 Alpha virt. eigenvalues --    5.07494   5.09740   5.10380   5.10732   5.11809
 Alpha virt. eigenvalues --    5.13535   5.14844   5.15467   5.18166   5.19562
 Alpha virt. eigenvalues --    5.22937   5.24408   5.25653   5.28115   5.30480
 Alpha virt. eigenvalues --    5.33451   5.35677   5.37103   5.40207   5.43588
 Alpha virt. eigenvalues --    5.45760   5.47625   5.51333   5.51760   5.52615
 Alpha virt. eigenvalues --    5.55660   5.57589   5.60841   5.63112   5.65327
 Alpha virt. eigenvalues --    5.69084   5.69896   5.72996   5.76896   5.82224
 Alpha virt. eigenvalues --    5.84993   5.87505   6.00615   6.05924   6.09179
 Alpha virt. eigenvalues --    6.12130   6.19695   6.24359   6.33876   6.44683
 Alpha virt. eigenvalues --    6.47305   6.78545   6.80084   7.07340   9.96922
 Alpha virt. eigenvalues --   10.12394  10.52645  10.80960  10.88238  11.02833
 Alpha virt. eigenvalues --   11.22349  11.39269  11.41130  11.48326  11.68541
 Alpha virt. eigenvalues --   11.78982  12.10206  12.14899  12.36955  12.54239
 Alpha virt. eigenvalues --   12.93305  13.55788  23.78533
          Condensed to atoms (all electrons):
               1          2          3          4          5          6
     1  O    7.666201   0.756689  -0.100721  -0.001348   0.000106  -0.000016
     2  C    0.756689   4.780444   0.179192  -0.039100   0.005949   0.002138
     3  C   -0.100721   0.179192   5.053569   0.469541   0.026641  -0.026428
     4  C   -0.001348  -0.039100   0.469541   4.842627   0.509600  -0.120702
     5  N    0.000106   0.005949   0.026641   0.509600   6.591087   0.382432
     6  N   -0.000016   0.002138  -0.026428  -0.120702   0.382432   6.442527
     7  C   -0.000000  -0.000275  -0.003373   0.009973  -0.043732   0.314014
     8  C    0.000000  -0.000008   0.000104   0.000036   0.000511  -0.022083
     9  C    0.000000   0.000024   0.000429  -0.000048  -0.000322  -0.010962
    10  C   -0.000002  -0.000108  -0.002149   0.000143   0.000223  -0.008281
    11  C    0.000033   0.000185  -0.000468  -0.000025   0.000009   0.000526
    12  C   -0.001089  -0.000811  -0.009532   0.000450  -0.000022   0.000174
    13  C    0.001123  -0.011250  -0.043148   0.001397   0.004007  -0.028513
    14  C   -0.001672  -0.046419   0.456019   0.037045  -0.164177   0.392929
    15  C    0.000000   0.000000   0.000001   0.000001  -0.000032   0.001059
    16  C   -0.000000  -0.000000  -0.000000  -0.000000   0.000042   0.000227
    17  C   -0.000000  -0.000003  -0.000752   0.000661   0.002083  -0.038885
    18  H   -0.058831   0.374967  -0.130310   0.004612  -0.000143   0.000054
    19  H    0.000972  -0.001282  -0.031085   0.365512  -0.027299   0.004186
    20  H   -0.000000  -0.000000   0.000003   0.000000   0.000002   0.000116
    21  H    0.000007   0.000473   0.003363   0.000076   0.000650   0.000303
    22  H   -0.000000   0.000017  -0.000010   0.000001   0.000000  -0.000034
    23  H    0.000296   0.000734   0.001992  -0.000013   0.000007  -0.000146
    24  H   -0.000009   0.000147   0.006020  -0.000191  -0.000040  -0.005402
    25  H   -0.000000  -0.000000  -0.000000   0.000000  -0.000000   0.000060
    26  H   -0.000000   0.000000   0.000000  -0.000000  -0.000000   0.000010
    27  H    0.000000  -0.000000  -0.000012  -0.000038   0.002513  -0.006740
               7          8          9         10         11         12
     1  O   -0.000000   0.000000   0.000000  -0.000002   0.000033  -0.001089
     2  C   -0.000275  -0.000008   0.000024  -0.000108   0.000185  -0.000811
     3  C   -0.003373   0.000104   0.000429  -0.002149  -0.000468  -0.009532
     4  C    0.009973   0.000036  -0.000048   0.000143  -0.000025   0.000450
     5  N   -0.043732   0.000511  -0.000322   0.000223   0.000009  -0.000022
     6  N    0.314014  -0.022083  -0.010962  -0.008281   0.000526   0.000174
     7  C    4.957379   0.363428  -0.101003  -0.014340   0.002524   0.000062
     8  C    0.363428   4.506510   0.364161   0.018281   0.001378   0.000240
     9  C   -0.101003   0.364161   5.467290   0.442022  -0.056917   0.006761
    10  C   -0.014340   0.018281   0.442022   4.868628   0.598525  -0.020416
    11  C    0.002524   0.001378  -0.056917   0.598525   5.032290   0.426744
    12  C    0.000062   0.000240   0.006761  -0.020416   0.426744   4.928276
    13  C    0.002679   0.000512  -0.015241  -0.032162  -0.051222   0.561157
    14  C   -0.024887  -0.001638   0.000592  -0.005754   0.008898  -0.049239
    15  C    0.026417  -0.032815   0.012425  -0.000421  -0.000045   0.000001
    16  C   -0.047307   0.344516  -0.143489   0.003835   0.000005  -0.000003
    17  C    0.271829   0.168473  -0.046255   0.006225  -0.000205   0.000023
    18  H    0.000042   0.000002   0.000012   0.000049  -0.000123   0.009397
    19  H   -0.000119   0.000002  -0.000000  -0.000002   0.000000  -0.000013
    20  H    0.006998  -0.040761   0.362310  -0.064197  -0.000427  -0.000346
    21  H    0.006379  -0.026799  -0.053673   0.342370  -0.037110  -0.028258
    22  H    0.000041   0.000148  -0.010379  -0.046203   0.348705  -0.052985
    23  H    0.000029  -0.000005  -0.000191   0.001628  -0.052873   0.365215
    24  H    0.002926  -0.000901   0.013213  -0.005125  -0.043501  -0.047288
    25  H    0.005356   0.008761  -0.000768   0.000025   0.000000  -0.000000
    26  H    0.002178  -0.015696   0.012771  -0.000058  -0.000015  -0.000000
    27  H   -0.088680  -0.027295  -0.007855   0.000138   0.000005  -0.000000
              13         14         15         16         17         18
     1  O    0.001123  -0.001672   0.000000  -0.000000  -0.000000  -0.058831
     2  C   -0.011250  -0.046419   0.000000  -0.000000  -0.000003   0.374967
     3  C   -0.043148   0.456019   0.000001  -0.000000  -0.000752  -0.130310
     4  C    0.001397   0.037045   0.000001  -0.000000   0.000661   0.004612
     5  N    0.004007  -0.164177  -0.000032   0.000042   0.002083  -0.000143
     6  N   -0.028513   0.392929   0.001059   0.000227  -0.038885   0.000054
     7  C    0.002679  -0.024887   0.026417  -0.047307   0.271829   0.000042
     8  C    0.000512  -0.001638  -0.032815   0.344516   0.168473   0.000002
     9  C   -0.015241   0.000592   0.012425  -0.143489  -0.046255   0.000012
    10  C   -0.032162  -0.005754  -0.000421   0.003835   0.006225   0.000049
    11  C   -0.051222   0.008898  -0.000045   0.000005  -0.000205  -0.000123
    12  C    0.561157  -0.049239   0.000001  -0.000003   0.000023   0.009397
    13  C    5.110915   0.430837  -0.000026   0.000065   0.000759  -0.003402
    14  C    0.430837   4.805397   0.000077  -0.000131   0.005384  -0.005645
    15  C   -0.000026   0.000077   4.877719   0.473897   0.474769   0.000000
    16  C    0.000065  -0.000131   0.473897   5.353899  -0.027481  -0.000000
    17  C    0.000759   0.005384   0.474769  -0.027481   5.182038   0.000000
    18  H   -0.003402  -0.005645   0.000000  -0.000000   0.000000   0.720697
    19  H   -0.000227   0.002130  -0.000000   0.000000  -0.000006   0.000082
    20  H    0.000049  -0.000022   0.000431  -0.004365  -0.001960   0.000000
    21  H   -0.018674   0.012295  -0.000090   0.000841  -0.004320   0.000048
    22  H    0.005490  -0.000133  -0.000000  -0.000017   0.000009   0.000047
    23  H   -0.043223  -0.005042  -0.000000  -0.000000   0.000000  -0.000994
    24  H    0.362189  -0.042317   0.000040   0.000024  -0.000376   0.000102
    25  H    0.000000   0.000000   0.361829  -0.051084  -0.049615  -0.000000
    26  H   -0.000003   0.000001  -0.042863   0.303517   0.004593  -0.000000
    27  H    0.000028  -0.000178  -0.141680   0.039969   0.252617   0.000000
              19         20         21         22         23         24
     1  O    0.000972  -0.000000   0.000007  -0.000000   0.000296  -0.000009
     2  C   -0.001282  -0.000000   0.000473   0.000017   0.000734   0.000147
     3  C   -0.031085   0.000003   0.003363  -0.000010   0.001992   0.006020
     4  C    0.365512   0.000000   0.000076   0.000001  -0.000013  -0.000191
     5  N   -0.027299   0.000002   0.000650   0.000000   0.000007  -0.000040
     6  N    0.004186   0.000116   0.000303  -0.000034  -0.000146  -0.005402
     7  C   -0.000119   0.006998   0.006379   0.000041   0.000029   0.002926
     8  C    0.000002  -0.040761  -0.026799   0.000148  -0.000005  -0.000901
     9  C   -0.000000   0.362310  -0.053673  -0.010379  -0.000191   0.013213
    10  C   -0.000002  -0.064197   0.342370  -0.046203   0.001628  -0.005125
    11  C    0.000000  -0.000427  -0.037110   0.348705  -0.052873  -0.043501
    12  C   -0.000013  -0.000346  -0.028258  -0.052985   0.365215  -0.047288
    13  C   -0.000227   0.000049  -0.018674   0.005490  -0.043223   0.362189
    14  C    0.002130  -0.000022   0.012295  -0.000133  -0.005042  -0.042317
    15  C   -0.000000   0.000431  -0.000090  -0.000000  -0.000000   0.000040
    16  C    0.000000  -0.004365   0.000841  -0.000017  -0.000000   0.000024
    17  C   -0.000006  -0.001960  -0.004320   0.000009   0.000000  -0.000376
    18  H    0.000082   0.000000   0.000048   0.000047  -0.000994   0.000102
    19  H    0.541328   0.000000   0.000014  -0.000000  -0.000001   0.000004
    20  H    0.000000   0.630622   0.010116   0.004744   0.000012   0.000661
    21  H    0.000014   0.010116   0.685560   0.007272   0.000214  -0.001504
    22  H   -0.000000   0.004744   0.007272   0.642072   0.004316   0.004032
    23  H   -0.000001   0.000012   0.000214   0.004316   0.595792   0.005978
    24  H    0.000004   0.000661  -0.001504   0.004032   0.005978   0.636128
    25  H    0.000000  -0.000033   0.000000   0.000000   0.000000   0.000000
    26  H   -0.000000  -0.002108  -0.000006  -0.000001  -0.000000   0.000001
    27  H    0.000002   0.000053   0.000012   0.000000   0.000000  -0.000002
              25         26         27
     1  O   -0.000000  -0.000000   0.000000
     2  C   -0.000000   0.000000  -0.000000
     3  C   -0.000000   0.000000  -0.000012
     4  C    0.000000  -0.000000  -0.000038
     5  N   -0.000000  -0.000000   0.002513
     6  N    0.000060   0.000010  -0.006740
     7  C    0.005356   0.002178  -0.088680
     8  C    0.008761  -0.015696  -0.027295
     9  C   -0.000768   0.012771  -0.007855
    10  C    0.000025  -0.000058   0.000138
    11  C    0.000000  -0.000015   0.000005
    12  C   -0.000000  -0.000000  -0.000000
    13  C    0.000000  -0.000003   0.000028
    14  C    0.000000   0.000001  -0.000178
    15  C    0.361829  -0.042863  -0.141680
    16  C   -0.051084   0.303517   0.039969
    17  C   -0.049615   0.004593   0.252617
    18  H   -0.000000  -0.000000   0.000000
    19  H    0.000000  -0.000000   0.000002
    20  H   -0.000033  -0.002108   0.000053
    21  H    0.000000  -0.000006   0.000012
    22  H    0.000000  -0.000001   0.000000
    23  H    0.000000  -0.000000   0.000000
    24  H    0.000000   0.000001  -0.000002
    25  H    0.582369  -0.004854   0.008160
    26  H   -0.004854   0.616120  -0.002374
    27  H    0.008160  -0.002374   0.916251
 Mulliken charges:
               1
     1  O   -0.261739
     2  C   -0.001704
     3  C    0.151113
     4  C   -0.080207
     5  N   -0.290095
     6  N   -0.272562
     7  C    0.351461
     8  C    0.390939
     9  C   -0.234909
    10  C   -0.082875
    11  C   -0.176898
    12  C   -0.088496
    13  C   -0.234116
    14  C    0.195648
    15  C   -0.010696
    16  C   -0.246959
    17  C   -0.199607
    18  H    0.089337
    19  H    0.145803
    20  H    0.098102
    21  H    0.100439
    22  H    0.092869
    23  H    0.126275
    24  H    0.115192
    25  H    0.139791
    26  H    0.128787
    27  H    0.055107
 Sum of Mulliken charges =  -0.00000
 Mulliken charges with hydrogens summed into heavy atoms:
               1
     1  O   -0.261739
     2  C    0.087633
     3  C    0.151113
     4  C    0.065596
     5  N   -0.290095
     6  N   -0.272562
     7  C    0.351461
     8  C    0.390939
     9  C   -0.136807
    10  C    0.017565
    11  C   -0.084028
    12  C    0.037779
    13  C   -0.118924
    14  C    0.195648
    15  C    0.129095
    16  C   -0.118172
    17  C   -0.144500
 Electronic spatial extent (au):  <R**2>=           3616.2066
 Charge=             -0.0000 electrons
 Dipole moment (field-independent basis, Debye):
    X=              5.7530    Y=              0.6348    Z=             -0.7917  Tot=              5.8418
 Quadrupole moment (field-independent basis, Debye-Ang):
   XX=            -93.4418   YY=            -99.5905   ZZ=            -99.2471
   XY=             -1.6745   XZ=              4.5538   YZ=              1.6461
 Traceless Quadrupole moment (field-independent basis, Debye-Ang):
   XX=              3.9847   YY=             -2.1641   ZZ=             -1.8206
   XY=             -1.6745   XZ=              4.5538   YZ=              1.6461
 Octapole moment (field-independent basis, Debye-Ang**2):
  XXX=            146.0291  YYY=              8.6201  ZZZ=              1.1870  XYY=            -12.2250
  XXY=            -19.6653  XXZ=            -25.1202  XZZ=             -8.6166  YZZ=             -5.8392
  YYZ=              7.6211  XYZ=             -0.7158
 Hexadecapole moment (field-independent basis, Debye-Ang**3):
 XXXX=          -3342.7735 YYYY=          -1412.0695 ZZZZ=           -213.6245 XXXY=            -45.8057
 XXXZ=             62.9286 YYYX=             35.6221 YYYZ=             19.8478 ZZZX=             -1.8052
 ZZZY=              2.8208 XXYY=           -700.5383 XXZZ=           -606.4811 YYZZ=           -279.8566
 XXYZ=              8.9087 YYXZ=              7.4369 ZZXY=              2.2761
 N-N= 1.122897498871D+03 E-N=-3.927220692815D+03  KE= 7.197669810363D+02
 PrsmSu:  requested number of processors reduced to:  13 ShMem   1 Linda.
 Calling FoFJK, ICntrl=      2127 FMM=F ISym2X=0 I1Cent= 0 IOpClX= 0 NMat=1 NMatS=1 NMatT=0.
 ***** Axes restored to original set *****
 -------------------------------------------------------------------
 Center     Atomic                   Forces (Hartrees/Bohr)
 Number     Number              X              Y              Z
 -------------------------------------------------------------------
      1        8           0.009760053   -0.014434744    0.003393914
      2        6          -0.036848945    0.004768213   -0.016880390
      3        6          -0.004195075    0.024879046   -0.006605662
      4        6           0.026377566    0.010602077    0.032216359
      5        7          -0.003979431   -0.006347878    0.011094242
      6        7          -0.016908888    0.021923811   -0.030878839
      7        6          -0.070524327    0.003864364   -0.018185584
      8        6          -0.008106310   -0.101700506   -0.336110692
      9        6           0.031091037   -0.077299842   -0.035515723
     10        6           0.002901381    0.073109960    0.034954255
     11        6          -0.028475094    0.015322316   -0.040599821
     12        6           0.005862211   -0.059874712   -0.018094281
     13        6           0.029087882    0.021931793    0.065186372
     14        6           0.027947554   -0.002400258   -0.026496935
     15        6          -0.019181817    0.050992127    0.133418080
     16        6           0.066238198    0.023938398   -0.115325051
     17        6          -0.036753199    0.074763768    0.373485164
     18        1          -0.002184136   -0.006668078    0.003184016
     19        1           0.007712742   -0.000864132    0.005684773
     20        1           0.010239571    0.006926855    0.005428828
     21        1          -0.007790624   -0.034574903    0.009222546
     22        1           0.021639715   -0.013600682   -0.018056922
     23        1           0.000859851    0.012201504    0.002682273
     24        1          -0.003427074    0.002269109    0.015368036
     25        1           0.011598914    0.004162708    0.003855588
     26        1          -0.008152107   -0.009166298   -0.054485614
     27        1          -0.004789647   -0.024724015    0.018061069
 -------------------------------------------------------------------
 Cartesian Forces:  Max     0.373485164 RMS     0.066328831

 GradGradGradGradGradGradGradGradGradGradGradGradGradGradGradGradGradGrad
 Berny optimization.
 FormGI is forming the generalized inverse of G from B-inverse, IUseBI=4.
 Internal  Forces:  Max     0.252539624 RMS     0.033602964
 Search for a local minimum.
 Step number   1 out of a maximum of  162
 All quantities printed in internal units (Hartrees-Bohrs-Radians)
 Mixed Optimization -- RFO/linear search
 Second derivative matrix not updated -- first step.
 ITU=  0
     Eigenvalues ---    0.00962   0.01256   0.01301   0.01436   0.01505
     Eigenvalues ---    0.01608   0.01655   0.01675   0.01703   0.01815
     Eigenvalues ---    0.01975   0.02140   0.02179   0.02194   0.02332
     Eigenvalues ---    0.02401   0.02477   0.02501   0.02618   0.02694
     Eigenvalues ---    0.03307   0.03428   0.04661   0.06220   0.08856
     Eigenvalues ---    0.10098   0.10533   0.12248   0.14046   0.14676
     Eigenvalues ---    0.15691   0.15806   0.15997   0.15999   0.16000
     Eigenvalues ---    0.18664   0.19149   0.21229   0.22051   0.22408
     Eigenvalues ---    0.22612   0.22892   0.23591   0.24445   0.24625
     Eigenvalues ---    0.27428   0.28550   0.30338   0.32218   0.32720
     Eigenvalues ---    0.33296   0.33905   0.34365   0.34501   0.35550
     Eigenvalues ---    0.35892   0.36362   0.36526   0.36855   0.37582
     Eigenvalues ---    0.37771   0.38326   0.40020   0.40802   0.41117
     Eigenvalues ---    0.42017   0.44692   0.45940   0.48174   0.50277
     Eigenvalues ---    0.53071   0.54536   0.56165   0.74658   0.94827
 RFO step:  Lambda=-2.52469403D-01 EMin= 9.62288750D-03
 Linear search not attempted -- first point.
 Maximum step size (   0.300) exceeded in Quadratic search.
    -- Step size scaled by   0.520
 Iteration  1 RMS(Cart)=  0.06206956 RMS(Int)=  0.00124883
 Iteration  2 RMS(Cart)=  0.00188610 RMS(Int)=  0.00026693
 Iteration  3 RMS(Cart)=  0.00000172 RMS(Int)=  0.00026692
 Iteration  4 RMS(Cart)=  0.00000000 RMS(Int)=  0.00026692
 Variable       Old X    -DE/DX   Delta X   Delta X   Delta X     New X
                                 (Linear)    (Quad)   (Total)
    R1        2.30785  -0.01089   0.00000  -0.00472  -0.00472   2.30313
    R2        2.70478   0.03096   0.00000   0.02438   0.02438   2.72915
    R3        2.09547   0.00076   0.00000   0.00069   0.00069   2.09615
    R4        2.62054   0.03069   0.00000   0.02311   0.02302   2.64355
    R5        2.59382   0.02100   0.00000   0.01534   0.01529   2.60912
    R6        2.53469  -0.03122   0.00000  -0.02021  -0.02027   2.51443
    R7        2.04791  -0.00177   0.00000  -0.00152  -0.00152   2.04639
    R8        2.64828  -0.00198   0.00000  -0.00312  -0.00304   2.64524
    R9        2.64912  -0.04794   0.00000  -0.03496  -0.03490   2.61422
   R10        2.82998  -0.03168   0.00000  -0.03042  -0.03017   2.79981
   R11        2.60784   0.05197   0.00000   0.03296   0.03332   2.64116
   R12        2.48270   0.02598   0.00000   0.00891   0.00868   2.49138
   R13        2.70390   0.02563   0.00000   0.02248   0.02227   2.72617
   R14        2.85814   0.04998   0.00000   0.04216   0.04188   2.90002
   R15        2.57014   0.25254   0.00000   0.18126   0.18139   2.75154
   R16        2.73505  -0.02084   0.00000  -0.01633  -0.01653   2.71851
   R17        2.04250   0.00394   0.00000   0.00335   0.00335   2.04585
   R18        2.55901   0.02562   0.00000   0.01821   0.01809   2.57709
   R19        2.00594   0.01542   0.00000   0.01262   0.01262   2.01855
   R20        2.78860   0.00602   0.00000   0.00423   0.00432   2.79292
   R21        2.02765   0.01712   0.00000   0.01434   0.01434   2.04199
   R22        2.58322   0.06152   0.00000   0.03999   0.04026   2.62349
   R23        2.08535  -0.01029   0.00000  -0.00914  -0.00914   2.07621
   R24        2.82582  -0.02704   0.00000  -0.02668  -0.02661   2.79920
   R25        2.07491  -0.00413   0.00000  -0.00363  -0.00363   2.07128
   R26        2.35391   0.20700   0.00000   0.09903   0.09889   2.45280
   R27        2.66781   0.04354   0.00000   0.03290   0.03296   2.70077
   R28        2.01677   0.01092   0.00000   0.00904   0.00904   2.02581
   R29        2.06493   0.00838   0.00000   0.00729   0.00729   2.07222
   R30        2.17653   0.01298   0.00000   0.01255   0.01255   2.18907
    A1        2.15534   0.01372   0.00000   0.01562   0.01543   2.17077
    A2        2.12653  -0.00885   0.00000  -0.00939  -0.00959   2.11694
    A3        1.98704  -0.00182   0.00000  -0.00056  -0.00076   1.98628
    A4        2.34000  -0.01761   0.00000  -0.02013  -0.02019   2.31981
    A5        2.09401   0.02154   0.00000   0.02246   0.02264   2.11664
    A6        1.82074  -0.00190   0.00000   0.00137   0.00116   1.82190
    A7        1.97826   0.00229   0.00000   0.00453   0.00446   1.98272
    A8        2.17421   0.00613   0.00000   0.00689   0.00692   2.18114
    A9        2.13053  -0.00839   0.00000  -0.01143  -0.01140   2.11914
   A10        1.83901  -0.00692   0.00000  -0.01041  -0.01037   1.82863
   A11        2.21920  -0.04041   0.00000  -0.03957  -0.03982   2.17938
   A12        1.84071   0.02878   0.00000   0.03036   0.03037   1.87108
   A13        2.22327   0.01160   0.00000   0.00916   0.00931   2.23258
   A14        2.48484  -0.01767   0.00000  -0.00364  -0.00373   2.48111
   A15        2.73429  -0.08069   0.00000  -0.07101  -0.07135   2.66294
   A16        2.09794   0.03013   0.00000   0.02601   0.02598   2.12392
   A17        2.39558  -0.04804   0.00000  -0.04133  -0.04154   2.35404
   A18        1.70279   0.02040   0.00000   0.02357   0.02373   1.72652
   A19        1.49230   0.00811   0.00000   0.00133   0.00109   1.49339
   A20        2.13717  -0.00726   0.00000  -0.00552  -0.00585   2.13131
   A21        2.13717  -0.00817   0.00000  -0.01215  -0.01208   2.12509
   A22        2.00876   0.01528   0.00000   0.01741   0.01749   2.02625
   A23        2.26561  -0.01584   0.00000  -0.00964  -0.00955   2.25606
   A24        1.72089   0.03287   0.00000   0.04004   0.04005   1.76094
   A25        2.02077  -0.01472   0.00000  -0.01926  -0.01933   2.00144
   A26        1.98690  -0.02911   0.00000  -0.03117  -0.03089   1.95601
   A27        2.10339   0.00021   0.00000   0.00164   0.00181   2.10520
   A28        1.89722   0.02884   0.00000   0.03563   0.03557   1.93279
   A29        1.89219   0.01409   0.00000   0.01071   0.01138   1.90357
   A30        2.10188   0.00430   0.00000   0.00864   0.00823   2.11011
   A31        2.26150  -0.01622   0.00000  -0.01547  -0.01585   2.24565
   A32        2.05467   0.03399   0.00000   0.03965   0.03972   2.09440
   A33        1.86201  -0.00026   0.00000   0.00408   0.00418   1.86619
   A34        1.99433  -0.01414   0.00000  -0.01756  -0.01801   1.97632
   A35        1.81916  -0.01368   0.00000  -0.00911  -0.00931   1.80985
   A36        2.16526   0.03477   0.00000   0.04078   0.04071   2.20597
   A37        2.27947  -0.01981   0.00000  -0.02944  -0.02922   2.25025
   A38        1.64767   0.02091   0.00000   0.03192   0.03177   1.67944
   A39        2.49282  -0.01415   0.00000  -0.02122  -0.02129   2.47153
   A40        2.13840  -0.00614   0.00000  -0.00916  -0.00907   2.12933
   A41        1.52618  -0.00500   0.00000  -0.00085  -0.00077   1.52540
   A42        2.57191  -0.02561   0.00000  -0.03045  -0.03013   2.54178
   A43        1.81140   0.02607   0.00000   0.03111   0.03166   1.84306
   A44        2.59826  -0.07078   0.00000  -0.06390  -0.06403   2.53423
   A45        2.02698   0.02617   0.00000   0.01394   0.01418   2.04116
   A46        1.52607  -0.02412   0.00000  -0.02881  -0.02829   1.49778
   A47        1.65794   0.04459   0.00000   0.04994   0.04980   1.70774
   A48        3.19509   0.02851   0.00000   0.02489   0.02482   3.21991
   A49        3.18401   0.02047   0.00000   0.02113   0.02151   3.20552
   A50        3.15841   0.01166   0.00000   0.02304   0.02276   3.18117
   A51        3.35008   0.00581   0.00000   0.01974   0.01982   3.36990
    D1        1.02835  -0.00480   0.00000  -0.00970  -0.00974   1.01861
    D2       -1.81513  -0.01607   0.00000  -0.03020  -0.03018  -1.84531
    D3       -2.29140   0.01298   0.00000   0.02422   0.02420  -2.26720
    D4        1.14830   0.00170   0.00000   0.00372   0.00376   1.15207
    D5        3.03987  -0.00331   0.00000  -0.00045   0.00000   3.03987
    D6       -0.12175  -0.00163   0.00000  -0.00095  -0.00081  -0.12256
    D7       -0.36742   0.01020   0.00000   0.02114   0.02140  -0.34601
    D8        2.75415   0.01187   0.00000   0.02063   0.02059   2.77474
    D9       -2.90102  -0.01495   0.00000  -0.02278  -0.02253  -2.92355
   D10        0.05013  -0.01224   0.00000  -0.01671  -0.01620   0.03393
   D11        0.46013  -0.01945   0.00000  -0.03324  -0.03331   0.42681
   D12       -2.87191  -0.01673   0.00000  -0.02717  -0.02698  -2.89889
   D13        0.08880   0.00135   0.00000  -0.00083  -0.00101   0.08779
   D14       -3.03333  -0.00046   0.00000  -0.00057  -0.00046  -3.03379
   D15       -2.93440   0.00104   0.00000   0.00093   0.00056  -2.93384
   D16        0.20348  -0.00549   0.00000  -0.01290  -0.01318   0.19031
   D17        2.70271   0.00359   0.00000   0.00299   0.00318   2.70590
   D18       -0.22028   0.01338   0.00000   0.02334   0.02370  -0.19658
   D19       -0.43438   0.01152   0.00000   0.01976   0.01981  -0.41457
   D20        2.92581   0.02131   0.00000   0.04011   0.04033   2.96614
   D21       -0.42364   0.01372   0.00000   0.02707   0.02737  -0.39627
   D22        2.92600   0.00220   0.00000   0.00927   0.00991   2.93591
   D23        2.71423   0.00702   0.00000   0.01305   0.01294   2.72717
   D24       -0.21931  -0.00450   0.00000  -0.00474  -0.00451  -0.22383
   D25        0.05754  -0.00932   0.00000  -0.01555  -0.01531   0.04222
   D26        2.65236   0.00932   0.00000   0.02029   0.01990   2.67226
   D27       -3.06534   0.00362   0.00000   0.01026   0.01030  -3.05504
   D28        0.08336   0.00989   0.00000   0.01741   0.01769   0.10105
   D29       -0.48914   0.00840   0.00000   0.02244   0.02279  -0.46635
   D30        2.63760  -0.00405   0.00000   0.00093   0.00132   2.63891
   D31        3.01641   0.01756   0.00000   0.01824   0.01763   3.03404
   D32       -0.14003   0.00511   0.00000  -0.00327  -0.00385  -0.14388
   D33        2.74613   0.00763   0.00000   0.01887   0.01916   2.76529
   D34       -0.40440   0.00055   0.00000   0.00976   0.01016  -0.39425
   D35        0.79390  -0.02392   0.00000  -0.02667  -0.02611   0.76779
   D36        2.74643   0.00357   0.00000   0.01472   0.01511   2.76153
   D37       -2.81814  -0.00080   0.00000   0.00938   0.00909  -2.80906
   D38       -0.86562   0.02669   0.00000   0.05077   0.05031  -0.81531
   D39        0.30663  -0.01246   0.00000  -0.01366  -0.01367   0.29296
   D40        2.25916   0.01503   0.00000   0.02773   0.02755   2.28670
   D41       -0.26959  -0.00915   0.00000   0.00335   0.00377  -0.26582
   D42        2.43258  -0.01514   0.00000  -0.02180  -0.02193   2.41065
   D43        0.08823  -0.01767   0.00000  -0.03256  -0.03276   0.05547
   D44       -0.69517  -0.00337   0.00000  -0.00153  -0.00138  -0.69654
   D45       -3.03952  -0.00590   0.00000  -0.01229  -0.01221  -3.05173
   D46       -1.77493  -0.01453   0.00000  -0.02437  -0.02445  -1.79938
   D47        0.52657  -0.00232   0.00000  -0.00203  -0.00189   0.52469
   D48        0.46302   0.00394   0.00000   0.00847   0.00831   0.47132
   D49        2.76452   0.01615   0.00000   0.03081   0.03087   2.79539
   D50        0.57537  -0.00662   0.00000  -0.00499  -0.00474   0.57063
   D51       -2.33896  -0.01311   0.00000  -0.01836  -0.01833  -2.35729
   D52       -1.82211  -0.00781   0.00000  -0.01320  -0.01296  -1.83507
   D53        1.54675  -0.01431   0.00000  -0.02657  -0.02655   1.52020
   D54       -1.56251  -0.02415   0.00000  -0.03867  -0.03872  -1.60123
   D55        0.70568  -0.01598   0.00000  -0.02651  -0.02610   0.67958
   D56        1.32429  -0.01269   0.00000  -0.01896  -0.01912   1.30517
   D57       -2.69071  -0.00452   0.00000  -0.00680  -0.00650  -2.69721
   D58       -0.86250   0.00278   0.00000   0.00036   0.00075  -0.86175
   D59        2.03501   0.00965   0.00000   0.01392   0.01415   2.04916
   D60       -3.06772  -0.01507   0.00000  -0.02590  -0.02556  -3.09328
   D61       -0.17022  -0.00820   0.00000  -0.01235  -0.01215  -0.18237
   D62       -0.29502  -0.01362   0.00000  -0.00535  -0.00451  -0.29953
   D63       -2.89516   0.00763   0.00000   0.01783   0.01787  -2.87729
   D64        2.95629  -0.02238   0.00000  -0.02610  -0.02520   2.93109
   D65        0.35616  -0.00113   0.00000  -0.00291  -0.00282   0.35334
   D66        0.12718  -0.01220   0.00000  -0.02592  -0.02566   0.10152
   D67        0.32926  -0.01199   0.00000  -0.01261  -0.01248   0.31678
   D68       -3.02082  -0.01779   0.00000  -0.03234  -0.03230  -3.05312
   D69       -3.09296  -0.00710   0.00000  -0.01284  -0.01227  -3.10524
   D70       -2.89088  -0.00689   0.00000   0.00047   0.00090  -2.88998
   D71        0.04223  -0.01270   0.00000  -0.01927  -0.01892   0.02331
         Item               Value     Threshold  Converged?
 Maximum Force            0.252540     0.000450     NO 
 RMS     Force            0.033603     0.000300     NO 
 Maximum Displacement     0.228524     0.001800     NO 
 RMS     Displacement     0.062637     0.001200     NO 
 Predicted change in Energy=-1.119231D-01
 GradGradGradGradGradGradGradGradGradGradGradGradGradGradGradGradGradGrad

                          Input orientation:                          
 ---------------------------------------------------------------------
 Center     Atomic      Atomic             Coordinates (Angstroms)
 Number     Number       Type             X           Y           Z
 ---------------------------------------------------------------------
      1          8           0        0.655787   -0.222776    0.156260
      2          6           0        1.865538   -0.268594    0.296933
      3          6           0        2.627433    0.651043    1.109038
      4          6           0        2.577572    0.990654    2.465180
      5          7           0        3.553823    1.811009    2.845161
      6          7           0        4.231959    2.130500    1.663001
      7          6           0        5.457781    2.768791    1.602196
      8          6           0        6.582252    2.923690    0.786736
      9          6           0        6.668408    2.300963   -0.511712
     10          6           0        5.951529    1.095220   -0.830716
     11          6           0        5.274610    0.769034   -1.968772
     12          6           0        3.811374    0.887770   -1.797950
     13          6           0        3.540684    1.920942   -0.911029
     14          6           0        3.405077    1.637903    0.536615
     15          6           0        7.689777    4.114661    1.888554
     16          6           0        7.637921    4.020904    0.595016
     17          6           0        6.455907    3.439621    2.142441
     18          1           0        2.491451   -0.949065   -0.315925
     19          1           0        1.820611    0.653074    3.162122
     20          1           0        7.252157    2.734302   -1.313907
     21          1           0        5.404277    0.940501    0.073480
     22          1           0        5.581799    1.167312   -2.925146
     23          1           0        3.134908    0.104235   -2.166150
     24          1           0        4.253702    2.724180   -1.129637
     25          1           0        8.273336    4.547304    2.676903
     26          1           0        8.650186    4.251253    0.241848
     27          1           0        6.423633    3.595349    3.289880
 ---------------------------------------------------------------------
                    Distance matrix (angstroms):
                    1          2          3          4          5
     1  O    0.000000
     2  C    1.218764   0.000000
     3  C    2.357697   1.444206   0.000000
     4  C    3.239874   2.606530   1.398908   0.000000
     5  N    4.445794   3.697097   2.284260   1.330577   0.000000
     6  N    4.538411   3.636171   2.251704   2.163270   1.399802
     7  C    5.839465   4.881970   3.569164   3.493153   2.467259
     8  C    6.739490   5.716465   4.572679   4.753026   3.827081
     9  C    6.554926   5.506732   4.656023   5.226255   4.605355
    10  C    5.545820   4.452741   3.874216   4.717780   4.446732
    11  C    5.180055   4.222779   4.061328   5.194522   5.217353
    12  C    3.874271   3.084152   3.147751   4.439272   4.741011
    13  C    3.749302   3.009877   2.554866   3.632053   3.757822
    14  C    3.341465   2.462186   1.380685   2.196146   2.319801
    15  C    8.443413   7.461096   6.183173   6.018850   4.829909
    16  C    8.182391   7.197851   6.060130   6.187654   5.160102
    17  C    7.141390   6.182900   4.847814   4.598161   3.401218
    18  H    2.029808   1.109236   2.146942   3.391825   4.328870
    19  H    3.340529   3.010116   2.205928   1.082903   2.108389
    20  H    7.376842   6.373999   5.621273   6.258878   5.641630
    21  H    4.889603   3.746267   2.977756   3.703108   3.444442
    22  H    5.974362   5.123887   5.026873   6.173508   6.150079
    23  H    3.412706   2.795904   3.359075   4.748219   5.310538
    24  H    4.825253   4.085967   3.457501   4.328653   4.137963
    25  H    9.334579   8.361640   7.036709   6.718357   5.457969
    26  H    9.161587   8.152516   7.070155   7.242331   6.221330
    27  H    7.593794   6.683115   5.275997   4.717706   3.408439
                    6          7          8          9         10
     6  N    0.000000
     7  C    1.383385   0.000000
     8  C    2.630754   1.397641   0.000000
     9  C    3.270278   2.480541   1.442629   0.000000
    10  C    3.201148   2.993942   2.521362   1.438575   0.000000
    11  C    4.016277   4.096875   3.734340   2.532292   1.363740
    12  C    3.701277   4.220176   4.301551   3.437175   2.357719
    13  C    2.673463   3.272676   3.624782   3.175930   2.549596
    14  C    1.481597   2.574484   3.436604   3.491128   2.940836
    15  C    3.993029   2.622055   1.964441   3.177101   4.419612
    16  C    4.039158   2.708359   1.534625   2.263404   3.665551
    17  C    2.624806   1.318383   1.456050   2.895898   3.819722
    18  H    4.053299   5.128426   5.740100   5.296035   4.051697
    19  H    3.200742   4.487610   5.785445   6.301884   5.762181
    20  H    4.283474   3.424124   2.212994   1.082618   2.147487
    21  H    2.305862   2.383795   2.414414   1.947135   1.068173
    22  H    4.878615   4.803846   4.226563   2.879331   2.128035
    23  H    4.468967   5.166820   5.343505   4.477545   3.270900
    24  H    2.855128   2.985751   3.022323   2.528191   2.371809
    25  H    4.816812   3.499351   3.011415   4.217714   5.441606
    26  H    5.102745   3.773551   2.517078   2.880786   4.288787
    27  H    3.097734   2.112900   2.596539   4.023363   4.842814
                   11         12         13         14         15
    11  C    0.000000
    12  C    1.477951   0.000000
    13  C    2.334997   1.388289   0.000000
    14  C    3.244542   2.485553   1.481275   0.000000
    15  C    5.648470   6.248612   5.464892   5.130373   0.000000
    16  C    4.767903   5.494113   4.844106   4.857888   1.297968
    17  C    5.042774   5.388152   4.486489   3.890042   1.429186
    18  H    3.664661   2.704174   3.113195   2.872967   7.584435
    19  H    6.186245   5.349817   4.599641   3.220824   6.931932
    20  H    2.863882   3.934840   3.820850   4.407556   3.514635
    21  H    2.053535   2.458124   2.324543   2.167410   4.311995
    22  H    1.080574   2.117338   2.964924   4.116232   6.025126
    23  H    2.249276   1.098683   2.245086   3.119306   7.298697
    24  H    2.359871   2.003671   1.096072   2.162536   4.780118
    25  H    6.697013   7.302439   6.493769   6.061799   1.072015
    26  H    5.329841   6.236017   5.732930   5.867509   1.911199
    27  H    6.079616   6.327788   5.363084   4.530314   1.958703
                   16         17         18         19         20
    16  C    0.000000
    17  C    2.032135   0.000000
    18  H    7.212251   6.404767   0.000000
    19  H    7.195375   5.503687   3.887633   0.000000
    20  H    2.334126   3.616328   6.101433   7.339485   0.000000
    21  H    3.840579   3.410590   3.493802   4.739724   2.925274
    22  H    4.976159   5.622089   4.564793   7.173967   2.800293
    23  H    6.575824   6.381049   2.224142   5.515350   4.959366
    24  H    4.013585   4.008498   4.154562   5.350571   3.004129
    25  H    2.239443   2.194462   8.520405   7.552360   4.500706
    26  H    1.096571   3.014276   8.079879   8.253363   2.583796
    27  H    2.986283   1.158408   7.008252   5.464533   4.756333
                   21         22         23         24         25
    21  H    0.000000
    22  H    3.012426   0.000000
    23  H    3.296258   2.773713   0.000000
    24  H    2.439841   2.722412   3.031529   0.000000
    25  H    5.293236   7.074721   8.342630   5.828464   0.000000
    26  H    4.639543   5.381036   7.308524   4.852010   2.481764
    27  H    4.293313   6.725369   7.264424   4.999967   2.168723
                   26         27
    26  H    0.000000
    27  H    3.831220   0.000000
 Stoichiometry    C14H10N2O
 Framework group  C1[X(C14H10N2O)]
 Deg. of freedom    75
 Full point group                 C1      NOp   1
 Largest Abelian subgroup         C1      NOp   1
 Largest concise Abelian subgroup C1      NOp   1
                         Standard orientation:                         
 ---------------------------------------------------------------------
 Center     Atomic      Atomic             Coordinates (Angstroms)
[...]
 945,0.00003007,-0.00067846,-0.00012172,-0.00120764,-0.00085229,0.00051
 203,-0.00020111,0.00377946,-0.00334075,0.00198264,0.00111274,-0.000314
 84,-0.00016482,0.00001954,0.00001947,0.00002404,-0.00000832,0.00005209
 ,0.00003564,0.05013972,0.04626112,0.00002489,0.00001876,-0.00000345,-0
 .00002786,-0.00001536,-0.00001038,0.00002619,0.00004821,0.00006401,0.0
 0004686,0.00002477,0.00002676,0.00000834,0.00005359,0.00018840,-0.0005
 9909,-0.00030984,-0.00048008,0.00169416,-0.00639521,0.00030326,0.02356
 335,0.00377470,-0.01345203,0.13184234,0.02013561,-0.15017308,-0.005386
 68,-0.00311081,0.00756051,0.00089016,0.00111743,0.00046488,-0.00001244
 ,0.00024635,0.00016685,-0.00246784,-0.00076483,0.00030250,-0.00003662,
 0.00021402,-0.00011803,0.00032077,-0.00037051,0.00058679,-0.00143564,0
 .00384091,-0.00024252,0.00111182,0.00086182,-0.00128228,0.00000232,0.0
 0000410,0.00000638,0.00003061,-0.00000893,0.00001080,-0.14806136,-0.01
 813090,0.15652045,0.00022074,0.00014196,0.00010608,-0.00044871,-0.0003
 1225,-0.00053798,0.00024181,0.00008311,0.00034536,-0.00006849,0.000135
 80,0.00008865,0.00012962,0.00006068,0.00003464,0.00022596,-0.00011343,
 0.00043580,0.00007121,-0.00021520,0.00128664,-0.00006858,-0.00055032,0
 .00009356,0.00228133,-0.02253700,0.00970011,-0.04481734,0.03129866,-0.
 01934953,-0.00201691,0.00302661,-0.00516703,-0.00055918,0.00255165,-0.
 00029950,-0.00942038,0.02122613,-0.01481955,0.00093727,0.00070163,-0.0
 0126617,0.00109322,0.00002887,-0.00085400,-0.00047926,0.00185580,-0.00
 018415,-0.00115053,-0.00081325,-0.00048590,0.00002805,0.00001169,0.000
 14169,0.00001307,-0.00000249,0.00000200,-0.00191242,0.00047442,-0.0007
 0858,0.05856277,-0.00008419,-0.00009960,0.00006646,0.00009930,0.000187
 99,-0.00002972,-0.00013553,0.00013310,-0.00031709,0.00025640,0.0000112
 7,-0.00001253,-0.00002372,0.00020702,0.00016208,0.00047410,0.00050769,
 -0.00019993,-0.00078161,-0.00099746,0.00100997,-0.00098465,0.00157934,
 0.00067410,-0.00160597,-0.02284591,0.00842069,0.03823539,-0.20769230,0
 .11345539,-0.00309060,0.00835893,-0.00487046,-0.00116466,0.00106898,-0
 .00257530,0.00352390,-0.00893959,0.00496126,-0.00015298,0.00020465,0.0
 0039523,0.00025805,-0.00029172,-0.00033295,-0.00047517,0.00095574,-0.0
 0123055,-0.00070063,-0.00036725,0.00001656,0.00000890,0.00003008,-0.00
 000630,0.00002122,-0.00002459,0.00000313,-0.00058746,-0.00144120,-0.00
 028039,-0.03502010,0.23027899,-0.00013344,-0.00009374,0.00018985,0.000
 04884,0.00006595,-0.00034369,0.00021732,-0.00010866,0.00008112,0.00013
 747,-0.00001122,0.00004831,0.00000369,0.00005034,0.00020946,-0.0001540
 7,0.00008651,-0.00017863,-0.00075568,-0.00022489,0.00107444,-0.0001303
 1,-0.00220461,-0.00147483,0.00100984,-0.00255898,0.00414819,-0.0251260
 5,0.11734346,-0.11299991,-0.01313178,0.02036673,-0.02124774,0.00055698
 ,-0.00221082,-0.00372858,0.00380866,-0.00822301,0.00414018,0.00034091,
 0.00004206,0.00018932,0.00074575,-0.00008106,-0.00092793,0.00047429,0.
 00121165,0.00069163,-0.00090026,-0.00073608,-0.00042222,0.00003828,0.0
 0003145,0.00012532,-0.00000140,0.00001477,0.00001488,0.00007366,0.0000
 1854,0.00021163,0.03138550,-0.12017962,0.12945639,-0.00003390,-0.00002
 542,0.00004649,0.00001181,-0.00001908,-0.00010898,0.00006429,0.0000065
 8,-0.00013410,-0.00001559,0.00009202,-0.00000288,0.00014057,-0.0000392
 0,0.00013612,-0.00033724,-0.00015438,0.00042082,-0.00004340,0.00001622
 ,0.00007974,-0.00050728,-0.00035374,0.00001523,0.00126876,0.00047835,-
 0.00013748,0.00688710,-0.00454278,-0.00628081,-0.12253463,0.05026855,0
 .10226008,0.00226028,0.00925249,0.01972007,-0.00287656,0.00093278,0.00
 080646,0.00133106,0.00093908,0.00025769,0.00003474,-0.00001471,-0.0000
 5804,0.00008729,0.00005221,-0.00001707,-0.00001276,-0.00005399,-0.0000
 2400,0.00002491,0.00001908,0.00004955,-0.00001393,0.00001282,-0.000002
 33,-0.00036566,-0.00005398,0.00013733,0.00013934,0.00046326,0.00006360
 ,0.11419235,0.00012263,0.00003241,-0.00007495,-0.00010666,-0.00005015,
 0.00012848,-0.00013877,-0.00020435,-0.00015708,-0.00007415,0.00006403,
 -0.00006174,-0.00009901,0.00003063,-0.00041831,0.00047354,0.00014289,0
 .00006092,0.00008577,0.00003749,-0.00009725,-0.00026562,-0.00021157,0.
 00003857,0.00046399,0.00012817,-0.00005797,0.00224300,-0.00054861,0.00
 108680,0.05239554,-0.08025301,-0.09498893,-0.00018210,0.00373058,-0.00
 357364,0.00254462,0.01108068,-0.00654326,0.00103044,-0.00130962,-0.001
 37163,-0.00006012,-0.00001179,0.00006376,-0.00006338,-0.00005892,-0.00
 005717,0.00003045,0.00003966,0.00002615,-0.00002490,0.00003349,-0.0000
 7385,-0.00002514,0.00000511,-0.00003871,-0.00025612,-0.00011660,-0.000
 09939,0.00017765,-0.00028835,-0.00028339,-0.05729088,0.06941606,0.0001
 5171,0.00012463,0.00008523,-0.00032475,-0.00028412,-0.00042921,0.00017
 735,0.00014805,0.00013936,-0.00013522,-0.00005441,-0.00023935,0.000305
 93,0.00018197,-0.00014845,-0.00018100,-0.00003466,0.00037342,0.0000055
 1,0.00013278,0.00018412,-0.00040838,-0.00044365,-0.00004441,0.00082613
 ,0.00047388,-0.00023665,0.01195563,-0.00335147,-0.00289026,0.10829314,
 -0.09304601,-0.24038197,-0.00491679,-0.00196380,0.00114328,0.00060945,
 -0.00471584,-0.00267531,0.00077723,-0.00059793,0.00093740,0.00005403,-
 0.00000768,-0.00011336,0.00011718,0.00006568,0.00001612,-0.00005925,-0
 .00010514,-0.00005506,0.00001064,0.00000919,0.00016099,-0.00001417,0.0
 0001903,-0.00001558,-0.00042704,-0.00035732,-0.00010611,-0.00000157,0.
 00037421,-0.00021350,-0.11787610,0.10258377,0.24547998,0.00005476,0.00
 007184,0.00025321,-0.00043198,-0.00034431,-0.00060718,0.00015517,0.000
 12062,0.00013673,-0.00003017,-0.00000024,-0.00006876,0.00012163,0.0000
 7603,0.00002708,-0.00002893,0.00009924,0.00024246,-0.00023259,0.000020
 79,0.00017726,-0.00020906,-0.00032498,-0.00004485,0.00013637,0.0008381
 2,-0.00118275,-0.00469722,-0.00082067,-0.00066563,-0.00638830,-0.00592
 590,-0.01695190,-0.27618064,-0.03479000,-0.11537758,0.00202170,0.00132
 858,0.00392821,0.00021599,-0.00011588,-0.00026281,0.00007132,-0.000030
 91,-0.00014536,0.00022133,-0.00002505,0.00005235,-0.00009963,-0.000142
 95,-0.00003102,-0.00006554,-0.00008419,0.00059973,0.00000305,0.0000068
 1,0.00000028,-0.00003699,0.00003082,-0.00000030,-0.00039130,0.00006324
 ,-0.00043583,0.00019769,-0.00023211,0.00043081,0.28565884,0.00012205,0
 .00006414,-0.00004988,-0.00015165,-0.00014093,0.00002598,-0.00001623,-
 0.00000461,-0.00010116,0.00001279,-0.00001062,0.00001378,-0.00003617,-
 0.00006866,-0.00017818,-0.00006984,0.00014015,-0.00015978,0.00015782,0
 .00000070,0.00010737,0.00034741,0.00002151,-0.00044660,0.00090493,0.00
 039393,0.00191044,0.00136816,0.00939814,-0.00625426,0.00537972,0.00606
 784,0.00158521,-0.03592373,-0.04736460,-0.02874175,-0.00903139,0.00093
 301,-0.00056153,-0.00035984,-0.00013025,0.00056909,0.00009779,0.000015
 90,-0.00006069,-0.00020393,0.00029301,0.00017213,-0.00008300,-0.000050
 72,-0.00003575,-0.00027226,-0.00001495,0.00036588,-0.00001060,0.000007
 45,-0.00002224,-0.00004764,0.00002040,-0.00012463,-0.00212949,-0.00035
 316,-0.00140884,-0.00036040,-0.00278053,0.00147887,0.04013431,0.033932
 23,-0.00021083,-0.00007393,0.00100175,-0.00032535,-0.00043404,-0.00248
 051,0.00046804,0.00028401,0.00015702,0.00007568,0.00003801,-0.00039246
 ,0.00027272,0.00006712,-0.00014956,0.00056312,0.00034282,-0.00035710,-
 0.00017461,0.00012594,0.00031731,0.00004058,0.00011606,0.00001546,-0.0
 0158016,0.00076982,0.00023993,-0.00221452,-0.00675028,0.00038191,0.006
 69659,0.00039339,0.00788941,-0.12073197,-0.03043829,-0.11987227,-0.012
 40340,0.00308417,-0.00019147,-0.00167779,-0.00071166,0.00115571,0.0000
 6183,-0.00003678,-0.00013422,0.00014881,0.00004644,0.00004241,-0.00009
 695,-0.00007743,-0.00003961,0.00043198,0.00037174,0.00046040,-0.000024
 54,-0.00000080,-0.00004048,-0.00023578,-0.00035329,-0.00002831,0.00081
 308,0.00041502,0.00105303,0.00009545,0.00157586,-0.00013768,0.13026364
 ,0.03152712,0.11110236,-0.00021002,-0.00011497,-0.00005797,0.00051715,
 0.00000143,0.00034003,0.00008493,0.00043244,0.00089084,-0.00035426,0.0
 0047719,0.00021256,-0.00050650,0.00007421,0.00043086,-0.00008369,-0.00
 028156,-0.00180043,0.00086645,0.00018470,-0.00034895,-0.00008935,-0.00
 037936,-0.00033349,0.00048277,0.00206499,0.00038007,-0.00701825,0.0291
 4302,-0.00187908,-0.00232912,0.00073980,-0.00262442,0.00257389,-0.0125
 7590,-0.00026848,-0.03844810,0.00347528,-0.00126413,-0.00006073,-0.014
 93468,0.00732443,-0.00006821,0.00005603,0.00007449,-0.00006339,-0.0002
 1411,-0.00014773,-0.00004596,-0.00005407,0.00003155,0.00001354,0.00000
 342,-0.00011539,-0.00002026,0.00007855,0.00011802,0.00000252,0.0001328
 7,0.00005722,-0.00267916,0.00125992,0.00182302,0.00010799,-0.00073154,
 0.00065958,-0.00003622,0.00018018,-0.00025221,0.04735926,0.00002496,0.
 00001691,-0.00004609,-0.00010377,-0.00002991,-0.00007157,0.00185024,0.
 00059267,0.00003294,0.00012194,0.00023696,0.00046084,-0.00029528,-0.00
 009043,0.00064957,-0.00217620,0.00022550,-0.00155274,0.00097309,0.0005
 8384,0.00072801,-0.00099930,-0.00014430,-0.00042361,-0.00126353,0.0001
 4609,-0.00015332,0.00151605,-0.00834722,0.00026692,-0.00130206,0.00106
 221,-0.00059024,0.00151844,-0.01383575,-0.00444533,0.01099686,-0.29005
 839,0.03753137,-0.00246631,-0.00831053,0.00696381,0.00061399,0.0000718
 1,-0.00058584,0.00013240,0.00082326,0.00060495,-0.00049969,-0.00055641
 ,-0.00037088,0.00001208,-0.00003331,-0.00000523,0.00001912,0.00006751,
 0.00006577,-0.00005683,0.00016416,-0.00006731,0.00008080,-0.00004226,-
 0.00084199,0.00038240,0.00109470,-0.00061051,0.00003136,-0.00034401,-0
 .00027362,-0.00908604,0.31677305,0.00037951,0.00035141,0.00010740,-0.0
 0099801,-0.00052720,-0.00076020,-0.00115439,-0.00000062,-0.00044646,-0
 .00029465,-0.00140898,-0.00174540,0.00229181,0.00091130,-0.00230723,0.
 00012440,0.00028165,0.00284892,0.00054574,0.00037478,-0.00001212,-0.00
 033197,0.00030386,-0.00002661,-0.00022863,-0.00016388,0.00066584,-0.00
 087450,-0.00109867,-0.00094179,-0.00123804,-0.00362707,-0.00212039,0.0
 0380829,-0.02711218,-0.00250277,-0.00094130,0.03578657,-0.04506536,0.0
 0309459,0.03126284,-0.01097108,-0.00012921,0.00007163,0.00013816,-0.00
 031235,-0.00022033,-0.00013188,-0.00011167,-0.00037067,-0.00002574,0.0
 0005819,-0.00000456,0.00028429,0.00008861,-0.00034109,-0.00019000,0.00
 002925,0.00000278,-0.00007431,-0.00084320,0.00005277,-0.00012231,0.000
 57613,0.00233914,-0.00080391,-0.00029753,0.00034911,0.00004169,-0.0032
 7027,-0.03724625,0.06410717,-0.00014337,-0.00011455,0.00001075,0.00017
 216,0.00017678,0.00015584,-0.00037477,-0.00017070,-0.00007732,-0.00012
 114,-0.00011123,-0.00010276,0.00016873,0.00008399,-0.00025704,-0.00017
 148,-0.00119580,-0.00124520,-0.00301553,-0.00183119,0.00226762,0.00195
 826,-0.00377606,0.00464772,0.00068871,0.00016483,-0.00015094,-0.000352
 00,0.00074397,-0.00042695,-0.00000830,0.00001395,0.00002846,0.00000669
 ,0.00001010,0.00002827,-0.00004448,-0.00003861,0.00009336,0.00011893,-
 0.00000793,0.00060093,-0.11535684,-0.10094288,-0.07387157,0.00905592,0
 .00739543,0.00635593,-0.00451209,-0.01270860,-0.01618348,-0.00000247,-
 0.00000730,-0.00004143,-0.00001731,0.00000161,-0.00001182,0.00021293,-
 0.00027645,0.00016050,0.00014658,0.00013312,0.00005957,0.00000483,-0.0
 0000887,-0.00000608,-0.00001188,0.00000640,-0.00000511,-0.00000211,0.0
 0001995,-0.00001313,0.11245424,-0.00010095,-0.00006022,0.00001234,0.00
 013788,0.00008466,0.00007820,-0.00011546,-0.00017910,-0.00003086,-0.00
 005611,-0.00002545,-0.00003336,0.00005038,0.00002074,-0.00013593,-0.00
 062049,0.00020355,-0.00088849,-0.00171163,0.00025680,0.00056422,-0.003
 67928,0.00561854,-0.00388731,-0.00018340,0.00001856,-0.00020963,0.0006
 0171,-0.00082029,0.00065041,0.00007655,-0.00001073,-0.00010418,0.00004
 968,0.00004676,0.00000463,-0.00000099,0.00008264,0.00005840,0.00006495
 ,0.00003034,0.00021155,-0.10031478,-0.17463349,-0.11893432,-0.00518136
 ,-0.00083285,-0.00122596,-0.00100089,-0.00454502,-0.00747006,-0.000000
 92,-0.00000104,-0.00002109,-0.00000388,-0.00000849,-0.00000501,-0.0002
 7821,0.00037871,-0.00028166,-0.00020481,-0.00012266,-0.00002667,0.0000
 0404,-0.00000716,-0.00001040,0.00001795,-0.00002639,0.00000435,0.00002
 023,-0.00001840,-0.00000185,0.11001366,0.17698642,-0.00000582,-0.00000
 649,0.00001903,0.00001739,0.00001232,-0.00004629,0.00003720,0.00005089
 ,0.00006980,0.00001012,-0.00000143,0.00001156,-0.00009160,-0.00009164,
 0.00008098,0.00039030,0.00019462,0.00101678,0.00260843,0.00056924,-0.0
 0115306,0.00451576,-0.00407195,-0.00281961,-0.00130007,-0.00102497,0.0
 0015123,-0.00007511,0.00036503,-0.00081818,-0.00008970,-0.00009878,0.0
 0015256,-0.00008400,-0.00003999,-0.00003631,0.00001348,-0.00004410,-0.
 00003537,0.00012831,0.00015585,-0.00014224,-0.07269864,-0.11817659,-0.
 15020370,-0.01645567,-0.01767043,-0.00625609,0.00508850,0.00838825,0.0
 0851038,0.00000240,0.00000246,0.00001000,0.00000302,0.00000472,0.00000
 107,0.00015591,-0.00018523,0.00013952,0.00008405,0.00004002,0.00002180
 ,-0.00001705,-0.00000417,-0.00002613,-0.00002800,0.00003516,-0.0000168
 9,0.00000720,0.00000182,0.00002054,0.07940157,0.12992402,0.15142215,0.
 00000561,-0.00000059,-0.00000335,-0.00001256,0.00000316,-0.00002584,0.
 00013998,0.00008407,-0.00019383,0.00002703,0.00016339,0.00033127,-0.00
 042780,-0.00054666,-0.00005169,0.00098588,-0.00013992,0.00152923,-0.00
 187149,-0.00162305,-0.00190999,-0.00856164,-0.00003974,0.00996123,-0.0
 0000354,0.00127496,0.00026989,0.00004082,-0.00016367,-0.00027262,-0.00
 002945,-0.00000843,0.00002052,-0.00002176,-0.00000427,-0.00002474,0.00
 012194,-0.00000888,-0.00002849,-0.00009610,-0.00007040,-0.00005084,-0.
 00138535,-0.00337187,-0.00069664,-0.23063152,-0.08208367,0.13034875,0.
 00261346,-0.00190922,0.00281336,-0.00000171,-0.00000345,0.00000021,-0.
 00004817,0.00000034,-0.00001870,0.00026108,-0.00047378,-0.00052018,-0.
 00004557,0.00000207,-0.00003598,-0.00000521,-0.00001527,-0.00001723,-0
 .00001498,-0.00001105,-0.00000628,0.00001434,-0.00001607,0.00005484,-0
 .00110885,0.00209363,-0.00081307,0.23987579,-0.00007664,-0.00005121,0.
 00001128,0.00011232,0.00007843,0.00006992,-0.00023590,-0.00007304,0.00
 007176,0.00002018,-0.00024698,-0.00004740,-0.00024570,0.00051648,-0.00
 018135,-0.00146706,0.00103588,0.00009152,-0.00097377,-0.00287257,-0.00
 121268,-0.01158920,-0.00277043,0.01235863,0.00064685,0.00033029,0.0015
 1227,0.00001694,0.00001589,-0.00015682,-0.00003091,-0.00001226,0.00000
 690,-0.00000714,-0.00000867,-0.00000859,0.00006318,0.00003449,-0.00004
 746,0.00028012,0.00001876,0.00013553,0.00943491,0.00670390,-0.00519240
 ,-0.08293416,-0.06635472,0.03789970,-0.00256705,0.00281401,-0.00404868
 ,-0.00000109,0.00000237,-0.00001606,0.00003837,-0.00007412,0.00000116,
 0.00033647,0.00001217,-0.00067688,0.00001054,-0.00000515,0.00001569,-0
 .00000923,-0.00000897,-0.00000931,0.00000031,-0.00001106,0.00000281,0.
 00002633,-0.00002498,-0.00006563,0.00162286,-0.00221488,0.00194884,0.0
 8730819,0.06225862,0.00007255,0.00004751,-0.00001759,-0.00010468,-0.00
 007449,-0.00004775,0.00016980,0.00010656,-0.00006186,-0.00003590,0.000
 09785,0.00024529,-0.00018109,-0.00028463,-0.00001815,0.00055392,-0.000
 16329,0.00139832,-0.00231589,-0.00207734,-0.00206384,-0.01065988,-0.00
 339578,0.00711020,-0.00047546,0.00093549,0.00093494,0.00001658,0.00008
 949,-0.00004461,-0.00000321,-0.00001066,-0.00006088,0.00002106,-0.0000
 1265,-0.00000115,0.00007601,0.00000552,-0.00002683,-0.00006190,-0.0000
 4612,-0.00008371,0.02094490,0.01176395,-0.00478217,0.13024613,0.037187
 04,-0.13478293,0.00247521,-0.00384601,-0.00339312,-0.00000099,0.000000
 84,0.00001249,-0.00003948,0.00000064,-0.00001787,0.00044048,0.00008777
 ,-0.00004907,0.00001509,0.00003207,-0.00000035,-0.00000397,-0.00000621
 ,0.00000134,0.00000277,-0.00000463,0.00000277,0.00000180,-0.00000562,0
 .00002676,-0.00165208,0.00132476,0.00005810,-0.14076147,-0.04218615,0.
 13531211,0.00003773,0.00004150,-0.00000157,-0.00004787,-0.00016608,-0.
 00003741,0.00000804,-0.00001198,0.00032741,-0.00057916,-0.00001267,-0.
 00027016,-0.00068583,-0.00069087,-0.00043218,-0.00097463,0.00240820,-0
 .00014198,0.01003023,-0.00282161,-0.00901240,0.00090636,-0.00539064,0.
 00007900,0.00106998,0.00036234,-0.00003474,0.00012158,-0.00019224,0.00
 024632,0.00001353,0.00003594,0.00001875,-0.00002102,-0.00000942,0.0000
 0041,0.00004364,0.00007247,-0.00006721,-0.00000245,0.00017044,0.000285
 30,-0.00333736,0.00651899,0.01823842,-0.00338428,-0.00311521,0.0012376
 8,-0.11913543,0.00782096,0.12992275,-0.00001565,0.00002621,0.00001304,
 0.00007529,-0.00009818,-0.00000448,-0.00037892,0.00050697,-0.00066027,
 -0.00003314,0.00000840,0.00001742,-0.00000684,0.00000703,-0.00000674,-
 0.00000241,-0.00000433,0.00000796,-0.00000750,-0.00002860,-0.00001252,
 0.00025464,0.00032250,-0.00080490,0.00017977,0.00022029,0.00125973,0.1
 1587169,0.00007243,0.00001639,0.00001455,-0.00018638,0.00003435,-0.000
 02134,0.00000543,-0.00006798,0.00045882,-0.00015452,-0.00035974,0.0001
 7000,-0.00028737,-0.00042851,-0.00073202,0.00222544,-0.00163468,0.0018
 8066,0.00848456,0.00496299,-0.01601531,-0.00480346,0.00198212,-0.00473
 838,0.00062347,0.00065000,-0.00043680,-0.00009280,0.00032398,-0.000087
 47,-0.00002449,-0.00004241,0.00004634,-0.00004973,-0.00004687,0.000007
 38,0.00010595,0.00004727,0.00004080,0.00053359,0.00033363,0.00023295,-
 0.00374080,0.00465838,0.01295117,-0.00334118,-0.00069221,0.00033991,0.
 00565842,-0.04785549,-0.03221647,0.00004049,-0.00000403,0.00004951,-0.
 00011185,0.00006421,-0.00000923,0.00061045,-0.00097363,0.00029639,0.00
 003233,-0.00001259,-0.00005357,-0.00000208,0.00001371,0.00000019,-0.00
 000280,0.00001208,-0.00001458,0.00002162,-0.00002276,0.00010115,0.0008
 0350,-0.00022156,-0.00027748,-0.00043984,0.00090776,0.00043408,-0.0059
 8040,0.03835559,0.00011374,0.00012543,-0.00004148,-0.00017951,-0.00032
 157,-0.00003949,0.00033592,0.00024589,0.00018636,-0.00043767,0.0000590
 3,0.00038006,0.00056060,0.00116615,0.00034342,0.00036455,0.00222116,-0
 .00099851,0.01343230,0.00068263,-0.01044285,0.00060391,-0.00413379,-0.
 00128916,0.00098396,0.00026114,-0.00035785,0.00004180,0.00001153,0.000
 16236,-0.00003639,0.00000625,0.00005540,-0.00004983,-0.00005951,-0.000
 03001,0.00004299,-0.00005665,-0.00010620,-0.00024174,-0.00018031,-0.00
 011662,-0.00244722,-0.00126620,0.00134330,-0.00002113,-0.00070633,0.00
 011685,0.12705401,-0.03590303,-0.28071225,-0.00000660,0.00003998,0.000
 04669,0.00002926,-0.00005052,0.00000475,-0.00029017,0.00016863,-0.0005
 3308,-0.00001509,-0.00004415,0.00000414,-0.00000195,0.00000419,-0.0000
 0432,-0.00001503,0.00000978,-0.00002056,0.00001088,-0.00001583,0.00000
 679,0.00023439,0.00043391,-0.00013163,0.00010164,-0.00027660,0.0003495
 8,-0.14016761,0.03757877,0.29182432\\-0.00002067,-0.00006342,0.0000090
 9,0.00001333,0.00016184,-0.00003072,-0.00001241,-0.00002628,-0.0000294
 8,0.00006232,0.00002521,0.00004655,-0.00006714,-0.00009635,0.00005048,
 0.00007030,0.00011489,-0.00009360,-0.00007749,-0.00001944,-0.00002656,
 0.00002658,0.00000075,-0.00003935,0.00004328,0.00001073,-0.00001897,0.
 00002592,-0.00009847,-0.00004710,0.00003866,0.00004758,-0.00002255,-0.
 00000426,0.00003617,0.00007845,-0.00002058,-0.00005620,-0.00008400,-0.
 00005942,-0.00003474,0.00005725,-0.00001850,-0.00002347,-0.00002303,-0
 .00000147,-0.00004046,0.00006443,0.00006633,0.00006048,0.00003474,0.00
 000615,-0.00005353,-0.00000129,-0.00001462,-0.00000649,0.00000566,-0.0
 0000315,0.00000859,0.00002119,-0.00002742,0.00004670,0.00001500,0.0000
 1497,-0.00000363,0.00001328,-0.00000690,0.00000646,0.00002215,-0.00001
 979,-0.00001849,0.00003189,-0.00001363,0.00000066,-0.00000316,-0.00001
 793,0.00001566,-0.00000965,0.00001754,0.00000524,-0.00002069\\\@


 FIREWORKS ENDED
 AND SPECTATORS GONE AWAY....
 AH, HOW VAST AND DARK
                     SHIKI
 Job cpu time:       0 days 11 hours 19 minutes 39.0 seconds.
 Elapsed time:       0 days  2 hours 49 minutes 56.9 seconds.
 File lengths (MBytes):  RWF=    544 Int=      0 D2E=      0 Chk=     23 Scr=      1
 Normal termination of Gaussian 16 at Wed May 17 21:37:09 2023.
### All Done ###
