### Starting Gaussian ###
 Entering Gaussian System, Link 0=g16
 Initial command:
 /cluster/software/gaussian/gaussian-16-A.03/avx2/g16/l1.exe "/local/scratch/cz9n3/Gau-9443.inp" -scrdir="/local/scratch/cz9n3/"
 Entering Link 1 = /cluster/software/gaussian/gaussian-16-A.03/avx2/g16/l1.exe PID=      9444.
  
 Copyright (c) 1988,1990,1992,1993,1995,1998,2003,2009,2016,
            Gaussian, Inc.  All Rights Reserved.
  
 This is part of the Gaussian(R) 16 program.  It is based on
 the Gaussian(R) 09 system (copyright 2009, Gaussian, Inc.),
 the Gaussian(R) 03 system (copyright 2003, Gaussian, Inc.),
 the Gaussian(R) 98 system (copyright 1998, Gaussian, Inc.),
 the Gaussian(R) 94 system (copyright 1995, Gaussian, Inc.),
 the Gaussian 92(TM) system (copyright 1992, Gaussian, Inc.),
 the Gaussian 90(TM) system (copyright 1990, Gaussian, Inc.),
 the Gaussian 88(TM) system (copyright 1988, Gaussian, Inc.),
 the Gaussian 86(TM) system (copyright 1986, Carnegie Mellon
 University), and the Gaussian 82(TM) system (copyright 1983,
 Carnegie Mellon University). Gaussian is a federally registered
 trademark of Gaussian, Inc.
  
 This software contains proprietary and confidential information,
 including trade secrets, belonging to Gaussian, Inc.
  
 This software is provided under written license and may be
 used, copied, transmitted, or stored only in accord with that
 written license.
  
 The following legend is applicable only to US Government
 contracts under FAR:
  
                    RESTRICTED RIGHTS LEGEND
  
 Use, reproduction and disclosure by the US Government is
 subject to restrictions as set forth in subparagraphs (a)
 and (c) of the Commercial Computer Software - Restricted
 Rights clause in FAR 52.227-19.
  
 Gaussian, Inc.
 340 Quinnipiac St., Bldg. 40, Wallingford CT 06492
  
  
 ---------------------------------------------------------------
 Warning -- This program may not be used in any manner that
 competes with the business of Gaussian, Inc. or will provide
 assistance to any competitor of Gaussian, Inc.  The licensee
 of this program is prohibited from giving any competitor of
 Gaussian, Inc. access to this program.  By using this program,
 the user acknowledges that Gaussian, Inc. is engaged in the
 business of creating and licensing software in the field of
 computational chemistry and represents and warrants to the
 licensee that it is not a competitor of Gaussian, Inc. and that
 it will not use this program in any manner prohibited above.
 ---------------------------------------------------------------
  

 Cite this work as:
 Gaussian 16, Revision A.03,
 M. J. Frisch, G. W. Trucks, H. B. Schlegel, G. E. Scuseria, 
 M. A. Robb, J. R. Cheeseman, G. Scalmani, V. Barone, 
 G. A. Petersson, H. Nakatsuji, X. Li, M. Caricato, A. V. Marenich, 
 J. Bloino, B. G. Janesko, R. Gomperts, B. Mennucci, H. P. Hratchian, 
 J. V. Ortiz, A. F. Izmaylov, J. L. Sonnenberg, D. Williams-Young, 
 F. Ding, F. Lipparini, F. Egidi, J. Goings, B. Peng, A. Petrone, 
 T. Henderson, D. Ranasinghe, V. G. Zakrzewski, J. Gao, N. Rega, 
 G. Zheng, W. Liang, M. Hada, M. Ehara, K. Toyota, R. Fukuda, 
 J. Hasegawa, M. Ishida, T. Nakajima, Y. Honda, O. Kitao, H. Nakai, 
 T. Vreven, K. Throssell, J. A. Montgomery, Jr., J. E. Peralta, 
 F. Ogliaro, M. J. Bearpark, J. J. Heyd, E. N. Brothers, K. N. Kudin, 
 V. N. Staroverov, T. A. Keith, R. Kobayashi, J. Normand, 
 K. Raghavachari, A. P. Rendell, J. C. Burant, S. S. Iyengar, 
 J. Tomasi, M. Cossi, J. M. Millam, M. Klene, C. Adamo, R. Cammi, 
 J. W. Ochterski, R. L. Martin, K. Morokuma, O. Farkas, 
 J. B. Foresman, and D. J. Fox, Gaussian, Inc., Wallingford CT, 2016.
 
 ******************************************
 Gaussian 16:  ES64L-G16RevA.03 25-Dec-2016
                19-May-2023 
 ******************************************
 %chk=OdCCSC1dNCdCSSCNdCC1dS.chk
 %NProcShared=20
 Will use up to   20 processors via shared memory.
 -----------------------------
 # opt freq b3lyp/6-31g(2df,p)
 -----------------------------
 1/18=20,19=15,26=3,38=1/1,3;
 2/9=110,12=2,17=6,18=5,40=1/2;
 3/5=1,6=6,7=104,11=2,25=1,30=1,71=1,74=-5/1,2,3;
 4//1;
 5/5=2,38=5/2;
 6/7=2,8=2,9=2,10=2,28=1/1;
 7//1,2,3,16;
 1/18=20,19=15,26=3/3(2);
 2/9=110/2;
 99//99;
 2/9=110/2;
 3/5=1,6=6,7=104,11=2,25=1,30=1,71=1,74=-5/1,2,3;
 4/5=5,16=3,69=1/1;
 5/5=2,38=5/2;
 7//1,2,3,16;
 1/18=20,19=15,26=3/3(-5);
 2/9=110/2;
 6/7=2,8=2,9=2,10=2,19=2,28=1/1;
 99/9=1/99;
 -------------------
 Title Card Required
 -------------------
 Symbolic Z-matrix:
 Charge =  0 Multiplicity = 1
 O                     1.08516  -0.07966   0.04495 
 C                     2.33904  -0.04799   0.06426 
 C                     3.22995   1.1586    0.79989 
 S                     5.5389    1.57143   1.05159 
 C                     7.05367   3.16239   2.02155 
 N                     7.52404   2.11976   1.38589 
 C                     8.17315   3.03598   1.94449 
 C                     9.37565   2.71633   1.7496 
 S                     10.61122   3.40432   2.16905 
 S                     12.33753   3.68788   2.34193 
 C                     11.57894   5.76996   3.61133 
 N                     12.7049   4.83804   3.04316 
 C                     10.94307   5.19694   3.26197 
 C                     8.86645   4.43702   2.79867 
 S                     6.29304   4.30355   2.71729 
 H                     2.85341  -0.8677   -0.4355 
 H                     2.81222   1.07185   1.79997 
 H                     2.81222   2.00787   0.26471 
 H                     7.66829   4.4152    2.78537 
 H                     9.84104   2.00638   1.31676 
 H                     12.47665   5.60557   4.71707 
 H                     12.47664   6.67759   2.95873 
 H                     12.76714   5.26978   3.30638 
 
 Add virtual bond connecting atoms H22        and C11        Dist= 2.71D+00.
 Add virtual bond connecting atoms H22        and H23        Dist= 2.79D+00.
 Add virtual bond connecting atoms H21        and C11        Dist= 2.71D+00.
 Add virtual bond connecting atoms H21        and H23        Dist= 2.79D+00.
 Add virtual bond connecting atoms N6         and S4         Dist= 3.94D+00.
 Add virtual bond connecting atoms S4         and C3         Dist= 4.46D+00.

 GradGradGradGradGradGradGradGradGradGradGradGradGradGradGradGradGradGrad
 Berny optimization.
 Initialization pass.
                           ----------------------------
                           !    Initial Parameters    !
                           ! (Angstroms and Degrees)  !
 --------------------------                            --------------------------
 ! Name  Definition              Value          Derivative Info.                !
 --------------------------------------------------------------------------------
 ! R1    R(1,2)                  1.2544         estimate D2E/DX2                !
 ! R2    R(2,3)                  1.6705         estimate D2E/DX2                !
 ! R3    R(2,16)                 1.0892         estimate D2E/DX2                !
 ! R4    R(3,4)                  2.359          estimate D2E/DX2                !
 ! R5    R(3,17)                 1.0873         estimate D2E/DX2                !
 ! R6    R(3,18)                 1.0873         estimate D2E/DX2                !
 ! R7    R(4,6)                  2.0864         estimate D2E/DX2                !
 ! R8    R(5,6)                  1.3086         estimate D2E/DX2                !
 ! R9    R(5,7)                  1.1292         estimate D2E/DX2                !
 ! R10   R(5,15)                 1.5378         estimate D2E/DX2                !
 ! R11   R(6,7)                  1.2541         estimate D2E/DX2                !
 ! R12   R(7,8)                  1.2594         estimate D2E/DX2                !
 ! R13   R(7,14)                 1.7813         estimate D2E/DX2                !
 ! R14   R(8,9)                  1.4751         estimate D2E/DX2                !
 ! R15   R(8,20)                 0.9529         estimate D2E/DX2                !
 ! R16   R(9,10)                 1.758          estimate D2E/DX2                !
 ! R17   R(9,13)                 2.1256         estimate D2E/DX2                !
 ! R18   R(9,14)                 2.123          estimate D2E/DX2                !
 ! R19   R(10,12)                1.3963         estimate D2E/DX2                !
 ! R20   R(11,12)                1.5681         estimate D2E/DX2                !
 ! R21   R(11,13)                0.9245         estimate D2E/DX2                !
 ! R22   R(11,21)                1.4337         estimate D2E/DX2                !
 ! R23   R(11,22)                1.4337         estimate D2E/DX2                !
 ! R24   R(12,23)                0.5095         estimate D2E/DX2                !
 ! R25   R(14,19)                1.1984         estimate D2E/DX2                !
 ! R26   R(15,19)                1.3815         estimate D2E/DX2                !
 ! R27   R(21,23)                1.4789         estimate D2E/DX2                !
 ! R28   R(22,23)                1.4789         estimate D2E/DX2                !
 ! A1    A(1,2,3)              123.9234         estimate D2E/DX2                !
 ! A2    A(1,2,16)             116.487          estimate D2E/DX2                !
 ! A3    A(3,2,16)             119.5896         estimate D2E/DX2                !
 ! A4    A(2,3,4)              134.0562         estimate D2E/DX2                !
 ! A5    A(2,3,17)              98.1934         estimate D2E/DX2                !
 ! A6    A(2,3,18)              98.1937         estimate D2E/DX2                !
 ! A7    A(4,3,17)             106.9695         estimate D2E/DX2                !
 ! A8    A(4,3,18)             106.9698         estimate D2E/DX2                !
 ! A9    A(17,3,18)            111.5588         estimate D2E/DX2                !
 ! A10   A(7,5,15)             127.178          estimate D2E/DX2                !
 ! A11   A(4,6,5)               86.8602         estimate D2E/DX2                !
 ! A12   A(4,6,7)              139.0966         estimate D2E/DX2                !
 ! A13   A(5,7,14)             105.3713         estimate D2E/DX2                !
 ! A14   A(6,7,8)              103.8769         estimate D2E/DX2                !
 ! A15   A(8,7,14)              84.3883         estimate D2E/DX2                !
 ! A16   A(7,8,9)              129.5967         estimate D2E/DX2                !
 ! A17   A(7,8,20)             136.529          estimate D2E/DX2                !
 ! A18   A(9,8,20)              93.8743         estimate D2E/DX2                !
 ! A19   A(8,9,10)             157.7792         estimate D2E/DX2                !
 ! A20   A(8,9,13)             132.0921         estimate D2E/DX2                !
 ! A21   A(8,9,14)              67.8405         estimate D2E/DX2                !
 ! A22   A(10,9,13)             70.1287         estimate D2E/DX2                !
 ! A23   A(10,9,14)            134.3803         estimate D2E/DX2                !
 ! A24   A(13,9,14)             64.2516         estimate D2E/DX2                !
 ! A25   A(9,10,12)            116.1441         estimate D2E/DX2                !
 ! A26   A(12,11,13)            89.3463         estimate D2E/DX2                !
 ! A27   A(12,11,21)            76.2146         estimate D2E/DX2                !
 ! A28   A(12,11,22)            76.2148         estimate D2E/DX2                !
 ! A29   A(13,11,21)           130.6185         estimate D2E/DX2                !
 ! A30   A(13,11,22)           130.6181         estimate D2E/DX2                !
 ! A31   A(21,11,22)            91.8103         estimate D2E/DX2                !
 ! A32   A(10,12,11)           118.8541         estimate D2E/DX2                !
 ! A33   A(11,12,23)            52.9084         estimate D2E/DX2                !
 ! A34   A(9,13,11)            145.5269         estimate D2E/DX2                !
 ! A35   A(7,14,9)              78.1744         estimate D2E/DX2                !
 ! A36   A(7,14,19)             65.8735         estimate D2E/DX2                !
 ! A37   A(9,14,19)            144.0479         estimate D2E/DX2                !
 ! A38   A(5,15,19)             65.7872         estimate D2E/DX2                !
 ! A39   A(11,21,23)            54.0813         estimate D2E/DX2                !
 ! A40   A(11,22,23)            54.0815         estimate D2E/DX2                !
 ! A41   A(12,23,21)           131.3943         estimate D2E/DX2                !
 ! A42   A(12,23,22)           131.3947         estimate D2E/DX2                !
 ! A43   A(21,23,22)            88.2527         estimate D2E/DX2                !
 ! A44   L(3,4,6,15,-1)        173.9006         estimate D2E/DX2                !
 ! A45   L(6,5,15,1,-1)        171.4218         estimate D2E/DX2                !
 ! A46   L(5,7,8,14,-1)        189.7596         estimate D2E/DX2                !
 ! A47   L(6,7,14,8,-1)        188.2653         estimate D2E/DX2                !
 ! A48   L(10,12,23,11,-1)     171.7625         estimate D2E/DX2                !
 ! A49   L(14,19,15,7,-1)      175.79           estimate D2E/DX2                !
 ! A50   L(3,4,6,15,-2)        180.0003         estimate D2E/DX2                !
 ! A51   L(6,5,15,1,-2)        179.9997         estimate D2E/DX2                !
 ! A52   L(5,7,8,14,-2)        180.0007         estimate D2E/DX2                !
 ! A53   L(6,7,14,8,-2)        179.9998         estimate D2E/DX2                !
 ! A54   L(10,12,23,11,-2)     180.0004         estimate D2E/DX2                !
 ! A55   L(14,19,15,7,-2)      180.0005         estimate D2E/DX2                !
 ! D1    D(1,2,3,4)            179.9999         estimate D2E/DX2                !
 ! D2    D(1,2,3,17)            56.6584         estimate D2E/DX2                !
 ! D3    D(1,2,3,18)           -56.6579         estimate D2E/DX2                !
 ! D4    D(16,2,3,4)            -0.0003         estimate D2E/DX2                !
 ! D5    D(16,2,3,17)         -123.3418         estimate D2E/DX2                !
 ! D6    D(16,2,3,18)          123.342          estimate D2E/DX2                !
 ! D7    D(2,3,6,5)            179.9998         estimate D2E/DX2                !
 ! D8    D(2,3,6,7)           -179.9999         estimate D2E/DX2                !
 ! D9    D(17,3,6,5)           -59.11           estimate D2E/DX2                !
 ! D10   D(17,3,6,7)           -59.1097         estimate D2E/DX2                !
 ! D11   D(18,3,6,5)            59.1089         estimate D2E/DX2                !
 ! D12   D(18,3,6,7)            59.1093         estimate D2E/DX2                !
 ! D13   D(15,5,8,9)            -0.0002         estimate D2E/DX2                !
 ! D14   D(15,5,8,20)          179.9999         estimate D2E/DX2                !
 ! D15   D(4,6,14,9)          -180.0            estimate D2E/DX2                !
 ! D16   D(4,6,14,19)            0.0            estimate D2E/DX2                !
 ! D17   D(4,6,15,19)          179.9996         estimate D2E/DX2                !
 ! D18   D(15,5,7,14)           -0.0005         estimate D2E/DX2                !
 ! D19   D(7,5,15,19)            0.0001         estimate D2E/DX2                !
 ! D20   D(4,6,7,8)           -179.9999         estimate D2E/DX2                !
 ! D21   D(6,7,8,9)           -180.0            estimate D2E/DX2                !
 ! D22   D(6,7,8,20)            -0.0004         estimate D2E/DX2                !
 ! D23   D(14,7,8,9)             0.0002         estimate D2E/DX2                !
 ! D24   D(14,7,8,20)          179.9997         estimate D2E/DX2                !
 ! D25   D(5,7,14,9)          -179.9994         estimate D2E/DX2                !
 ! D26   D(5,7,14,19)            0.0005         estimate D2E/DX2                !
 ! D27   D(8,7,14,9)            -0.0001         estimate D2E/DX2                !
 ! D28   D(8,7,14,19)          179.9999         estimate D2E/DX2                !
 ! D29   D(7,8,9,10)           179.9996         estimate D2E/DX2                !
 ! D30   D(7,8,9,13)            -0.0002         estimate D2E/DX2                !
 ! D31   D(7,8,9,14)            -0.0002         estimate D2E/DX2                !
 ! D32   D(20,8,9,10)           -0.0001         estimate D2E/DX2                !
 ! D33   D(20,8,9,13)         -179.9999         estimate D2E/DX2                !
 ! D34   D(20,8,9,14)         -179.9999         estimate D2E/DX2                !
 ! D35   D(8,9,10,12)         -179.9997         estimate D2E/DX2                !
 ! D36   D(13,9,10,12)           0.0001         estimate D2E/DX2                !
 ! D37   D(14,9,10,12)          -0.0001         estimate D2E/DX2                !
 ! D38   D(8,9,13,11)          179.9997         estimate D2E/DX2                !
 ! D39   D(10,9,13,11)          -0.0002         estimate D2E/DX2                !
 ! D40   D(14,9,13,11)         179.9996         estimate D2E/DX2                !
 ! D41   D(8,9,14,7)             0.0001         estimate D2E/DX2                !
 ! D42   D(8,9,14,19)            0.0            estimate D2E/DX2                !
 ! D43   D(10,9,14,7)         -179.9998         estimate D2E/DX2                !
 ! D44   D(10,9,14,19)        -179.9998         estimate D2E/DX2                !
 ! D45   D(13,9,14,7)         -180.0            estimate D2E/DX2                !
 ! D46   D(13,9,14,19)         180.0            estimate D2E/DX2                !
 ! D47   D(9,10,12,11)          -0.0001         estimate D2E/DX2                !
 ! D48   D(9,10,23,21)          63.4892         estimate D2E/DX2                !
 ! D49   D(9,10,23,22)         -63.4887         estimate D2E/DX2                !
 ! D50   D(13,11,12,10)          0.0            estimate D2E/DX2                !
 ! D51   D(13,11,12,23)        179.9996         estimate D2E/DX2                !
 ! D52   D(21,11,12,10)        132.3123         estimate D2E/DX2                !
 ! D53   D(21,11,12,23)        -47.6881         estimate D2E/DX2                !
 ! D54   D(22,11,12,10)       -132.3118         estimate D2E/DX2                !
 ! D55   D(22,11,12,23)         47.6878         estimate D2E/DX2                !
 ! D56   D(12,11,13,9)           0.0002         estimate D2E/DX2                !
 ! D57   D(21,11,13,9)         -71.1113         estimate D2E/DX2                !
 ! D58   D(22,11,13,9)          71.1121         estimate D2E/DX2                !
 ! D59   D(12,11,21,23)         14.5317         estimate D2E/DX2                !
 ! D60   D(13,11,21,23)         91.4755         estimate D2E/DX2                !
 ! D61   D(22,11,21,23)        -60.7998         estimate D2E/DX2                !
 ! D62   D(12,11,22,23)        -14.5316         estimate D2E/DX2                !
 ! D63   D(13,11,22,23)        -91.4758         estimate D2E/DX2                !
 ! D64   D(21,11,22,23)         60.7996         estimate D2E/DX2                !
 ! D65   D(11,12,23,21)         68.142          estimate D2E/DX2                !
 ! D66   D(11,12,23,22)        -68.1416         estimate D2E/DX2                !
 ! D67   D(7,14,15,5)           -0.0002         estimate D2E/DX2                !
 ! D68   D(9,14,15,5)            0.0003         estimate D2E/DX2                !
 ! D69   D(11,21,23,12)        -90.9541         estimate D2E/DX2                !
 ! D70   D(11,21,23,22)         57.8024         estimate D2E/DX2                !
 ! D71   D(11,22,23,12)         90.9536         estimate D2E/DX2                !
 ! D72   D(11,22,23,21)        -57.8027         estimate D2E/DX2                !
 --------------------------------------------------------------------------------
 Trust Radius=3.00D-01 FncErr=1.00D-07 GrdErr=1.00D-06 EigMax=2.50D+02 EigMin=1.00D-04
 Number of steps in this run=    138 maximum allowed number of steps=    138.
 GradGradGradGradGradGradGradGradGradGradGradGradGradGradGradGradGradGrad

                          Input orientation:                          
 ---------------------------------------------------------------------
 Center     Atomic      Atomic             Coordinates (Angstroms)
 Number     Number       Type             X           Y           Z
 ---------------------------------------------------------------------
      1          8           0        1.085160   -0.079660    0.044950
      2          6           0        2.339040   -0.047990    0.064260
      3          6           0        3.229950    1.158600    0.799890
      4         16           0        5.538900    1.571430    1.051590
      5          6           0        7.053670    3.162390    2.021550
      6          7           0        7.524040    2.119760    1.385890
      7          6           0        8.173150    3.035980    1.944490
      8          6           0        9.375650    2.716330    1.749600
      9         16           0       10.611220    3.404320    2.169050
     10         16           0       12.337530    3.687880    2.341930
     11          6           0       11.578940    5.769960    3.611330
     12          7           0       12.704900    4.838040    3.043160
     13          6           0       10.943070    5.196940    3.261970
     14          6           0        8.866450    4.437020    2.798670
     15         16           0        6.293040    4.303550    2.717290
     16          1           0        2.853410   -0.867700   -0.435500
     17          1           0        2.812220    1.071850    1.799970
     18          1           0        2.812220    2.007870    0.264710
     19          1           0        7.668290    4.415200    2.785370
     20          1           0        9.841040    2.006380    1.316760
     21          1           0       12.476650    5.605570    4.717070
     22          1           0       12.476640    6.677590    2.958730
     23          1           0       12.767140    5.269780    3.306380
 ---------------------------------------------------------------------
                    Distance matrix (angstroms):
                    1          2          3          4          5
     1  O    0.000000
     2  C    1.254429   0.000000
     3  C    2.589082   1.670548   0.000000
     4  S    4.855432   3.719737   2.359032   0.000000
     5  C    7.073963   6.030362   4.486475   2.401355   0.000000
     6  N    6.935037   5.773220   4.439193   2.086433   1.308583
     7  C    7.972143   6.861704   5.410166   3.143477   1.129227
     8  C    8.913788   7.745690   6.410780   4.064316   2.380025
     9  S   10.363191   9.207472   7.835879   5.507870   3.568816
    10  S   12.086617  10.913950   9.577221   7.236415   5.319583
    11  C   12.532220  11.480679   9.943564   7.788582   5.459386
    12  N   12.968862  11.840532  10.408901   8.123340   5.982298
    13  C   11.634866  10.571848   9.047776   6.872784   4.561301
    14  C    9.409136   8.378508   6.820065   4.726149   2.348354
    15  S    7.312725   6.450472   4.790580   3.287516   1.537810
    16  H    1.994630   1.089156   2.402886   3.920797   6.318299
    17  H    2.718236   2.119111   1.087283   2.871313   4.733852
    18  H    2.718237   2.119113   1.087279   2.871314   4.733846
    19  H    8.429191   7.464945   5.852045   3.953141   1.590821
    20  H    9.090352   7.878401   6.685237   4.332194   3.098793
    21  H   13.561585  12.505300  10.982773   8.822834   6.530212
    22  H   13.561577  12.505292  10.982765   8.822828   6.530202
    23  H   13.256021  12.146411  10.683739   8.426703   6.223795
                    6          7          8          9         10
     6  N    0.000000
     7  C    1.254128   0.000000
     8  C    1.979050   1.259430   0.000000
     9  S    3.434256   2.475942   1.475094   0.000000
    10  S    5.151961   4.233792   3.172932   1.757965   0.000000
    11  C    5.892262   4.674656   4.200617   2.934775   2.553800
    12  N    6.080863   4.999125   4.154378   2.683862   1.396264
    13  C    4.967744   3.752061   3.301135   2.125579   2.251278
    14  C    3.027822   1.781348   2.078607   2.122996   3.580254
    15  S    2.838472   2.395572   3.599747   4.444756   6.087348
    16  H    5.835852   7.014464   7.756259   9.231330  10.881910
    17  H    4.844670   5.711240   6.766496   8.148683   9.892869
    18  H    4.844668   5.711238   6.766493   8.148680   9.892866
    19  H    2.692285   1.692398   2.621842   3.172155   4.746308
    20  H    2.320802   2.058149   0.952873   1.809368   3.179761
    21  H    6.912017   5.728011   5.173953   3.849381   3.055843
    22  H    6.912010   5.728004   5.173946   3.849374   3.055840
    23  H    6.411007   5.286715   4.521712   3.069438   1.901877
                   11         12         13         14         15
    11  C    0.000000
    12  N    1.568145   0.000000
    13  C    0.924519   1.811279   0.000000
    14  C    3.129656   3.867078   2.259309   0.000000
    15  S    5.557914   6.442346   4.766298   2.578154   0.000000
    16  H   11.686327  11.904134  10.765396   8.646188   6.965125
    17  H   10.109829  10.658087   9.233880   6.998248   4.837506
    18  H   10.109825  10.658084   9.233875   6.998244   4.837500
    19  H    4.220281   5.060898   3.400360   1.198432   1.381453
    20  H    4.738131   4.381832   3.895893   3.008969   4.452727
    21  H    1.433725   1.855579   2.153175   4.251977   6.628077
    22  H    1.433717   1.855579   2.153164   4.251970   6.628067
    23  H    1.324762   0.509468   1.826064   4.020776   6.572260
                   16         17         18         19         20
    16  H    0.000000
    17  H    2.959878   0.000000
    18  H    2.959881   1.798098   0.000000
    19  H    7.840032   5.977493   5.977489   0.000000
    20  H    7.756141   7.107120   7.107118   3.560909   0.000000
    21  H   12.690900  11.066404  11.232460   5.316838   5.609164
    22  H   12.690893  11.232456  11.066392   5.316831   5.609158
    23  H   12.245504  10.908360  10.908357   5.196155   4.813567
                   21         22         23
    21  H    0.000000
    22  H    2.059366   0.000000
    23  H    1.478914   1.478912   0.000000
 Stoichiometry    C8H8N2OS4
 Framework group  C1[X(C8H8N2OS4)]
 Deg. of freedom    63
 Full point group                 C1      NOp   1
 Largest Abelian subgroup         C1      NOp   1
 Largest concise Abelian subgroup C1      NOp   1
                         Standard orientation:                         
 ---------------------------------------------------------------------
 Center     Atomic      Atomic             Coordinates (Angstroms)
 Number     Number       Type             X           Y           Z
 ---------------------------------------------------------------------
      1          8           0       -7.850474   -0.261615   -0.000003
      2          6           0       -6.707146   -0.777747   -0.000002
      3          6           0       -5.287064    0.102080   -0.000001
      4         16           0       -2.999739   -0.475135    0.000005
      5          6           0       -0.821616    0.535947   -0.000004
      6          7           0       -0.933935   -0.767807    0.000002
      7          6           0        0.119772   -0.087705    0.000004
      8          6           0        1.036602   -0.951179   -0.000001
      9         16           0        2.500321   -0.768347   -0.000002
     10         16           0        4.197581   -1.226331   -0.000002
     11          6           0        4.584320    1.298016    0.000002
     12          7           0        5.118109   -0.176483    0.000002
     13          6           0        3.718658    0.973416   -0.000001
     14          6           0        1.462029    1.083426    0.000003
     15         16           0       -0.919631    2.070629   -0.000002
     16          1           0       -6.665505   -1.866107   -0.000003
     17          1           0       -5.466870    0.686509    0.899052
     18          1           0       -5.466867    0.686515   -0.899046
     19          1           0        0.373843    1.585513    0.000006
     20          1           0        1.090550   -1.902524   -0.000002
     21          1           0        5.581973    1.295847    1.029687
     22          1           0        5.581965    1.295852   -1.029679
     23          1           0        5.395641    0.250757    0.000000
 ---------------------------------------------------------------------
 Rotational constants (GHZ):           1.6502748           0.1268100           0.1179681
 Standard basis: 6-31G(2df,p) (6D, 7F)
 There are   521 symmetry adapted cartesian basis functions of A   symmetry.
 There are   476 symmetry adapted basis functions of A   symmetry.
   476 basis functions,   812 primitive gaussians,   521 cartesian basis functions
    71 alpha electrons       71 beta electrons
       nuclear repulsion energy      1404.4469745104 Hartrees.
 NAtoms=   23 NActive=   23 NUniq=   23 SFac= 1.00D+00 NAtFMM=   60 NAOKFM=F Big=F
 Integral buffers will be    131072 words long.
 Raffenetti 2 integral format.
 Two-electron integral symmetry is turned on.
 One-electron integrals computed using PRISM.
 PrsmSu:  requested number of processors reduced to:  12 ShMem   1 Linda.
 NBasis=   476 RedAO= T EigKep=  8.62D-05  NBF=   476
 NBsUse=   476 1.00D-06 EigRej= -1.00D+00 NBFU=   476
 ExpMin= 1.17D-01 ExpMax= 2.19D+04 ExpMxC= 3.30D+03 IAcc=3 IRadAn=         5 AccDes= 0.00D+00
 Harris functional with IExCor=  402 and IRadAn=       5 diagonalized for initial guess.
 HarFok:  IExCor=  402 AccDes= 0.00D+00 IRadAn=         5 IDoV= 1 UseB2=F ITyADJ=14
 ICtDFT=  3500011 ScaDFX=  1.000000  1.000000  1.000000  1.000000
 FoFCou: FMM=F IPFlag=           0 FMFlag=      100000 FMFlg1=           0
         NFxFlg=           0 DoJE=T BraDBF=F KetDBF=T FulRan=T
         wScrn=  0.000000 ICntrl=       500 IOpCl=  0 I1Cent=   200000004 NGrid=           0
         NMat0=    1 NMatS0=      1 NMatT0=    0 NMatD0=    1 NMtDS0=    0 NMtDT0=    0
 Petite list used in FoFCou.
 Requested convergence on RMS density matrix=1.00D-08 within 128 cycles.
 Requested convergence on MAX density matrix=1.00D-06.
 Requested convergence on             energy=1.00D-06.
 No special actions if energy rises.
 Integral accuracy reduced to 1.0D-05 until final iterations.
 EnCoef did     9 forward-backward iterations
 EnCoef did   100 forward-backward iterations
 EnCoef did   100 forward-backward iterations
 EnCoef did    10 forward-backward iterations
 EnCoef did     5 forward-backward iterations
 EnCoef did     5 forward-backward iterations
 EnCoef did     4 forward-backward iterations
 EnCoef did     8 forward-backward iterations
 EnCoef did    11 forward-backward iterations
 EnCoef did     3 forward-backward iterations
 EnCoef did     7 forward-backward iterations
 EnCoef did     4 forward-backward iterations
 Initial convergence to 1.0D-05 achieved.  Increase integral accuracy.
 SCF Done:  E(RB3LYP) =  -2084.31264837     A.U. after   34 cycles
            NFock= 34  Conv=0.41D-08     -V/T= 1.9985

 **********************************************************************

            Population analysis using the SCF density.

 **********************************************************************

 Orbital symmetries:
       Occupied  (A) (A) (A) (A) (A) (A) (A) (A) (A) (A) (A) (A)
                 (A) (A) (A) (A) (A) (A) (A) (A) (A) (A) (A) (A)
                 (A) (A) (A) (A) (A) (A) (A) (A) (A) (A) (A) (A)
                 (A) (A) (A) (A) (A) (A) (A) (A) (A) (A) (A) (A)
                 (A) (A) (A) (A) (A) (A) (A) (A) (A) (A) (A) (A)
                 (A) (A) (A) (A) (A) (A) (A) (A) (A) (A) (A)
       Virtual   (A) (A) (A) (A) (A) (A) (A) (A) (A) (A) (A) (A)
                 (A) (A) (A) (A) (A) (A) (A) (A) (A) (A) (A) (A)
                 (A) (A) (A) (A) (A) (A) (A) (A) (A) (A) (A) (A)
                 (A) (A) (A) (A) (A) (A) (A) (A) (A) (A) (A) (A)
                 (A) (A) (A) (A) (A) (A) (A) (A) (A) (A) (A) (A)
                 (A) (A) (A) (A) (A) (A) (A) (A) (A) (A) (A) (A)
                 (A) (A) (A) (A) (A) (A) (A) (A) (A) (A) (A) (A)
                 (A) (A) (A) (A) (A) (A) (A) (A) (A) (A) (A) (A)
                 (A) (A) (A) (A) (A) (A) (A) (A) (A) (A) (A) (A)
                 (A) (A) (A) (A) (A) (A) (A) (A) (A) (A) (A) (A)
                 (A) (A) (A) (A) (A) (A) (A) (A) (A) (A) (A) (A)
                 (A) (A) (A) (A) (A) (A) (A) (A) (A) (A) (A) (A)
                 (A) (A) (A) (A) (A) (A) (A) (A) (A) (A) (A) (A)
                 (A) (A) (A) (A) (A) (A) (A) (A) (A) (A) (A) (A)
                 (A) (A) (A) (A) (A) (A) (A) (A) (A) (A) (A) (A)
                 (A) (A) (A) (A) (A) (A) (A) (A) (A) (A) (A) (A)
                 (A) (A) (A) (A) (A) (A) (A) (A) (A) (A) (A) (A)
                 (A) (A) (A) (A) (A) (A) (A) (A) (A) (A) (A) (A)
                 (A) (A) (A) (A) (A) (A) (A) (A) (A) (A) (A) (A)
                 (A) (A) (A) (A) (A) (A) (A) (A) (A) (A) (A) (A)
                 (A) (A) (A) (A) (A) (A) (A) (A) (A) (A) (A) (A)
                 (A) (A) (A) (A) (A) (A) (A) (A) (A) (A) (A) (A)
                 (A) (A) (A) (A) (A) (A) (A) (A) (A) (A) (A) (A)
                 (A) (A) (A) (A) (A) (A) (A) (A) (A) (A) (A) (A)
                 (A) (A) (A) (A) (A) (A) (A) (A) (A) (A) (A) (A)
                 (A) (A) (A) (A) (A) (A) (A) (A) (A) (A) (A) (A)
                 (A) (A) (A) (A) (A) (A) (A) (A) (A) (A) (A) (A)
                 (A) (A) (A) (A) (A) (A) (A) (A) (A) (A) (A) (A)
                 (A) (A) (A) (A) (A) (A) (A) (A) (A) (A) (A) (A)
                 (A) (A) (A) (A) (A) (A) (A) (A) (A) (A) (A) (A)
                 (A) (A) (A) (A) (A) (A) (A) (A) (A) (A) (A) (A)
                 (A) (A) (A) (A) (A) (A) (A) (A) (A) (A) (A) (A)
                 (A) (A) (A) (A) (A) (A) (A) (A) (A) (A) (A) (A)
                 (A) (A) (A) (A) (A) (A) (A) (A) (A)
 The electronic state is 1-A.
 Alpha  occ. eigenvalues --  -89.00166 -88.96501 -88.94452 -88.84461 -19.11433
 Alpha  occ. eigenvalues --  -14.42667 -14.39501 -10.31937 -10.27934 -10.27638
 Alpha  occ. eigenvalues --  -10.25562 -10.25274 -10.21979 -10.17681 -10.14925
 Alpha  occ. eigenvalues --   -8.06337  -8.03797  -8.01351  -7.90518  -6.02801
 Alpha  occ. eigenvalues --   -6.02235  -6.02126  -6.00041  -5.99789  -5.99555
 Alpha  occ. eigenvalues --   -5.97602  -5.97361  -5.97090  -5.87174  -5.86271
 Alpha  occ. eigenvalues --   -5.86224  -1.20759  -1.17569  -1.00352  -0.99017
 Alpha  occ. eigenvalues --   -0.94078  -0.93417  -0.83686  -0.80659  -0.74160
 Alpha  occ. eigenvalues --   -0.70076  -0.67947  -0.66108  -0.60082  -0.58545
 Alpha  occ. eigenvalues --   -0.58148  -0.55543  -0.55130  -0.54325  -0.50656
 Alpha  occ. eigenvalues --   -0.48797  -0.47248  -0.45288  -0.44613  -0.40857
 Alpha  occ. eigenvalues --   -0.40387  -0.39425  -0.39375  -0.38610  -0.36487
 Alpha  occ. eigenvalues --   -0.34837  -0.33773  -0.32279  -0.29122  -0.24217
 Alpha  occ. eigenvalues --   -0.23478  -0.22508  -0.21719  -0.20413  -0.19787
 Alpha  occ. eigenvalues --   -0.19519
 Alpha virt. eigenvalues --   -0.15518  -0.15207  -0.12001  -0.09771  -0.09420
 Alpha virt. eigenvalues --   -0.07531  -0.00451   0.00035   0.00781   0.02256
 Alpha virt. eigenvalues --    0.04637   0.05955   0.07869   0.09695   0.11253
 Alpha virt. eigenvalues --    0.13971   0.14708   0.15235   0.15559   0.17902
 Alpha virt. eigenvalues --    0.19314   0.19820   0.20807   0.20859   0.21817
 Alpha virt. eigenvalues --    0.22317   0.24326   0.24627   0.26607   0.26651
 Alpha virt. eigenvalues --    0.27478   0.29094   0.29506   0.30122   0.30649
 Alpha virt. eigenvalues --    0.30864   0.32934   0.33903   0.36327   0.36654
 Alpha virt. eigenvalues --    0.37542   0.38285   0.38503   0.38553   0.39797
 Alpha virt. eigenvalues --    0.41901   0.43076   0.43524   0.43913   0.45263
 Alpha virt. eigenvalues --    0.45537   0.46545   0.47637   0.47782   0.49576
 Alpha virt. eigenvalues --    0.50558   0.51427   0.53834   0.53904   0.54557
 Alpha virt. eigenvalues --    0.54605   0.55574   0.57393   0.57809   0.58948
 Alpha virt. eigenvalues --    0.59526   0.60877   0.61526   0.61741   0.63130
 Alpha virt. eigenvalues --    0.63280   0.65965   0.66754   0.67093   0.67710
 Alpha virt. eigenvalues --    0.67984   0.68511   0.70427   0.71058   0.71575
 Alpha virt. eigenvalues --    0.73099   0.73479   0.74310   0.75183   0.75448
 Alpha virt. eigenvalues --    0.75860   0.78735   0.79325   0.79333   0.79738
 Alpha virt. eigenvalues --    0.80020   0.81601   0.81800   0.83336   0.83992
 Alpha virt. eigenvalues --    0.84071   0.84943   0.85573   0.89468   0.90112
 Alpha virt. eigenvalues --    0.91604   0.93130   0.94427   0.95194   0.96988
 Alpha virt. eigenvalues --    0.98076   0.99664   1.00717   1.01154   1.02706
 Alpha virt. eigenvalues --    1.03794   1.04283   1.05644   1.06824   1.07268
 Alpha virt. eigenvalues --    1.09107   1.10806   1.11908   1.14015   1.15135
 Alpha virt. eigenvalues --    1.15476   1.15849   1.17687   1.18308   1.19889
 Alpha virt. eigenvalues --    1.19949   1.21688   1.25194   1.25611   1.26864
 Alpha virt. eigenvalues --    1.27159   1.29770   1.31519   1.31523   1.33218
 Alpha virt. eigenvalues --    1.34310   1.35101   1.35704   1.37514   1.39482
 Alpha virt. eigenvalues --    1.42624   1.42962   1.43474   1.43675   1.46651
 Alpha virt. eigenvalues --    1.49043   1.50368   1.51018   1.52428   1.53582
 Alpha virt. eigenvalues --    1.55770   1.55882   1.56288   1.57262   1.58427
 Alpha virt. eigenvalues --    1.59086   1.61249   1.61602   1.61881   1.64109
 Alpha virt. eigenvalues --    1.65108   1.66450   1.66707   1.67853   1.69735
 Alpha virt. eigenvalues --    1.69949   1.71392   1.72992   1.74655   1.76919
 Alpha virt. eigenvalues --    1.78523   1.80334   1.82710   1.82933   1.83480
 Alpha virt. eigenvalues --    1.84582   1.86829   1.88287   1.89250   1.90173
 Alpha virt. eigenvalues --    1.91079   1.91793   1.92108   1.97094   1.97908
 Alpha virt. eigenvalues --    2.00006   2.00383   2.01744   2.02524   2.06464
 Alpha virt. eigenvalues --    2.07049   2.09220   2.10392   2.11190   2.12168
 Alpha virt. eigenvalues --    2.14254   2.15936   2.17322   2.17590   2.19164
 Alpha virt. eigenvalues --    2.20069   2.22307   2.23344   2.24570   2.26093
 Alpha virt. eigenvalues --    2.26158   2.29210   2.29515   2.31415   2.31928
 Alpha virt. eigenvalues --    2.32276   2.33440   2.35341   2.35705   2.39579
 Alpha virt. eigenvalues --    2.40847   2.41531   2.42092   2.44850   2.45732
 Alpha virt. eigenvalues --    2.47236   2.49843   2.50867   2.51795   2.54924
 Alpha virt. eigenvalues --    2.55229   2.56109   2.59997   2.62227   2.63084
 Alpha virt. eigenvalues --    2.63120   2.65799   2.66066   2.67841   2.72399
 Alpha virt. eigenvalues --    2.72471   2.73825   2.77630   2.78007   2.78587
 Alpha virt. eigenvalues --    2.80966   2.83586   2.85327   2.86483   2.88051
 Alpha virt. eigenvalues --    2.92281   2.95203   2.95995   2.97075   2.99749
 Alpha virt. eigenvalues --    3.00366   3.01021   3.02216   3.03172   3.03880
 Alpha virt. eigenvalues --    3.05145   3.09754   3.13893   3.15817   3.17560
 Alpha virt. eigenvalues --    3.20767   3.21825   3.23946   3.24052   3.24733
 Alpha virt. eigenvalues --    3.25699   3.29629   3.31231   3.31338   3.33523
 Alpha virt. eigenvalues --    3.34800   3.35737   3.37232   3.41240   3.41316
 Alpha virt. eigenvalues --    3.42401   3.44456   3.45125   3.46085   3.49452
 Alpha virt. eigenvalues --    3.52772   3.54261   3.54359   3.56559   3.57072
 Alpha virt. eigenvalues --    3.59535   3.61980   3.62405   3.66738   3.69179
 Alpha virt. eigenvalues --    3.69770   3.71746   3.72659   3.74277   3.74650
 Alpha virt. eigenvalues --    3.77845   3.80500   3.84208   3.84965   3.85903
 Alpha virt. eigenvalues --    3.88888   3.93790   3.95196   3.97540   3.98808
 Alpha virt. eigenvalues --    3.99740   4.01138   4.03136   4.03608   4.07931
 Alpha virt. eigenvalues --    4.10119   4.11779   4.13324   4.15161   4.16644
 Alpha virt. eigenvalues --    4.19114   4.20842   4.21205   4.21222   4.24715
 Alpha virt. eigenvalues --    4.26049   4.28016   4.29309   4.29513   4.31101
 Alpha virt. eigenvalues --    4.32924   4.36145   4.37098   4.38061   4.39078
 Alpha virt. eigenvalues --    4.39621   4.42477   4.45853   4.49234   4.50371
 Alpha virt. eigenvalues --    4.52653   4.53037   4.53684   4.55456   4.58538
 Alpha virt. eigenvalues --    4.60956   4.61543   4.64066   4.64433   4.65691
 Alpha virt. eigenvalues --    4.67729   4.70319   4.72593   4.77396   4.80262
 Alpha virt. eigenvalues --    4.82022   4.86364   4.88129   4.90162   4.91388
 Alpha virt. eigenvalues --    4.95697   4.95851   4.98538   5.00826   5.07504
 Alpha virt. eigenvalues --    5.08748   5.09881   5.10999   5.13836   5.15008
 Alpha virt. eigenvalues --    5.15397   5.17095   5.19793   5.25504   5.33282
 Alpha virt. eigenvalues --    5.34287   5.40834   5.42946   5.44714   5.45088
 Alpha virt. eigenvalues --    5.54966   5.70888   5.74990   5.87146   5.90657
 Alpha virt. eigenvalues --    5.93473   5.96191   6.07570   6.13655   6.17075
 Alpha virt. eigenvalues --    6.17752   6.29301   6.70169   6.94490   7.11795
 Alpha virt. eigenvalues --    8.16409   8.42412  10.45683  10.63957  10.82264
 Alpha virt. eigenvalues --   11.07215  11.24065  11.30295  11.60555  11.74409
 Alpha virt. eigenvalues --   12.57148  12.83830  12.85355  21.20497  22.67083
          Condensed to atoms (all electrons):
               1          2          3          4          5          6
     1  O    7.700236   0.672050  -0.049178   0.000591   0.000000   0.000000
     2  C    0.672050   4.597047   0.323398  -0.001539   0.000003   0.000001
     3  C   -0.049178   0.323398   5.305686   0.190742   0.000757   0.001063
     4  S    0.000591  -0.001539   0.190742  16.236813  -0.081645  -0.013801
     5  C    0.000000   0.000003   0.000757  -0.081645   5.250722   0.277899
     6  N    0.000000   0.000001   0.001063  -0.013801   0.277899   6.768067
     7  C    0.000000   0.000000   0.000069  -0.012223   0.257871   0.253074
     8  C    0.000000   0.000000   0.000001   0.002257  -0.161313  -0.056666
     9  S   -0.000000  -0.000000  -0.000000   0.000321   0.010645   0.008186
    10  S    0.000000   0.000000   0.000000  -0.000004   0.000095   0.000066
    11  C    0.000000  -0.000000  -0.000000  -0.000000   0.000139   0.000003
    12  N    0.000000  -0.000000  -0.000000   0.000000   0.000004  -0.000000
    13  C    0.000000   0.000000   0.000000   0.000001   0.002512  -0.000261
    14  C    0.000000   0.000000   0.000000  -0.000936  -0.084071  -0.015625
    15  S   -0.000000   0.000005  -0.000087   0.025025   0.425471  -0.021968
    16  H   -0.053330   0.334968  -0.087474   0.001204  -0.000000   0.000000
    17  H    0.000222  -0.021933   0.344815  -0.017461  -0.000058  -0.000022
    18  H    0.000222  -0.021933   0.344815  -0.017461  -0.000058  -0.000022
    19  H   -0.000000   0.000000  -0.000000   0.005955  -0.136190   0.017433
    20  H    0.000000   0.000000   0.000000  -0.000599  -0.001561  -0.017489
    21  H    0.000000   0.000000   0.000000  -0.000000  -0.000000  -0.000000
    22  H    0.000000   0.000000   0.000000  -0.000000  -0.000000  -0.000000
    23  H    0.000000   0.000000   0.000000  -0.000000  -0.000001  -0.000000
               7          8          9         10         11         12
     1  O    0.000000   0.000000  -0.000000   0.000000   0.000000   0.000000
     2  C    0.000000   0.000000  -0.000000   0.000000  -0.000000  -0.000000
     3  C    0.000069   0.000001  -0.000000   0.000000  -0.000000  -0.000000
     4  S   -0.012223   0.002257   0.000321  -0.000004  -0.000000   0.000000
     5  C    0.257871  -0.161313   0.010645   0.000095   0.000139   0.000004
     6  N    0.253074  -0.056666   0.008186   0.000066   0.000003  -0.000000
     7  C    4.787637   0.231239   0.078081  -0.003717  -0.000686   0.000257
     8  C    0.231239   5.592628   0.170006   0.058929   0.000929   0.001507
     9  S    0.078081   0.170006  16.052806  -0.442605  -0.025294  -0.148230
    10  S   -0.003717   0.058929  -0.442605  16.019580  -0.176826   0.835475
    11  C   -0.000686   0.000929  -0.025294  -0.176826   7.068436  -0.256453
    12  N    0.000257   0.001507  -0.148230   0.835475  -0.256453   6.333647
    13  C    0.015357  -0.021654   0.162850  -0.247453  -0.264499  -0.154223
    14  C   -0.006080  -0.013152   0.050882   0.012495  -0.065574   0.004506
    15  S    0.008799   0.007023   0.003923   0.000177  -0.000011   0.000009
    16  H    0.000000   0.000000   0.000000   0.000000   0.000000   0.000000
    17  H   -0.000004  -0.000000   0.000000  -0.000000   0.000000   0.000000
    18  H   -0.000004  -0.000000   0.000000  -0.000000   0.000000   0.000000
    19  H   -0.003551  -0.005270   0.001012  -0.000698  -0.002040  -0.000026
    20  H   -0.094113   0.475785  -0.188260   0.004000  -0.000033  -0.000247
    21  H    0.000001  -0.000031   0.006745  -0.017252   0.197615  -0.050653
    22  H    0.000001  -0.000031   0.006745  -0.017252   0.197615  -0.050652
    23  H   -0.000069  -0.000009   0.023228  -0.075027   0.107066   0.187855
              13         14         15         16         17         18
     1  O    0.000000   0.000000  -0.000000  -0.053330   0.000222   0.000222
     2  C    0.000000   0.000000   0.000005   0.334968  -0.021933  -0.021933
     3  C    0.000000   0.000000  -0.000087  -0.087474   0.344815   0.344815
     4  S    0.000001  -0.000936   0.025025   0.001204  -0.017461  -0.017461
     5  C    0.002512  -0.084071   0.425471  -0.000000  -0.000058  -0.000058
     6  N   -0.000261  -0.015625  -0.021968   0.000000  -0.000022  -0.000022
     7  C    0.015357  -0.006080   0.008799   0.000000  -0.000004  -0.000004
     8  C   -0.021654  -0.013152   0.007023   0.000000  -0.000000  -0.000000
     9  S    0.162850   0.050882   0.003923   0.000000   0.000000   0.000000
    10  S   -0.247453   0.012495   0.000177   0.000000  -0.000000  -0.000000
    11  C   -0.264499  -0.065574  -0.000011   0.000000   0.000000   0.000000
    12  N   -0.154223   0.004506   0.000009   0.000000   0.000000   0.000000
    13  C    6.006277   0.152925   0.000878  -0.000000  -0.000000  -0.000000
    14  C    0.152925   6.447682  -0.114599  -0.000000  -0.000000  -0.000000
    15  S    0.000878  -0.114599  15.530319  -0.000000  -0.000016  -0.000016
    16  H   -0.000000  -0.000000  -0.000000   0.696915   0.005363   0.005363
    17  H   -0.000000  -0.000000  -0.000016   0.005363   0.571920  -0.022599
    18  H   -0.000000  -0.000000  -0.000016   0.005363  -0.022599   0.571919
    19  H   -0.002736   0.064986   0.208367  -0.000000  -0.000000  -0.000000
    20  H   -0.001611   0.022467  -0.000425   0.000000  -0.000000  -0.000000
    21  H    0.049741  -0.000796  -0.000002   0.000000   0.000000  -0.000000
    22  H    0.049744  -0.000796  -0.000002   0.000000  -0.000000   0.000000
    23  H   -0.120963  -0.001031  -0.000001   0.000000  -0.000000  -0.000000
              19         20         21         22         23
     1  O   -0.000000   0.000000   0.000000   0.000000   0.000000
     2  C    0.000000   0.000000   0.000000   0.000000   0.000000
     3  C   -0.000000   0.000000   0.000000   0.000000   0.000000
     4  S    0.005955  -0.000599  -0.000000  -0.000000  -0.000000
     5  C   -0.136190  -0.001561  -0.000000  -0.000000  -0.000001
     6  N    0.017433  -0.017489  -0.000000  -0.000000  -0.000000
     7  C   -0.003551  -0.094113   0.000001   0.000001  -0.000069
     8  C   -0.005270   0.475785  -0.000031  -0.000031  -0.000009
     9  S    0.001012  -0.188260   0.006745   0.006745   0.023228
    10  S   -0.000698   0.004000  -0.017252  -0.017252  -0.075027
    11  C   -0.002040  -0.000033   0.197615   0.197615   0.107066
    12  N   -0.000026  -0.000247  -0.050653  -0.050652   0.187855
    13  C   -0.002736  -0.001611   0.049741   0.049744  -0.120963
    14  C    0.064986   0.022467  -0.000796  -0.000796  -0.001031
    15  S    0.208367  -0.000425  -0.000002  -0.000002  -0.000001
    16  H   -0.000000   0.000000   0.000000   0.000000   0.000000
    17  H   -0.000000  -0.000000   0.000000  -0.000000  -0.000000
    18  H   -0.000000  -0.000000  -0.000000   0.000000  -0.000000
    19  H    0.563683  -0.001400   0.000006   0.000006  -0.000004
    20  H   -0.001400   0.655919  -0.000001  -0.000001   0.000047
    21  H    0.000006  -0.000001   0.754139  -0.035589  -0.019112
    22  H    0.000006  -0.000001  -0.035589   0.754131  -0.019113
    23  H   -0.000004   0.000047  -0.019112  -0.019113   1.004809
 Mulliken charges:
               1
     1  O   -0.270812
     2  C    0.117934
     3  C   -0.374606
     4  S   -0.317239
     5  C    0.238776
     6  N   -0.199938
     7  C    0.488058
     8  C   -0.282179
     9  S    0.228958
    10  S    0.050016
    11  C   -0.780386
    12  N    0.297222
    13  C    0.373115
    14  C   -0.453283
    15  S   -0.072870
    16  H    0.096992
    17  H    0.139774
    18  H    0.139774
    19  H    0.290467
    20  H    0.147520
    21  H    0.115188
    22  H    0.115193
    23  H   -0.087675
 Sum of Mulliken charges =  -0.00000
 Mulliken charges with hydrogens summed into heavy atoms:
               1
     1  O   -0.270812
     2  C    0.214926
     3  C   -0.095058
     4  S   -0.317239
     5  C    0.238776
     6  N   -0.199938
     7  C    0.488058
     8  C   -0.134658
     9  S    0.228958
    10  S    0.050016
    11  C   -0.550005
    12  N    0.209548
    13  C    0.373115
    14  C   -0.162816
    15  S   -0.072870
 Electronic spatial extent (au):  <R**2>=           8318.0419
 Charge=             -0.0000 electrons
 Dipole moment (field-independent basis, Debye):
    X=             13.3736    Y=              0.0102    Z=             -0.0000  Tot=             13.3736
 Quadrupole moment (field-independent basis, Debye-Ang):
   XX=           -153.7211   YY=           -110.0885   ZZ=           -111.8287
   XY=             -3.6240   XZ=             -0.0001   YZ=             -0.0000
 Traceless Quadrupole moment (field-independent basis, Debye-Ang):
   XX=            -28.5084   YY=             15.1243   ZZ=             13.3841
   XY=             -3.6240   XZ=             -0.0001   YZ=             -0.0000
 Octapole moment (field-independent basis, Debye-Ang**2):
  XXX=            625.0440  YYY=             -4.3007  ZZZ=             -0.0001  XYY=             -7.5741
  XXY=             -2.6830  XXZ=             -0.0006  XZZ=              4.9653  YZZ=             -2.7347
  YYZ=             -0.0001  XYZ=             -0.0001
 Hexadecapole moment (field-independent basis, Debye-Ang**3):
 XXXX=         -13202.4329 YYYY=           -838.3869 ZZZZ=           -139.4559 XXXY=            171.3652
 XXXZ=             -0.0059 YYYX=            -49.7134 YYYZ=             -0.0000 ZZZX=             -0.0003
 ZZZY=             -0.0001 XXYY=          -1756.9424 XXZZ=          -1593.2921 YYZZ=           -171.2763
 XXYZ=             -0.0011 YYXZ=             -0.0002 ZZXY=            -13.0035
 N-N= 1.404446974510D+03 E-N=-7.743776028470D+03  KE= 2.087452715771D+03
 PrsmSu:  requested number of processors reduced to:  13 ShMem   1 Linda.
 Calling FoFJK, ICntrl=      2127 FMM=F ISym2X=0 I1Cent= 0 IOpClX= 0 NMat=1 NMatS=1 NMatT=0.
 ***** Axes restored to original set *****
 -------------------------------------------------------------------
 Center     Atomic                   Forces (Hartrees/Bohr)
 Number     Number              X              Y              Z
 -------------------------------------------------------------------
      1        8           0.072907567    0.013242100    0.008073606
      2        6          -0.038377588    0.017813416    0.010859676
      3        6          -0.006195769   -0.035695886   -0.021759637
      4       16          -0.110184867   -0.033436161   -0.020385962
      5        6          -0.377213721   -0.008436643   -0.005146413
      6        7          -0.146221505   -0.131562351   -0.080210196
      7        6           0.421960327   -0.003430567   -0.002088397
      8        6           0.003584282   -0.040294600   -0.024566907
      9       16           0.024009154    0.078852698    0.048074619
     10       16           0.216337328   -0.134721172   -0.082136857
     11        6           0.934570563    1.010909931    0.616331163
     12        7          -0.134131021   -2.581320898   -1.573760406
     13        6          -1.245939623   -0.773384190   -0.471518256
     14        6           0.115263249    0.067698787    0.041273902
     15       16          -0.138509482    0.054607604    0.033292316
     16        1           0.011393562   -0.005646904   -0.003442596
     17        1           0.005939507    0.010093737    0.008132225
     18        1           0.005938645    0.011854097    0.005246438
     19        1           0.015313795    0.072066823    0.043938243
     20        1          -0.002091617   -0.129127338   -0.078725922
     21        1          -0.045909711    0.019919046   -0.020359231
     22        1          -0.045910130   -0.008974712    0.027033000
     23        1           0.463467057    2.528973184    1.541845591
 -------------------------------------------------------------------
 Cartesian Forces:  Max     2.581320898 RMS     0.581661970

 GradGradGradGradGradGradGradGradGradGradGradGradGradGradGradGradGradGrad
 Berny optimization.
 FormGI is forming the generalized inverse of G from B-inverse, IUseBI=4.
 Internal  Forces:  Max     2.033637005 RMS     0.243082489
 Search for a local minimum.
 Step number   1 out of a maximum of  138
 All quantities printed in internal units (Hartrees-Bohrs-Radians)
 Mixed Optimization -- RFO/linear search
 Second derivative matrix not updated -- first step.
 ITU=  0
     Eigenvalues ---    0.00230   0.00230   0.00230   0.00230   0.00238
     Eigenvalues ---    0.00313   0.00671   0.01151   0.01486   0.02149
     Eigenvalues ---    0.02483   0.02787   0.03098   0.03298   0.03530
     Eigenvalues ---    0.03750   0.04056   0.04712   0.05343   0.05832
     Eigenvalues ---    0.06133   0.06724   0.06852   0.06918   0.08176
     Eigenvalues ---    0.08667   0.10186   0.10420   0.11599   0.12223
     Eigenvalues ---    0.12439   0.12843   0.13138   0.13912   0.14957
     Eigenvalues ---    0.15624   0.16000   0.16000   0.17566   0.19496
     Eigenvalues ---    0.20350   0.21961   0.22000   0.22555   0.23131
     Eigenvalues ---    0.24188   0.25000   0.25000   0.34910   0.35129
     Eigenvalues ---    0.35129   0.48358   0.57035   0.59502   0.68612
     Eigenvalues ---    0.71920   0.80262   0.81622   0.82640   1.10231
     Eigenvalues ---    1.14214   4.93311   5.61311
 RFO step:  Lambda=-1.54143794D+00 EMin= 2.30000000D-03
 Linear search not attempted -- first point.
 Maximum step size (   0.300) exceeded in Quadratic search.
    -- Step size scaled by   0.542
 Iteration  1 RMS(Cart)=  0.05162180 RMS(Int)=  0.00166387
 Iteration  2 RMS(Cart)=  0.00130433 RMS(Int)=  0.00024215
 Iteration  3 RMS(Cart)=  0.00000231 RMS(Int)=  0.00024213
 Iteration  4 RMS(Cart)=  0.00000000 RMS(Int)=  0.00024213
 Variable       Old X    -DE/DX   Delta X   Delta X   Delta X     New X
                                 (Linear)    (Quad)   (Total)
    R1        2.37053  -0.07333   0.00000  -0.01686  -0.01686   2.35367
    R2        3.15688  -0.04966   0.00000  -0.01550  -0.01550   3.14138
    R3        2.05821   0.01121   0.00000   0.00321   0.00321   2.06142
    R4        4.45792  -0.05330   0.00000  -0.01794  -0.01794   4.43998
    R5        2.05467   0.00439   0.00000   0.00126   0.00126   2.05592
    R6        2.05466   0.00440   0.00000   0.00126   0.00126   2.05592
    R7        3.94279   0.06357   0.00000   0.02071   0.02071   3.96349
    R8        2.47286   0.06538   0.00000   0.00931   0.00888   2.48174
    R9        2.13393   0.34175   0.00000   0.07038   0.07067   2.20460
   R10        2.90604   0.08442   0.00000   0.02428   0.02430   2.93034
   R11        2.36996   0.23695   0.00000   0.05503   0.05528   2.42524
   R12        2.37998   0.15728   0.00000   0.03985   0.04003   2.42001
   R13        3.36626   0.11458   0.00000   0.03670   0.03677   3.40303
   R14        2.78752   0.22903   0.00000   0.05498   0.05507   2.84259
   R15        1.80067   0.13095   0.00000   0.03360   0.03360   1.83427
   R16        3.32207   0.23084   0.00000   0.05036   0.05032   3.37239
   R17        4.01676   0.05644   0.00000   0.02224   0.02222   4.03898
   R18        4.01188   0.01588   0.00000   0.00119   0.00100   4.01288
   R19        2.63856   0.15681   0.00000   0.02824   0.02827   2.66683
   R20        2.96336   0.85657   0.00000   0.11714   0.11776   3.08112
   R21        1.74709   1.50290   0.00000   0.10913   0.10915   1.85623
   R22        2.70935   0.06649   0.00000   0.00283   0.00254   2.71189
   R23        2.70933   0.06649   0.00000   0.00283   0.00254   2.71187
   R24        0.96276   2.03364   0.00000   0.16590   0.16663   1.12939
   R25        2.26471   0.11447   0.00000   0.02738   0.02729   2.29200
   R26        2.61057   0.13314   0.00000   0.03338   0.03329   2.64386
   R27        2.79474  -0.19869   0.00000  -0.01017  -0.01035   2.78439
   R28        2.79474  -0.19870   0.00000  -0.01017  -0.01035   2.78439
    A1        2.16287  -0.01634   0.00000  -0.00503  -0.00503   2.15784
    A2        2.03308   0.01529   0.00000   0.00478   0.00478   2.03786
    A3        2.08723   0.00105   0.00000   0.00025   0.00025   2.08748
    A4        2.33972  -0.03032   0.00000  -0.00927  -0.00926   2.33046
    A5        1.71380   0.02147   0.00000   0.00679   0.00678   1.72058
    A6        1.71380   0.02147   0.00000   0.00679   0.00678   1.72058
    A7        1.86697  -0.00306   0.00000  -0.00112  -0.00111   1.86586
    A8        1.86698  -0.00306   0.00000  -0.00112  -0.00111   1.86586
    A9        1.94707  -0.00416   0.00000  -0.00133  -0.00135   1.94571
   A10        2.21968  -0.05369   0.00000  -0.00879  -0.00851   2.21117
   A11        1.51600  -0.03113   0.00000  -0.00451  -0.00439   1.51161
   A12        2.42769   0.06811   0.00000   0.01569   0.01557   2.44327
   A13        1.83908  -0.01212   0.00000  -0.00435  -0.00464   1.83444
   A14        1.81299   0.13922   0.00000   0.03577   0.03535   1.84834
   A15        1.47285   0.00277   0.00000  -0.00043  -0.00032   1.47254
   A16        2.26189  -0.09807   0.00000  -0.02467  -0.02449   2.23740
   A17        2.38288  -0.01911   0.00000  -0.00937  -0.00946   2.37342
   A18        1.63842   0.11718   0.00000   0.03404   0.03395   1.67236
   A19        2.75377  -0.03475   0.00000  -0.00638  -0.00632   2.74745
   A20        2.30544  -0.10757   0.00000  -0.02751  -0.02754   2.27790
   A21        1.18404   0.03523   0.00000   0.01156   0.01147   1.19551
   A22        1.22398   0.14232   0.00000   0.03389   0.03386   1.25784
   A23        2.34538  -0.00048   0.00000  -0.00518  -0.00514   2.34023
   A24        1.12140  -0.14280   0.00000  -0.03907  -0.03901   1.08239
   A25        2.02710   0.02953   0.00000  -0.01943  -0.01936   2.00773
   A26        1.55939  -0.41078   0.00000  -0.01478  -0.01424   1.54515
   A27        1.33020   0.34693   0.00000   0.01859   0.01842   1.34861
   A28        1.33020   0.34693   0.00000   0.01859   0.01842   1.34862
   A29        2.27972   0.04554   0.00000   0.00795   0.00788   2.28760
   A30        2.27972   0.04554   0.00000   0.00795   0.00788   2.28759
   A31        1.60239  -0.02320   0.00000  -0.00755  -0.00743   1.59496
   A32        2.07439   0.25851   0.00000   0.02196   0.02122   2.09561
   A33        0.92343  -0.39299   0.00000  -0.03567  -0.03447   0.88896
   A34        2.53992  -0.01958   0.00000  -0.02165  -0.02148   2.51844
   A35        1.36440   0.06007   0.00000   0.01354   0.01334   1.37774
   A36        1.14971   0.03309   0.00000   0.00977   0.00989   1.15960
   A37        2.51411   0.09316   0.00000   0.02331   0.02323   2.53734
   A38        1.14820   0.03773   0.00000   0.01074   0.01066   1.15886
   A39        0.94390  -0.05896   0.00000   0.01148   0.01099   0.95489
   A40        0.94390  -0.05896   0.00000   0.01148   0.01099   0.95489
   A41        2.29326  -0.10431   0.00000  -0.00461  -0.00464   2.28862
   A42        2.29327  -0.10431   0.00000  -0.00461  -0.00464   2.28863
   A43        1.54030   0.16373   0.00000   0.00199   0.00201   1.54231
   A44        3.03514   0.01352   0.00000   0.00472   0.00473   3.03986
   A45        2.99187   0.02306   0.00000  -0.00201  -0.00192   2.98995
   A46        3.31193  -0.00935   0.00000  -0.00478  -0.00496   3.30697
   A47        3.28585   0.14199   0.00000   0.03535   0.03503   3.32088
   A48        2.99782  -0.13448   0.00000  -0.01371  -0.01325   2.98457
   A49        3.06811  -0.00501   0.00000  -0.00737  -0.00740   3.06072
   A50        3.14160  -0.00000   0.00000  -0.00000  -0.00000   3.14160
   A51        3.14159  -0.00000   0.00000  -0.00000  -0.00000   3.14159
   A52        3.14160  -0.00000   0.00000  -0.00000  -0.00000   3.14160
   A53        3.14159  -0.00000   0.00000  -0.00000  -0.00000   3.14159
   A54        3.14160  -0.00000   0.00000  -0.00000  -0.00000   3.14160
   A55        3.14160  -0.00000   0.00000  -0.00000  -0.00000   3.14160
    D1        3.14159   0.00000   0.00000   0.00000   0.00000   3.14159
    D2        0.98888   0.00255   0.00000   0.00080   0.00082   0.98970
    D3       -0.98887  -0.00255   0.00000  -0.00080  -0.00082  -0.98969
    D4       -0.00001   0.00000   0.00000   0.00000   0.00000  -0.00001
    D5       -2.15272   0.00255   0.00000   0.00080   0.00082  -2.15190
    D6        2.15272  -0.00255   0.00000  -0.00080  -0.00082   2.15190
    D7        3.14159  -0.00000   0.00000  -0.00000  -0.00000   3.14159
    D8       -3.14159   0.00000   0.00000   0.00000   0.00000  -3.14159
    D9       -1.03166   0.00253   0.00000   0.00083   0.00084  -1.03083
   D10       -1.03166   0.00253   0.00000   0.00083   0.00084  -1.03082
   D11        1.03165  -0.00253   0.00000  -0.00083  -0.00084   1.03081
   D12        1.03165  -0.00253   0.00000  -0.00083  -0.00084   1.03081
   D13       -0.00000   0.00000   0.00000   0.00000   0.00000  -0.00000
   D14        3.14159  -0.00000   0.00000  -0.00000  -0.00000   3.14159
   D15       -3.14159  -0.00000   0.00000  -0.00000  -0.00000  -3.14159
   D16        0.00000   0.00000   0.00000   0.00000   0.00000   0.00000
   D17        3.14159   0.00000   0.00000   0.00000   0.00000   3.14159
   D18       -0.00001   0.00000   0.00000   0.00000   0.00000  -0.00001
   D19        0.00000  -0.00000   0.00000  -0.00000  -0.00000   0.00000
   D20       -3.14159   0.00000   0.00000   0.00000   0.00000  -3.14159
   D21       -3.14159  -0.00000   0.00000  -0.00000  -0.00000  -3.14159
   D22       -0.00001  -0.00000   0.00000  -0.00000  -0.00000  -0.00001
   D23        0.00000  -0.00000   0.00000  -0.00000  -0.00000   0.00000
   D24        3.14159   0.00000   0.00000   0.00000   0.00000   3.14159
   D25       -3.14158  -0.00000   0.00000  -0.00000  -0.00000  -3.14158
   D26        0.00001  -0.00000   0.00000  -0.00000  -0.00000   0.00001
   D27       -0.00000  -0.00000   0.00000  -0.00000  -0.00000  -0.00000
   D28        3.14159  -0.00000   0.00000  -0.00000  -0.00000   3.14159
   D29        3.14159   0.00000   0.00000   0.00000   0.00000   3.14159
   D30       -0.00000  -0.00000   0.00000   0.00000   0.00000  -0.00000
   D31       -0.00000  -0.00000   0.00000   0.00000   0.00000  -0.00000
   D32       -0.00000   0.00000   0.00000   0.00000   0.00000  -0.00000
   D33       -3.14159  -0.00000   0.00000  -0.00000  -0.00000  -3.14159
   D34       -3.14159  -0.00000   0.00000  -0.00000  -0.00000  -3.14159
   D35       -3.14159   0.00000   0.00000   0.00000   0.00000  -3.14159
   D36        0.00000   0.00000   0.00000   0.00000   0.00000   0.00000
   D37       -0.00000   0.00000   0.00000   0.00000   0.00000  -0.00000
   D38        3.14159   0.00000   0.00000   0.00000   0.00000   3.14159
   D39       -0.00000   0.00000   0.00000   0.00000   0.00000  -0.00000
   D40        3.14159   0.00000   0.00000   0.00000   0.00000   3.14159
   D41        0.00000   0.00000   0.00000   0.00000   0.00000   0.00000
   D42        0.00000   0.00000   0.00000   0.00000   0.00000   0.00000
   D43       -3.14159   0.00000   0.00000   0.00000   0.00000  -3.14159
   D44       -3.14159   0.00000   0.00000   0.00000   0.00000  -3.14159
   D45       -3.14159  -0.00000   0.00000   0.00000   0.00000  -3.14159
   D46        3.14159  -0.00000   0.00000   0.00000   0.00000   3.14159
   D47       -0.00000  -0.00000   0.00000  -0.00000  -0.00000  -0.00000
   D48        1.10809  -0.03065   0.00000  -0.01048  -0.00996   1.09814
   D49       -1.10809   0.03065   0.00000   0.01048   0.00996  -1.09813
   D50        0.00000   0.00000   0.00000   0.00000   0.00000   0.00000
   D51        3.14159   0.00000   0.00000   0.00000   0.00000   3.14159
   D52        2.30928   0.10585   0.00000   0.00903   0.00866   2.31794
   D53       -0.83231   0.10585   0.00000   0.00903   0.00866  -0.82365
   D54       -2.30928  -0.10585   0.00000  -0.00903  -0.00866  -2.31794
   D55        0.83231  -0.10585   0.00000  -0.00902  -0.00866   0.82365
   D56        0.00000  -0.00000   0.00000  -0.00000  -0.00000   0.00000
   D57       -1.24113  -0.08130   0.00000  -0.00925  -0.00949  -1.25061
   D58        1.24114   0.08131   0.00000   0.00925   0.00949   1.25063
   D59        0.25363   0.47503   0.00000   0.03433   0.03335   0.28697
   D60        1.59655   0.20773   0.00000   0.02760   0.02736   1.62391
   D61       -1.06116   0.07655   0.00000   0.01133   0.01089  -1.05027
   D62       -0.25362  -0.47503   0.00000  -0.03433  -0.03335  -0.28697
   D63       -1.59655  -0.20773   0.00000  -0.02760  -0.02736  -1.62391
   D64        1.06115  -0.07654   0.00000  -0.01133  -0.01089   1.05027
   D65        1.18930  -0.01880   0.00000  -0.00758  -0.00749   1.18182
   D66       -1.18929   0.01880   0.00000   0.00758   0.00749  -1.18181
   D67       -0.00000  -0.00000   0.00000  -0.00000  -0.00000  -0.00000
   D68        0.00001   0.00000   0.00000   0.00000   0.00000   0.00001
   D69       -1.58745   0.15378   0.00000   0.00970   0.00979  -1.57766
   D70        1.00884   0.07718   0.00000  -0.00234  -0.00217   1.00668
   D71        1.58744  -0.15378   0.00000  -0.00970  -0.00979   1.57765
   D72       -1.00885  -0.07717   0.00000   0.00234   0.00217  -1.00668
         Item               Value     Threshold  Converged?
 Maximum Force            2.033637     0.000450     NO 
 RMS     Force            0.243082     0.000300     NO 
 Maximum Displacement     0.192132     0.001800     NO 
 RMS     Displacement     0.051755     0.001200     NO 
 Predicted change in Energy=-6.811766D-01
 GradGradGradGradGradGradGradGradGradGradGradGradGradGradGradGradGradGrad

                          Input orientation:                          
 ---------------------------------------------------------------------
 Center     Atomic      Atomic             Coordinates (Angstroms)
 Number     Number       Type             X           Y           Z
 ---------------------------------------------------------------------
      1          8           0        1.046628   -0.042629    0.067528
      2          6           0        2.291958   -0.024624    0.078506
      3          6           0        3.189172    1.170245    0.806990
      4         16           0        5.496628    1.548224    1.037442
      5          6           0        7.054780    3.115660    1.993060
      6          7           0        7.505672    2.062504    1.350982
      7          6           0        8.210273    2.978370    1.909366
      8          6           0        9.432304    2.651439    1.710037
      9         16           0       10.673341    3.377219    2.152527
     10         16           0       12.420056    3.689485    2.342908
     11          6           0       11.555503    5.816914    3.639957
     12          7           0       12.742524    4.862543    3.058099
     13          6           0       10.900664    5.191781    3.258825
     14          6           0        8.914700    4.393429    2.772093
     15         16           0        6.308489    4.276242    2.700640
     16          1           0        2.799559   -0.849045   -0.424126
     17          1           0        2.779656    1.090996    1.811802
     18          1           0        2.779656    2.027158    0.276310
     19          1           0        7.701877    4.383805    2.766229
     20          1           0        9.896790    1.923717    1.266362
     21          1           0       12.437839    5.688524    4.764423
     22          1           0       12.437829    6.757680    3.010782
     23          1           0       12.786421    5.371452    3.368367
 ---------------------------------------------------------------------
                    Distance matrix (angstroms):
                    1          2          3          4          5
     1  O    0.000000
     2  C    1.245508   0.000000
     3  C    2.570674   1.662346   0.000000
     4  S    4.824318   3.696393   2.349538   0.000000
     5  C    7.055519   6.017588   4.487129   2.407883   0.000000
     6  N    6.913617   5.758308   4.441197   2.097391   1.313280
     7  C    7.989781   6.884509   5.449403   3.188955   1.166626
     8  C    8.959654   7.797932   6.479670   4.142344   2.438898
     9  S   10.426705   9.280176   7.917953   5.602409   3.631505
    10  S   12.184453  11.022726   9.690966   7.363633   5.407204
    11  C   12.551213  11.516109   9.980617   7.855238   5.501414
    12  N   13.030665  11.915398  10.486520   8.220145   6.044530
    13  C   11.605406  10.556284   9.036114   6.885758   4.550084
    14  C    9.428672   8.404482   6.858004   4.773618   2.387235
    15  S    7.298843   6.442480   4.792000   3.296578   1.550667
    16  H    1.991179   1.090857   2.396868   3.893233   6.298300
    17  H    2.707579   2.118200   1.087948   2.861928   4.733794
    18  H    2.707580   2.118203   1.087945   2.861929   4.733789
    19  H    8.436151   7.478323   5.876230   3.986520   1.620097
    20  H    9.144893   7.939805   6.765417   4.422083   3.166360
    21  H   13.589210  12.551366  11.027872   8.900162   6.578557
    22  H   13.589202  12.551358  11.027864   8.900156   6.578547
    23  H   13.342809  12.250493  10.785081   8.555195   6.311242
                    6          7          8          9         10
     6  N    0.000000
     7  C    1.283380   0.000000
     8  C    2.046381   1.280616   0.000000
     9  S    3.522084   2.506973   1.504236   0.000000
    10  S    5.270877   4.291377   3.225636   1.784592   0.000000
    11  C    5.977970   4.716232   4.272330   2.990447   2.637375
    12  N    6.178923   5.040933   4.202834   2.703289   1.411223
    13  C    4.995819   3.736099   3.317856   2.137336   2.324725
    14  C    3.072154   1.800809   2.104854   2.123526   3.601007
    15  S    2.855776   2.434619   3.657800   4.490056   6.150082
    16  H    5.811681   7.026386   7.797522   9.300370  10.991301
    17  H    4.846794   5.750069   6.833964   8.225155   9.998576
    18  H    4.846793   5.750067   6.833961   8.225152   9.998574
    19  H    2.725776   1.722767   2.666648   3.196786   4.787744
    20  H    2.396636   2.090475   0.970656   1.871093   3.262478
    21  H    7.008985   5.776557   5.252276   3.908656   3.140097
    22  H    7.008979   5.776551   5.252270   3.908649   3.140094
    23  H    6.550212   5.366252   4.625866   3.149657   2.003697
                   11         12         13         14         15
    11  C    0.000000
    12  N    1.630461   0.000000
    13  C    0.982276   1.881790   0.000000
    14  C    3.123033   3.867053   2.195069   0.000000
    15  S    5.548616   6.470575   4.715703   2.609823   0.000000
    16  H   11.731084  11.983768  10.755632   8.665697   6.953079
    17  H   10.133703  10.725510   9.212008   7.033278   4.836164
    18  H   10.133700  10.725508   9.212004   7.033274   4.836157
    19  H    4.203289   5.071736   3.335824   1.212876   1.399072
    20  H    4.852038   4.466008   3.957008   3.054702   4.524094
    21  H    1.435070   1.920057   2.208277   4.249607   6.619870
    22  H    1.435061   1.920057   2.208266   4.249599   6.619859
    23  H    1.336921   0.597646   1.897461   4.037609   6.603707
                   16         17         18         19         20
    16  H    0.000000
    17  H    2.960326   0.000000
    18  H    2.960329   1.798370   0.000000
    19  H    7.848171   5.998481   5.998478   0.000000
    20  H    7.804911   7.186412   7.186411   3.622054   0.000000
    21  H   12.749796  11.096654  11.261850   5.303246   5.732987
    22  H   12.749789  11.261846  11.096643   5.303238   5.732982
    23  H   12.361836  10.994569  10.994565   5.214461   4.965408
                   21         22         23
    21  H    0.000000
    22  H    2.053862   0.000000
    23  H    1.473437   1.473435   0.000000
 Stoichiometry    C8H8N2OS4
 Framework group  C1[X(C8H8N2OS4)]
 Deg. of freedom    63
 Full point group                 C1      NOp   1
 Largest Abelian subgroup         C1      NOp   1
 Largest concise Abelian subgroup C1      NOp   1
                         Standard orientation:                         
 ---------------------------------------------------------------------
 Center     Atomic      Atomic             Coordinates (Angstroms)
 Number     Number       Type             X           Y           Z
 ---------------------------------------------------------------------
      1          8           0       -7.868678   -0.224178   -0.000003
      2          6           0       -6.737633   -0.745741   -0.000001
      3          6           0       -5.321901    0.125521   -0.000001
      4         16           0       -3.051003   -0.477266    0.000005
      5          6           0       -0.850442    0.500195   -0.000004
      6          7           0       -0.979647   -0.806714    0.000002
      7          6           0        0.120723   -0.146223    0.000004
      8          6           0        1.055418   -1.021621   -0.000002
      9         16           0        2.542415   -0.794543   -0.000003
     10         16           0        4.274745   -1.223266   -0.000002
     11          6           0        4.577437    1.396681    0.000003
     12          7           0        5.161613   -0.125534    0.000002
     13          6           0        3.669699    1.021343   -0.000001
     14          6           0        1.474719    1.041046    0.000003
     15         16           0       -0.932740    2.048677   -0.000003
     16          1           0       -6.699467   -1.835929   -0.000003
     17          1           0       -5.493150    0.713538    0.899188
     18          1           0       -5.493147    0.713544   -0.899182
     19          1           0        0.377219    1.557343    0.000006
     20          1           0        1.103902   -1.991065   -0.000002
     21          1           0        5.578814    1.442257    1.026936
     22          1           0        5.578806    1.442263   -1.026927
     23          1           0        5.459879    0.392364    0.000001
 ---------------------------------------------------------------------
 Rotational constants (GHZ):           1.6300248           0.1249937           0.1162922
 Standard basis: 6-31G(2df,p) (6D, 7F)
 There are   521 symmetry adapted cartesian basis functions of A   symmetry.
 There are   476 symmetry adapted basis functions of A   symmetry.
   476 basis functions,   812 primitive gaussians,   521 cartesian basis functions
    71 alpha electrons       71 beta electrons
       nuclear repulsion energy      1387.5510018732 Hartrees.
 NAtoms=   23 NActive=   23 NUniq=   23 SFac= 1.00D+00 NAtFMM=   60 NAOKFM=F Big=F
 Integral buffers will be    131072 words long.
 Raffenetti 2 integral format.
 Two-electron integral symmetry is turned on.
 One-electron integrals computed using PRISM.
 PrsmSu:  requested number of processors reduced to:  12 ShMem   1 Linda.
 NBasis=   476 RedAO= T EigKep=  1.06D-04  NBF=   476
 NBsUse=   476 1.00D-06 EigRej= -1.00D+00 NBFU=   476
 Initial guess from the checkpoint file:  "OdCCSC1dNCdCSSCNdCC1dS.chk"
 B after Tr=    -0.000000    0.000000    0.000000
         Rot=    1.000000    0.000000    0.000000   -0.000961 Ang=   0.11 deg.
 ExpMin= 1.17D-01 ExpMax= 2.19D+04 ExpMxC= 3.30D+03 IAcc=2 IRadAn=         4 AccDes= 0.00D+00
 Harris functional with IExCor=  402 and IRadAn=       4 diagonalized for initial guess.
 HarFok:  IExCor=  402 AccDes= 0.00D+00 IRadAn=         4 IDoV= 1 UseB2=F ITyADJ=14
 ICtDFT=  3500011 ScaDFX=  1.000000  1.000000  1.000000  1.000000
 FoFCou: FMM=F IPFlag=           0 FMFlag=      100000 FMFlg1=           0
         NFxFlg=           0 DoJE=T BraDBF=F KetDBF=T FulRan=T
         wScrn=  0.000000 ICntrl=       500 IOpCl=  0 I1Cent=   200000004 NGrid=           0
         NMat0=    1 NMatS0=      1 NMatT0=    0 NMatD0=    1 NMtDS0=    0 NMtDT0=    0
 Petite list used in FoFCou.
 Requested convergence on RMS density matrix=1.00D-08 within 128 cycles.
 Requested convergence on MAX density matrix=1.00D-06.
 Requested convergence on             energy=1.00D-06.
 No special actions if energy rises.
 Integral accuracy reduced to 1.0D-05 until final iterations.
 EnCoef did     7 forward-backward iterations
 EnCoef did     6 forward-backward iterations
 Initial convergence to 1.0D-05 achieved.  Increase integral accuracy.
 SCF Done:  E(RB3LYP) =  -2084.98408043     A.U. after   23 cycles
            NFock= 23  Conv=0.81D-08     -V/T= 1.9998
 PrsmSu:  requested number of processors reduced to:  13 ShMem   1 Linda.
 Calling FoFJK, ICntrl=      2127 FMM=F ISym2X=0 I1Cent= 0 IOpClX= 0 NMat=1 NMatS=1 NMatT=0.
 ***** Axes restored to original set *****
 -------------------------------------------------------------------
 Center     Atomic                   Forces (Hartrees/Bohr)
 Number     Number              X              Y              Z
 -------------------------------------------------------------------
      1        8           0.062249665    0.011922399    0.007268993
      2        6          -0.028551172    0.017358581    0.010582389
      3        6          -0.004714234   -0.033736029   -0.020564991
      4       16          -0.108765147   -0.032348031   -0.019722554
      5        6          -0.278008789   -0.010773251   -0.006570090
      6        7          -0.118905348   -0.095778107   -0.058393388
      7        6           0.331787861   -0.024417472   -0.014884623
      8        6           0.007531378   -0.040998481   -0.024995908
      9       16          -0.009174952    0.065062827    0.039667227
     10       16           0.198069562   -0.100105767   -0.061032608
     11        6           0.623598390    0.744727125    0.454044765
     12        7           0.080079281   -1.417846839   -0.864422864
     13        6          -0.894606025   -0.540374180   -0.329456308
     14        6           0.120554330    0.067473898    0.041136835
     15       16          -0.119062986    0.046293220    0.028223321
     16        1           0.011108588   -0.005177491   -0.003156408
     17        1           0.006047168    0.009878658    0.007480919
     18        1           0.006046419    0.011176430    0.005353694
     19        1           0.012701588    0.067698050    0.041274501
     20        1          -0.007721081   -0.108479406   -0.066137363
     21        1          -0.051162901    0.016795625   -0.023693594
     22        1          -0.051163232   -0.013369461    0.025783606
     23        1           0.212061636    1.365017701    0.832214449
 -------------------------------------------------------------------
 Cartesian Forces:  Max     1.417846839 RMS     0.342195050

 GradGradGradGradGradGradGradGradGradGradGradGradGradGradGradGradGradGrad
 Berny optimization.
 Using GEDIIS/GDIIS optimizer.
 FormGI is forming the generalized inverse of G from B-inverse, IUseBI=4.
 Internal  Forces:  Max     1.129476843 RMS     0.149288593
 Search for a local minimum.
 Step number   2 out of a maximum of  138
 All quantities printed in internal units (Hartrees-Bohrs-Radians)
[...]
   R14        3.35045   0.00042   0.00000   0.00000   0.00000   3.35045
   R15        2.04670   0.00024   0.00000   0.00000   0.00000   2.04670
   R16        6.19923  -0.00004   0.00000   0.00000   0.00000   6.19923
   R17        5.26118  -0.00036  -0.00001   0.00000  -0.00001   5.26117
   R18        3.33828   0.00040  -0.00000   0.00000  -0.00000   3.33828
   R19        2.83368  -0.00027   0.00000   0.00000   0.00000   2.83368
   R20        5.80088  -0.00047  -0.00000   0.00000  -0.00000   5.80088
   R21        2.83510  -0.00035   0.00000   0.00000   0.00000   2.83510
   R22        2.06657  -0.00029  -0.00000   0.00000  -0.00000   2.06657
   R23        2.07167  -0.00038  -0.00000   0.00000  -0.00000   2.07167
   R24        5.44500  -0.00056   0.00001   0.00000   0.00001   5.44502
   R25        2.05569   0.00020   0.00000   0.00000   0.00000   2.05569
   R26       10.04368   0.00031   0.00002   0.00000   0.00002  10.04371
   R27        3.35820   0.00049  -0.00000   0.00000  -0.00000   3.35820
   R28        3.30972   0.00011  -0.00000   0.00000  -0.00000   3.30972
    A1        2.13796  -0.00002   0.00000   0.00000   0.00000   2.13796
    A2        2.13732   0.00006  -0.00000   0.00000  -0.00000   2.13732
    A3        2.00784  -0.00004  -0.00000   0.00000  -0.00000   2.00784
    A4        1.94673   0.00032  -0.00000   0.00000  -0.00000   1.94672
    A5        1.93787  -0.00004  -0.00000   0.00000  -0.00000   1.93787
    A6        1.91685  -0.00006   0.00000   0.00000   0.00000   1.91686
    A7        1.88923  -0.00018  -0.00000   0.00000  -0.00000   1.88923
    A8        1.86453  -0.00001   0.00000   0.00000   0.00000   1.86453
    A9        1.90674  -0.00003   0.00000   0.00000   0.00000   1.90674
   A10        2.67643  -0.00004  -0.00000   0.00000  -0.00000   2.67643
   A11        1.01723  -0.00056   0.00000   0.00000   0.00000   1.01723
   A12        2.08665  -0.00032  -0.00000   0.00000  -0.00000   2.08665
   A13        2.01713  -0.00011   0.00000   0.00000   0.00000   2.01713
   A14        2.57053   0.00028  -0.00000   0.00000  -0.00000   2.57052
   A15        0.81467   0.00011   0.00000   0.00000   0.00000   0.81467
   A16        2.10459   0.00003   0.00000   0.00000   0.00000   2.10459
   A17        2.10959  -0.00003  -0.00000   0.00000  -0.00000   2.10959
   A18        2.06727  -0.00000   0.00000   0.00000   0.00000   2.06727
   A19        2.59534  -0.00027  -0.00001   0.00000  -0.00001   2.59533
   A20        2.14469  -0.00029  -0.00000   0.00000  -0.00000   2.14468
   A21        1.77424   0.00001   0.00000   0.00000   0.00000   1.77425
   A22        0.58714  -0.00005   0.00000   0.00000   0.00000   0.58714
   A23        0.98542  -0.00040  -0.00000   0.00000  -0.00000   0.98542
   A24        0.39965  -0.00034  -0.00000   0.00000  -0.00000   0.39965
   A25        2.94823   0.00028  -0.00000   0.00000  -0.00000   2.94823
   A26        1.11671   0.00019   0.00000   0.00000   0.00000   1.11671
   A27        3.01843   0.00003   0.00001   0.00000   0.00001   3.01844
   A28        1.36331  -0.00009  -0.00001   0.00000  -0.00001   1.36330
   A29        1.94094  -0.00017   0.00000   0.00000   0.00000   1.94094
   A30        1.93431   0.00010  -0.00000   0.00000  -0.00000   1.93431
   A31        1.89898   0.00006  -0.00000   0.00000  -0.00000   1.89898
   A32        1.16309  -0.00022   0.00000   0.00000   0.00000   1.16309
   A33        0.36425   0.00017   0.00000   0.00000   0.00000   0.36425
   A34        2.70011   0.00017   0.00000   0.00000  -0.00000   2.70011
   A35        0.86913   0.00002   0.00000   0.00000   0.00000   0.86914
   A36        1.35721  -0.00002   0.00001   0.00000   0.00001   1.35722
   A37        1.97678   0.00003   0.00000   0.00000   0.00000   1.97679
   A38        0.79830   0.00009   0.00000   0.00000   0.00000   0.79830
   A39        0.62244   0.00015   0.00000   0.00000   0.00000   0.62244
   A40        0.64300   0.00029   0.00000   0.00000   0.00000   0.64300
   A41        2.17545  -0.00033  -0.00001   0.00000  -0.00001   2.17544
   A42        1.35801  -0.00008  -0.00001   0.00000  -0.00001   1.35800
   A43        1.05783  -0.00027   0.00000   0.00000   0.00000   1.05783
   A44        2.78409  -0.00001  -0.00000   0.00000  -0.00000   2.78409
   A45        2.56794   0.00002  -0.00000   0.00000  -0.00000   2.56794
   A46        2.83180  -0.00000   0.00000   0.00000   0.00000   2.83181
   A47        3.38520   0.00039  -0.00000   0.00000  -0.00000   3.38520
   A48        1.52734  -0.00005   0.00000   0.00000   0.00000   1.52735
   A49        2.02698   0.00007  -0.00001   0.00000  -0.00001   2.02696
   A50        1.47073  -0.00016  -0.00000   0.00000  -0.00000   1.47072
   A51        3.46180   0.00000   0.00000   0.00000   0.00000   3.46180
   A52        2.86773  -0.00002   0.00000   0.00000   0.00000   2.86773
   A53        2.43483   0.00001   0.00000   0.00000   0.00000   2.43483
   A54        2.17770   0.00011  -0.00000   0.00000  -0.00000   2.17769
   A55        1.15259   0.00013  -0.00001   0.00000  -0.00001   1.15258
    D1       -2.20102  -0.00005   0.00000   0.00000   0.00000  -2.20102
    D2        1.97342  -0.00002   0.00000   0.00000   0.00000   1.97343
    D3       -0.13732   0.00009   0.00000   0.00000   0.00000  -0.13731
    D4        0.92882  -0.00006   0.00000   0.00000   0.00000   0.92882
    D5       -1.17992  -0.00002   0.00000   0.00000   0.00000  -1.17991
    D6        2.99253   0.00009   0.00000   0.00000   0.00000   2.99254
    D7       -2.84416   0.00001  -0.00001   0.00000  -0.00001  -2.84417
    D8       -2.36252   0.00005  -0.00001   0.00000  -0.00001  -2.36252
    D9       -0.87631  -0.00012  -0.00001   0.00000  -0.00001  -0.87631
   D10       -0.39466  -0.00007  -0.00001   0.00000  -0.00001  -0.39467
   D11        1.97434   0.00003  -0.00001   0.00000  -0.00001   1.97433
   D12        2.45598   0.00007  -0.00001   0.00000  -0.00001   2.45597
   D13        0.02687  -0.00007   0.00000   0.00000   0.00000   0.02687
   D14        3.10367  -0.00006  -0.00000   0.00000  -0.00000   3.10367
   D15        1.91333  -0.00012   0.00000   0.00000   0.00000   1.91333
   D16       -2.04231  -0.00014  -0.00001   0.00000  -0.00001  -2.04231
   D17       -2.55234   0.00007  -0.00000   0.00000  -0.00000  -2.55234
   D18       -0.56829  -0.00005   0.00000   0.00000   0.00000  -0.56829
   D19        0.65712   0.00005  -0.00000   0.00000  -0.00000   0.65711
   D20       -3.10539  -0.00005  -0.00000   0.00000  -0.00000  -3.10539
   D21       -3.09546  -0.00004  -0.00000   0.00000  -0.00000  -3.09546
   D22       -0.01819  -0.00001  -0.00000   0.00000  -0.00000  -0.01819
   D23        0.75289  -0.00004  -0.00000   0.00000  -0.00000   0.75289
   D24       -2.45302  -0.00001  -0.00000   0.00000  -0.00000  -2.45302
   D25        1.98339   0.00008   0.00000   0.00000   0.00000   1.98339
   D26       -1.93608   0.00014  -0.00001   0.00000  -0.00001  -1.93609
   D27       -0.88434   0.00009   0.00000   0.00000   0.00000  -0.88434
   D28        1.47937   0.00016  -0.00001   0.00000  -0.00001   1.47936
   D29       -0.82865  -0.00035   0.00002   0.00000   0.00002  -0.82863
   D30       -1.39295  -0.00000   0.00001   0.00000   0.00001  -1.39294
   D31       -1.55645   0.00018   0.00001   0.00000   0.00001  -1.55645
   D32        2.37573  -0.00038   0.00002   0.00000   0.00002   2.37575
   D33        1.81143  -0.00003   0.00001   0.00000   0.00001   1.81144
   D34        1.64793   0.00015   0.00001   0.00000   0.00001   1.64793
   D35       -1.50400   0.00030  -0.00003   0.00000  -0.00003  -1.50403
   D36       -0.55857  -0.00010  -0.00001   0.00000  -0.00001  -0.55857
   D37       -0.60668  -0.00013  -0.00001   0.00000  -0.00001  -0.60669
   D38       -0.61208   0.00000  -0.00004   0.00000  -0.00004  -0.61212
   D39        3.05487  -0.00001  -0.00002   0.00000  -0.00002   3.05485
   D40       -0.18994  -0.00013  -0.00002   0.00000  -0.00002  -0.18996
   D41        0.44338  -0.00007  -0.00000   0.00000  -0.00000   0.44338
   D42       -0.39941  -0.00001  -0.00002   0.00000  -0.00002  -0.39943
   D43       -2.27069  -0.00002   0.00001   0.00000   0.00001  -2.27068
   D44       -3.11348   0.00005  -0.00000   0.00000  -0.00000  -3.11349
   D45       -2.33923  -0.00011   0.00001   0.00000   0.00001  -2.33921
   D46        3.10117  -0.00005  -0.00001   0.00000  -0.00001   3.10116
   D47        0.54060   0.00009   0.00000   0.00000   0.00000   0.54060
   D48       -0.48916  -0.00020  -0.00001   0.00000  -0.00001  -0.48917
   D49       -1.46214   0.00004  -0.00001   0.00000  -0.00001  -1.46215
   D50       -0.04077   0.00007   0.00000   0.00000   0.00000  -0.04076
   D51       -2.21846  -0.00004   0.00001   0.00000   0.00001  -2.21846
   D52        0.80065   0.00005  -0.00003   0.00000  -0.00003   0.80062
   D53       -1.37704  -0.00006  -0.00003   0.00000  -0.00003  -1.37707
   D54       -2.14336  -0.00001  -0.00000   0.00000  -0.00000  -2.14336
   D55        1.96213  -0.00012   0.00000   0.00000   0.00000   1.96213
   D56       -3.00979  -0.00007   0.00002   0.00000   0.00002  -3.00977
   D57        0.23022  -0.00010   0.00001   0.00000   0.00001   0.23022
   D58       -1.88453  -0.00012   0.00001   0.00000   0.00001  -1.88453
   D59        1.33454   0.00006   0.00003   0.00000   0.00003   1.33457
   D60        2.13648   0.00007   0.00000   0.00000   0.00000   2.13648
   D61       -2.01139   0.00012   0.00000   0.00000   0.00000  -2.01139
   D62       -1.12803   0.00005  -0.00000   0.00000  -0.00000  -1.12803
   D63       -2.10482  -0.00008   0.00000   0.00000   0.00000  -2.10482
   D64        2.03904   0.00003  -0.00000   0.00000  -0.00000   2.03904
   D65        0.09030  -0.00007  -0.00001   0.00000  -0.00001   0.09029
   D66       -0.61783   0.00012   0.00000   0.00000   0.00000  -0.61783
   D67       -0.13074  -0.00004   0.00000   0.00000   0.00000  -0.13074
   D68       -1.06785   0.00001   0.00000   0.00000   0.00000  -1.06785
   D69       -0.15530   0.00007   0.00002   0.00000   0.00002  -0.15528
   D70        0.66252  -0.00002   0.00000   0.00000   0.00000   0.66253
   D71        1.84101  -0.00000   0.00000   0.00000   0.00000   1.84101
   D72       -0.63929   0.00012  -0.00000   0.00000  -0.00000  -0.63929
         Item               Value     Threshold  Converged?
 Maximum Force            0.000826     0.000450     NO 
 RMS     Force            0.000197     0.000300     YES
 Maximum Displacement     0.000062     0.001800     YES
 RMS     Displacement     0.000012     0.001200     YES
 Predicted change in Energy=-1.308100D-08
 GradGradGradGradGradGradGradGradGradGradGradGradGradGradGradGradGradGrad

                          Input orientation:                          
 ---------------------------------------------------------------------
 Center     Atomic      Atomic             Coordinates (Angstroms)
 Number     Number       Type             X           Y           Z
 ---------------------------------------------------------------------
      1          8           0        2.451227   -0.098662    0.450322
      2          6           0        3.350907    0.529613    0.939485
      3          6           0        3.125526    1.566143    2.032308
      4         16           0        3.856095    3.195513    1.580015
      5          6           0        6.734188    2.412350    1.479074
      6          7           0        6.755826    1.777408    0.348531
      7          6           0        7.979834    1.931058    1.073554
      8          6           0        9.280667    1.691424    1.126248
      9         16           0       10.235503    2.200214    2.530842
     10         16           0       11.022818    4.546715    4.683910
     11          6           0       11.637017    6.147401    2.429607
     12          7           0       11.573032    5.701708    5.466097
     13          6           0       11.122878    4.814760    2.888445
     14          6           0       10.718425    3.833364    2.061512
     15         16           0        5.686949    3.216838    2.563648
     16          1           0        4.405907    0.405850    0.620182
     17          1           0        3.569531    1.242462    2.977855
     18          1           0        2.054079    1.728222    2.174221
     19          1           0       10.702403    3.993633    0.985680
     20          1           0        9.774458    1.129781    0.342820
     21          1           0       11.533428    6.259901    1.346770
     22          1           0       12.692561    6.271533    2.698388
     23          1           0       11.099060    6.963860    2.919597
 ---------------------------------------------------------------------
                    Distance matrix (angstroms):
                    1          2          3          4          5
     1  O    0.000000
     2  C    1.201430   0.000000
     3  C    2.393520   1.522976   0.000000
     4  S    3.755190   2.787923   1.842049   0.000000
     5  C    5.070234   3.909277   3.747609   2.984452   0.000000
     6  N    4.696763   3.674193   4.007345   3.454853   1.296821
     7  C    5.922304   4.838284   4.961519   4.342875   1.395607
     8  C    7.092428   6.045390   6.222732   5.647492   2.669976
     9  S    8.379042   7.260922   7.155582   6.526219   3.662024
    10  S   10.628969   9.434832   8.847712   7.926022   5.763578
    11  C   11.283157  10.121247   9.674257   8.365297   6.236333
    12  N   11.916779  10.716535  10.012700   8.996319   7.080300
    13  C   10.260785   9.086499   8.674337   7.559106   5.197932
    14  C    9.295340   8.151935   7.924220   6.908709   4.269972
    15  S    5.092012   3.913589   3.093219   2.078464   1.708863
    16  H    2.025873   1.109188   2.231537   3.000965   3.191336
    17  H    3.072074   2.170461   1.093603   2.418777   3.691888
    18  H    2.543041   2.154762   1.092890   2.398601   4.780658
    19  H    9.225801   8.126873   8.024786   6.918248   4.300072
    20  H    7.426328   6.479060   6.874087   6.389438   3.489884
    21  H   11.123009   9.997787   9.653711   8.269602   6.152549
    22  H   12.268583  11.105399  10.682346   9.423152   7.202932
    23  H   11.435102  10.264223   9.669533   8.273781   6.468652
                    6          7          8          9         10
     6  N    0.000000
     7  C    1.430895   0.000000
     8  C    2.643304   1.323770   0.000000
     9  S    4.129091   2.698922   1.772981   0.000000
    10  S    6.683696   5.397785   4.883107   3.280493   0.000000
    11  C    6.874135   5.743816   5.206425   4.189842   2.832193
    12  N    8.049539   6.813465   6.338107   4.760794   1.499520
    13  C    5.894727   4.635547   4.031663   2.784091   1.818119
    14  C    4.781574   3.477745   2.744043   1.766540   2.734684
    15  S    2.849771   3.021742   4.160266   4.660895   5.893690
    16  H    2.734426   3.912129   5.066763   6.391756   8.800236
    17  H    4.165572   4.852968   6.020556   6.749244   8.329478
    18  H    5.044006   6.030521   7.302272   8.202783   9.730402
    19  H    4.570894   3.416770   2.709476   2.412856   3.753062
    20  H    3.087328   2.096829   1.083066   2.479078   5.663824
    21  H    6.626816   5.607277   5.098485   4.423539   3.785794
    22  H    7.807932   6.609811   5.923685   4.758240   3.115339
    23  H    7.236943   6.202140   5.858433   4.856870   2.993527
                   11         12         13         14         15
    11  C    0.000000
    12  N    3.069692   0.000000
    13  C    1.500268   2.762898   0.000000
    14  C    2.516759   3.976463   1.345562   0.000000
    15  S    6.633964   7.017461   5.675224   5.093918   0.000000
    16  H    9.408952  10.143800   8.348724   7.326197   3.649627
    17  H    9.457449   9.493801   8.355978   7.658926   2.924583
    18  H   10.555902  10.827535   9.606246   8.917131   3.945298
    19  H    2.756292   4.873361   2.114607   1.087822   5.314901
    20  H    5.744590   7.098263   4.677340   3.339810   5.098589
    21  H    1.093583   4.157163   2.152614   2.657662   6.702413
    22  H    1.096278   3.039450   2.149934   3.201170   7.643816
    23  H    1.093661   2.881378   2.149459   3.268211   6.592255
                   16         17         18         19         20
    16  H    0.000000
    17  H    2.637814   0.000000
    18  H    3.113648   1.782803   0.000000
    19  H    7.256144   7.900352   9.018771   0.000000
    20  H    5.424237   6.742198   7.957162   3.078310   0.000000
    21  H    9.251994   9.552947  10.539395   2.440689   5.515435
    22  H   10.363098  10.421101  11.579885   3.476051   6.364089
    23  H    9.648477   9.456829  10.477556   3.566458   6.513895
                   21         22         23
    21  H    0.000000
    22  H    1.780617   0.000000
    23  H    1.777082   1.751427   0.000000
 Stoichiometry    C8H8N2OS4
 Framework group  C1[X(C8H8N2OS4)]
 Deg. of freedom    63
 Full point group                 C1      NOp   1
 Largest Abelian subgroup         C1      NOp   1
 Largest concise Abelian subgroup C1      NOp   1
                         Standard orientation:                         
 ---------------------------------------------------------------------
 Center     Atomic      Atomic             Coordinates (Angstroms)
 Number     Number       Type             X           Y           Z
 ---------------------------------------------------------------------
      1          8           0       -6.288238   -0.785501    0.441560
      2          6           0       -5.124453   -0.487113    0.439756
      3          6           0       -4.647705    0.948949    0.612650
      4         16           0       -3.526243    1.458736   -0.756870
      5          6           0       -1.278668   -0.440977   -0.260430
      6          7           0       -1.800385   -1.533980   -0.724005
      7          6           0       -0.456821   -1.568601   -0.232989
      8          6           0        0.627667   -2.292982   -0.005997
      9         16           0        2.047193   -1.571892    0.774026
     10         16           0        4.193377    0.902752    0.951985
     11          6           0        4.708113    0.405242   -1.788243
     12          7           0        5.318640    1.886380    0.830248
     13          6           0        3.889395    0.001673   -0.597598
     14          6           0        2.945002   -0.956591   -0.617379
     15         16           0       -1.620270    1.207454    0.033156
     16          1           0       -4.318123   -1.235902    0.300314
     17          1           0       -4.112268    1.073611    1.558025
     18          1           0       -5.503180    1.628724    0.590761
     19          1           0        2.695122   -1.462138   -1.547615
     20          1           0        0.647784   -3.350881   -0.237250
     21          1           0        4.360949   -0.096828   -2.695617
     22          1           0        5.766242    0.163822   -1.633632
     23          1           0        4.661516    1.486383   -1.946537
 ---------------------------------------------------------------------
 Rotational constants (GHZ):           0.8209704           0.1360645           0.1260707
 Standard basis: 6-31G(2df,p) (6D, 7F)
 There are   521 symmetry adapted cartesian basis functions of A   symmetry.
 There are   476 symmetry adapted basis functions of A   symmetry.
   476 basis functions,   812 primitive gaussians,   521 cartesian basis functions
    71 alpha electrons       71 beta electrons
       nuclear repulsion energy      1295.3121835480 Hartrees.
 NAtoms=   23 NActive=   23 NUniq=   23 SFac= 1.00D+00 NAtFMM=   60 NAOKFM=F Big=F
 Integral buffers will be    131072 words long.
 Raffenetti 2 integral format.
 Two-electron integral symmetry is turned on.
 One-electron integrals computed using PRISM.
 PrsmSu:  requested number of processors reduced to:  12 ShMem   1 Linda.
slurmstepd: error: *** JOB 27448819 ON lewis4-r630-hpc4-node299 CANCELLED AT 2023-05-20T10:57:20 DUE TO TIME LIMIT ***
