### Starting Gaussian ###
 Entering Gaussian System, Link 0=g16
 Initial command:
 /cluster/software/gaussian/gaussian-16-A.03/avx2/g16/l1.exe "/local/scratch/yxie/Gau-9756.inp" -scrdir="/local/scratch/yxie/"
 Entering Link 1 = /cluster/software/gaussian/gaussian-16-A.03/avx2/g16/l1.exe PID=      9757.
  
 Copyright (c) 1988,1990,1992,1993,1995,1998,2003,2009,2016,
            Gaussian, Inc.  All Rights Reserved.
  
 This is part of the Gaussian(R) 16 program.  It is based on
 the Gaussian(R) 09 system (copyright 2009, Gaussian, Inc.),
 the Gaussian(R) 03 system (copyright 2003, Gaussian, Inc.),
 the Gaussian(R) 98 system (copyright 1998, Gaussian, Inc.),
 the Gaussian(R) 94 system (copyright 1995, Gaussian, Inc.),
 the Gaussian 92(TM) system (copyright 1992, Gaussian, Inc.),
 the Gaussian 90(TM) system (copyright 1990, Gaussian, Inc.),
 the Gaussian 88(TM) system (copyright 1988, Gaussian, Inc.),
 the Gaussian 86(TM) system (copyright 1986, Carnegie Mellon
 University), and the Gaussian 82(TM) system (copyright 1983,
 Carnegie Mellon University). Gaussian is a federally registered
 trademark of Gaussian, Inc.
  
 This software contains proprietary and confidential information,
 including trade secrets, belonging to Gaussian, Inc.
  
 This software is provided under written license and may be
 used, copied, transmitted, or stored only in accord with that
 written license.
  
 The following legend is applicable only to US Government
 contracts under FAR:
  
                    RESTRICTED RIGHTS LEGEND
  
 Use, reproduction and disclosure by the US Government is
 subject to restrictions as set forth in subparagraphs (a)
 and (c) of the Commercial Computer Software - Restricted
 Rights clause in FAR 52.227-19.
  
 Gaussian, Inc.
 340 Quinnipiac St., Bldg. 40, Wallingford CT 06492
  
  
 ---------------------------------------------------------------
 Warning -- This program may not be used in any manner that
 competes with the business of Gaussian, Inc. or will provide
 assistance to any competitor of Gaussian, Inc.  The licensee
 of this program is prohibited from giving any competitor of
 Gaussian, Inc. access to this program.  By using this program,
 the user acknowledges that Gaussian, Inc. is engaged in the
 business of creating and licensing software in the field of
 computational chemistry and represents and warrants to the
 licensee that it is not a competitor of Gaussian, Inc. and that
 it will not use this program in any manner prohibited above.
 ---------------------------------------------------------------
  

 Cite this work as:
 Gaussian 16, Revision A.03,
 M. J. Frisch, G. W. Trucks, H. B. Schlegel, G. E. Scuseria, 
 M. A. Robb, J. R. Cheeseman, G. Scalmani, V. Barone, 
 G. A. Petersson, H. Nakatsuji, X. Li, M. Caricato, A. V. Marenich, 
 J. Bloino, B. G. Janesko, R. Gomperts, B. Mennucci, H. P. Hratchian, 
 J. V. Ortiz, A. F. Izmaylov, J. L. Sonnenberg, D. Williams-Young, 
 F. Ding, F. Lipparini, F. Egidi, J. Goings, B. Peng, A. Petrone, 
 T. Henderson, D. Ranasinghe, V. G. Zakrzewski, J. Gao, N. Rega, 
 G. Zheng, W. Liang, M. Hada, M. Ehara, K. Toyota, R. Fukuda, 
 J. Hasegawa, M. Ishida, T. Nakajima, Y. Honda, O. Kitao, H. Nakai, 
 T. Vreven, K. Throssell, J. A. Montgomery, Jr., J. E. Peralta, 
 F. Ogliaro, M. J. Bearpark, J. J. Heyd, E. N. Brothers, K. N. Kudin, 
 V. N. Staroverov, T. A. Keith, R. Kobayashi, J. Normand, 
 K. Raghavachari, A. P. Rendell, J. C. Burant, S. S. Iyengar, 
 J. Tomasi, M. Cossi, J. M. Millam, M. Klene, C. Adamo, R. Cammi, 
 J. W. Ochterski, R. L. Martin, K. Morokuma, O. Farkas, 
 J. B. Foresman, and D. J. Fox, Gaussian, Inc., Wallingford CT, 2016.
 
 ******************************************
 Gaussian 16:  ES64L-G16RevA.03 25-Dec-2016
                16-May-2023 
 ******************************************
 %chk=OdCd[SH]C1dCCdCdCdCOCdCdC1.chk
 %NProcShared=20
 Will use up to   20 processors via shared memory.
 -----------------------------
 # opt freq b3lyp/6-31g(2df,p)
 -----------------------------
 1/18=20,19=15,26=3,38=1/1,3;
 2/9=110,12=2,17=6,18=5,40=1/2;
 3/5=1,6=6,7=104,11=2,25=1,30=1,71=1,74=-5/1,2,3;
 4//1;
 5/5=2,38=5/2;
 6/7=2,8=2,9=2,10=2,28=1/1;
 7//1,2,3,16;
 1/18=20,19=15,26=3/3(2);
 2/9=110/2;
 99//99;
 2/9=110/2;
 3/5=1,6=6,7=104,11=2,25=1,30=1,71=1,74=-5/1,2,3;
 4/5=5,16=3,69=1/1;
 5/5=2,38=5/2;
 7//1,2,3,16;
 1/18=20,19=15,26=3/3(-5);
 2/9=110/2;
 6/7=2,8=2,9=2,10=2,19=2,28=1/1;
 99/9=1/99;
 -------------------
 Title Card Required
 -------------------
 Symbolic Z-matrix:
 Charge =  0 Multiplicity = 1
 O                     1.62789  -0.13908   0.02072 
 C                     2.76079  -0.49437  -0.10481 
 S                     4.39227  -0.58489  -0.32501 
 C                     5.46533  -2.46389  -0.561 
 C                     6.22619  -1.98793   0.44083 
 C                     6.67141  -2.96353   1.3667 
 C                     7.9853   -3.02051   1.46461 
 C                     9.13138  -3.06248   1.29561 
 C                     10.30316  -3.44589   0.83929 
 O                     10.16786  -4.72222   0.36859 
 C                     9.50348  -4.898    -0.94519 
 C                     8.18435  -4.25648  -1.03198 
 C                     6.7334   -3.69447  -1.12438 
 H                     4.6495    0.21337   0.77244 
 H                     6.67234  -0.9938    0.31187 
 H                     6.05508  -3.87538   1.31772 
 H                     11.26023  -3.3032    1.3192 
 H                     10.79388  -5.07574  -0.93353 
 H                     5.95324  -4.45301  -0.78968 
 
 Add virtual bond connecting atoms H18        and C11        Dist= 2.46D+00.

 GradGradGradGradGradGradGradGradGradGradGradGradGradGradGradGradGradGrad
 Berny optimization.
 Initialization pass.
                           ----------------------------
                           !    Initial Parameters    !
                           ! (Angstroms and Degrees)  !
 --------------------------                            --------------------------
 ! Name  Definition              Value          Derivative Info.                !
 --------------------------------------------------------------------------------
 ! R1    R(1,2)                  1.1939         estimate D2E/DX2                !
 ! R2    R(2,3)                  1.6488         estimate D2E/DX2                !
 ! R3    R(3,4)                  2.1766         estimate D2E/DX2                !
 ! R4    R(3,14)                 1.3812         estimate D2E/DX2                !
 ! R5    R(4,5)                  1.345          estimate D2E/DX2                !
 ! R6    R(5,6)                  1.4168         estimate D2E/DX2                !
 ! R7    R(5,15)                 1.0973         estimate D2E/DX2                !
 ! R8    R(6,7)                  1.3188         estimate D2E/DX2                !
 ! R9    R(6,16)                 1.1017         estimate D2E/DX2                !
 ! R10   R(7,8)                  1.1592         estimate D2E/DX2                !
 ! R11   R(8,9)                  1.3146         estimate D2E/DX2                !
 ! R12   R(9,10)                 1.3671         estimate D2E/DX2                !
 ! R13   R(9,17)                 1.0801         estimate D2E/DX2                !
 ! R14   R(10,11)                1.4827         estimate D2E/DX2                !
 ! R15   R(11,12)                1.4694         estimate D2E/DX2                !
 ! R16   R(11,18)                1.3026         estimate D2E/DX2                !
 ! R17   R(12,13)                1.5587         estimate D2E/DX2                !
 ! R18   R(13,19)                1.1384         estimate D2E/DX2                !
 ! A1    A(2,3,4)              123.3461         estimate D2E/DX2                !
 ! A2    A(2,3,14)              92.6615         estimate D2E/DX2                !
 ! A3    A(4,3,14)             119.5537         estimate D2E/DX2                !
 ! A4    A(3,4,5)               83.8371         estimate D2E/DX2                !
 ! A5    A(4,5,6)              114.888          estimate D2E/DX2                !
 ! A6    A(4,5,15)             117.5857         estimate D2E/DX2                !
 ! A7    A(6,5,15)             124.9539         estimate D2E/DX2                !
 ! A8    A(5,6,7)              113.0391         estimate D2E/DX2                !
 ! A9    A(5,6,16)             111.413          estimate D2E/DX2                !
 ! A10   A(7,6,16)             121.6621         estimate D2E/DX2                !
 ! A11   A(7,8,9)              160.4542         estimate D2E/DX2                !
 ! A12   A(8,9,10)             107.673          estimate D2E/DX2                !
 ! A13   A(8,9,17)             126.6578         estimate D2E/DX2                !
 ! A14   A(10,9,17)            111.347          estimate D2E/DX2                !
 ! A15   A(9,10,11)            117.3953         estimate D2E/DX2                !
 ! A16   A(10,11,12)           113.7561         estimate D2E/DX2                !
 ! A17   A(10,11,18)            64.1738         estimate D2E/DX2                !
 ! A18   A(12,11,18)           161.6936         estimate D2E/DX2                !
 ! A19   A(12,13,19)           112.3483         estimate D2E/DX2                !
 ! A20   L(1,2,3,14,-1)        171.4711         estimate D2E/DX2                !
 ! A21   L(6,7,8,12,-1)        168.8401         estimate D2E/DX2                !
 ! A22   L(11,12,13,7,-1)      181.8365         estimate D2E/DX2                !
 ! A23   L(1,2,3,14,-2)        196.7637         estimate D2E/DX2                !
 ! A24   L(6,7,8,12,-2)        173.9972         estimate D2E/DX2                !
 ! A25   L(11,12,13,7,-2)      184.4642         estimate D2E/DX2                !
 ! D1    D(2,3,4,5)           -127.0028         estimate D2E/DX2                !
 ! D2    D(2,3,4,14)          -115.9134         estimate D2E/DX2                !
 ! D3    D(14,3,4,5)           -11.0894         estimate D2E/DX2                !
 ! D4    D(3,4,5,6)            143.3615         estimate D2E/DX2                !
 ! D5    D(3,4,5,15)           -53.8988         estimate D2E/DX2                !
 ! D6    D(4,5,6,7)            121.72           estimate D2E/DX2                !
 ! D7    D(4,5,6,16)           -19.4926         estimate D2E/DX2                !
 ! D8    D(15,5,6,7)           -39.5649         estimate D2E/DX2                !
 ! D9    D(15,5,6,16)          179.2225         estimate D2E/DX2                !
 ! D10   D(5,6,8,9)            -84.0622         estimate D2E/DX2                !
 ! D11   D(16,6,8,9)            47.4511         estimate D2E/DX2                !
 ! D12   D(7,8,9,10)           -19.7923         estimate D2E/DX2                !
 ! D13   D(7,8,9,17)          -155.3018         estimate D2E/DX2                !
 ! D14   D(8,9,10,11)           76.5375         estimate D2E/DX2                !
 ! D15   D(17,9,10,11)        -140.5905         estimate D2E/DX2                !
 ! D16   D(9,10,11,12)         -53.4641         estimate D2E/DX2                !
 ! D17   D(9,10,11,18)         106.4805         estimate D2E/DX2                !
 ! D18   D(10,11,13,19)        -88.8052         estimate D2E/DX2                !
 ! D19   D(18,11,13,19)       -170.5069         estimate D2E/DX2                !
 --------------------------------------------------------------------------------
 Trust Radius=3.00D-01 FncErr=1.00D-07 GrdErr=1.00D-06 EigMax=2.50D+02 EigMin=1.00D-04
 Number of steps in this run=     72 maximum allowed number of steps=    114.
 GradGradGradGradGradGradGradGradGradGradGradGradGradGradGradGradGradGrad

                          Input orientation:                          
 ---------------------------------------------------------------------
 Center     Atomic      Atomic             Coordinates (Angstroms)
 Number     Number       Type             X           Y           Z
 ---------------------------------------------------------------------
      1          8           0        1.627890   -0.139080    0.020720
      2          6           0        2.760790   -0.494370   -0.104810
      3         16           0        4.392270   -0.584890   -0.325010
      4          6           0        5.465330   -2.463890   -0.561000
      5          6           0        6.226190   -1.987930    0.440830
      6          6           0        6.671410   -2.963530    1.366700
      7          6           0        7.985300   -3.020510    1.464610
      8          6           0        9.131380   -3.062480    1.295610
      9          6           0       10.303160   -3.445890    0.839290
     10          8           0       10.167860   -4.722220    0.368590
     11          6           0        9.503480   -4.898000   -0.945190
     12          6           0        8.184350   -4.256480   -1.031980
     13          6           0        6.733400   -3.694470   -1.124380
     14          1           0        4.649500    0.213370    0.772440
     15          1           0        6.672340   -0.993800    0.311870
     16          1           0        6.055080   -3.875380    1.317720
     17          1           0       11.260230   -3.303200    1.319200
     18          1           0       10.793880   -5.075740   -0.933530
     19          1           0        5.953240   -4.453010   -0.789680
 ---------------------------------------------------------------------
                    Distance matrix (angstroms):
                    1          2          3          4          5
     1  O    0.000000
     2  C    1.193923   0.000000
     3  S    2.821360   1.648760   0.000000
     4  C    4.524277   3.376634   2.176647   0.000000
     5  C    4.973842   3.812800   2.432755   1.345031   0.000000
     6  C    5.935173   4.853354   3.703281   2.328153   1.416775
     7  C    7.127701   6.011653   4.695194   3.280727   2.282283
     8  C    8.153157   7.010049   5.587846   4.152738   3.213322
     9  C    9.320159   8.154149   6.669298   5.131251   4.348115
    10  O    9.698313   8.541868   7.138349   5.298866   4.797741
    11  C    9.252309   8.097040   6.716547   4.730661   4.596758
    12  C    7.813343   6.665442   5.325434   3.290634   3.339143
    13  C    6.326001   5.202095   3.973584   1.854650   2.370532
    14  H    3.133597   2.199475   1.381225   3.100220   2.727937
    15  H    5.124626   3.965259   2.402404   2.092831   1.097258
    16  H    5.936511   4.930230   4.036189   2.422746   2.088225
    17  H   10.221530   9.064095   7.567134   6.149834   5.276649
    18  H   10.454500   9.284733   7.843382   5.945922   5.682185
    19  H    6.162418   5.131434   4.197011   2.060813   2.768623
                    6          7          8          9         10
     6  C    0.000000
     7  C    1.318765   0.000000
     8  C    2.462985   1.159233   0.000000
     9  C    3.701411   2.438124   1.314648   0.000000
    10  O    4.039106   2.976684   2.165270   1.367071   0.000000
    11  C    4.136137   3.411301   2.920407   2.435668   1.482672
    12  C    3.116789   2.792885   2.782117   2.940759   2.472412
    13  C    2.596843   2.953700   3.464978   4.081786   3.883393
    14  H    3.812343   4.697301   5.576033   6.734874   7.414543
    15  H    2.234391   2.675860   3.360663   4.412910   5.111066
    16  H    1.101695   2.116159   3.181967   4.296457   4.304991
    17  H    4.601619   3.290323   2.142546   1.080119   2.027449
    18  H    5.171774   4.226484   3.433102   2.457663   1.487412
    19  H    2.717406   3.356061   4.047540   4.752856   4.379165
                   11         12         13         14         15
    11  C    0.000000
    12  C    1.469416   0.000000
    13  C    3.025547   1.558733   0.000000
    14  H    7.255169   5.977512   4.817860   0.000000
    15  H    4.983807   3.838905   3.059438   2.400264   0.000000
    16  H    4.249468   3.193762   2.541004   4.357851   3.113880
    17  H    3.279790   3.987208   5.159105   7.507793   5.234193
    18  H    1.302636   2.736883   4.293231   8.284831   5.932988
    19  H    3.581397   2.252817   1.138445   5.090684   3.700899
                   16         17         18         19
    16  H    0.000000
    17  H    5.236504   0.000000
    18  H    5.381934   2.904165   0.000000
    19  H    2.187501   5.825254   4.882651   0.000000
 Stoichiometry    C10H6O2S
 Framework group  C1[X(C10H6O2S)]
 Deg. of freedom    51
 Full point group                 C1      NOp   1
 Largest Abelian subgroup         C1      NOp   1
 Largest concise Abelian subgroup C1      NOp   1
                         Standard orientation:                         
 ---------------------------------------------------------------------
 Center     Atomic      Atomic             Coordinates (Angstroms)
 Number     Number       Type             X           Y           Z
 ---------------------------------------------------------------------
      1          8           0        5.507864    0.057476    0.429576
      2          6           0        4.354987    0.068614    0.119412
      3         16           0        2.904576   -0.095564   -0.647245
      4          6           0        1.056872    0.791746    0.085189
      5          6           0        0.581979   -0.461993   -0.023092
      6          6           0       -0.331718   -0.843095    0.990402
      7          6           0       -1.505456   -1.211434    0.515211
      8          6           0       -2.512963   -1.325833   -0.046630
      9          6           0       -3.697222   -1.035732   -0.538230
     10          8           0       -4.186701    0.032039    0.161168
     11          6           0       -3.632055    1.369317   -0.158790
     12          6           0       -2.165744    1.434211   -0.088766
     13          6           0       -0.623954    1.575652    0.091593
     14          1           0        3.021375   -1.470330   -0.711745
     15          1           0        0.691717   -0.964983   -0.992078
     16          1           0       -0.244332   -0.193322    1.875778
     17          1           0       -4.481351   -1.735718   -0.786865
     18          1           0       -4.840774    1.139141   -0.586432
     19          1           0       -0.337494    1.869404    1.153528
 ---------------------------------------------------------------------
 Rotational constants (GHZ):           2.5027732           0.2710276           0.2552068
 Standard basis: 6-31G(2df,p) (6D, 7F)
 There are   437 symmetry adapted cartesian basis functions of A   symmetry.
 There are   398 symmetry adapted basis functions of A   symmetry.
   398 basis functions,   638 primitive gaussians,   437 cartesian basis functions
    49 alpha electrons       49 beta electrons
       nuclear repulsion energy       735.6377296520 Hartrees.
 NAtoms=   19 NActive=   19 NUniq=   19 SFac= 1.00D+00 NAtFMM=   60 NAOKFM=F Big=F
 Integral buffers will be    131072 words long.
 Raffenetti 2 integral format.
 Two-electron integral symmetry is turned on.
 One-electron integrals computed using PRISM.
 PrsmSu:  requested number of processors reduced to:  13 ShMem   1 Linda.
 NBasis=   398 RedAO= T EigKep=  9.64D-05  NBF=   398
 NBsUse=   398 1.00D-06 EigRej= -1.00D+00 NBFU=   398
 ExpMin= 1.17D-01 ExpMax= 2.19D+04 ExpMxC= 3.30D+03 IAcc=3 IRadAn=         5 AccDes= 0.00D+00
 Harris functional with IExCor=  402 and IRadAn=       5 diagonalized for initial guess.
 HarFok:  IExCor=  402 AccDes= 0.00D+00 IRadAn=         5 IDoV= 1 UseB2=F ITyADJ=14
 ICtDFT=  3500011 ScaDFX=  1.000000  1.000000  1.000000  1.000000
 FoFCou: FMM=F IPFlag=           0 FMFlag=      100000 FMFlg1=           0
         NFxFlg=           0 DoJE=T BraDBF=F KetDBF=T FulRan=T
         wScrn=  0.000000 ICntrl=       500 IOpCl=  0 I1Cent=   200000004 NGrid=           0
         NMat0=    1 NMatS0=      1 NMatT0=    0 NMatD0=    1 NMtDS0=    0 NMtDT0=    0
 Petite list used in FoFCou.
 Requested convergence on RMS density matrix=1.00D-08 within 128 cycles.
 Requested convergence on MAX density matrix=1.00D-06.
 Requested convergence on             energy=1.00D-06.
 No special actions if energy rises.
 Integral accuracy reduced to 1.0D-05 until final iterations.
 EnCoef did     7 forward-backward iterations
 EnCoef did     4 forward-backward iterations
 EnCoef did     5 forward-backward iterations
 EnCoef did     5 forward-backward iterations
 EnCoef did     2 forward-backward iterations
 EnCoef did   100 forward-backward iterations
 EnCoef did    10 forward-backward iterations
 EnCoef did     9 forward-backward iterations
 Initial convergence to 1.0D-05 achieved.  Increase integral accuracy.
 SCF Done:  E(RB3LYP) =  -932.508214051     A.U. after   31 cycles
            NFock= 31  Conv=0.80D-08     -V/T= 2.0053

 **********************************************************************

            Population analysis using the SCF density.

 **********************************************************************

 Orbital symmetries:
       Occupied  (A) (A) (A) (A) (A) (A) (A) (A) (A) (A) (A) (A)
                 (A) (A) (A) (A) (A) (A) (A) (A) (A) (A) (A) (A)
                 (A) (A) (A) (A) (A) (A) (A) (A) (A) (A) (A) (A)
                 (A) (A) (A) (A) (A) (A) (A) (A) (A) (A) (A) (A)
                 (A)
       Virtual   (A) (A) (A) (A) (A) (A) (A) (A) (A) (A) (A) (A)
                 (A) (A) (A) (A) (A) (A) (A) (A) (A) (A) (A) (A)
                 (A) (A) (A) (A) (A) (A) (A) (A) (A) (A) (A) (A)
                 (A) (A) (A) (A) (A) (A) (A) (A) (A) (A) (A) (A)
                 (A) (A) (A) (A) (A) (A) (A) (A) (A) (A) (A) (A)
                 (A) (A) (A) (A) (A) (A) (A) (A) (A) (A) (A) (A)
                 (A) (A) (A) (A) (A) (A) (A) (A) (A) (A) (A) (A)
                 (A) (A) (A) (A) (A) (A) (A) (A) (A) (A) (A) (A)
                 (A) (A) (A) (A) (A) (A) (A) (A) (A) (A) (A) (A)
                 (A) (A) (A) (A) (A) (A) (A) (A) (A) (A) (A) (A)
                 (A) (A) (A) (A) (A) (A) (A) (A) (A) (A) (A) (A)
                 (A) (A) (A) (A) (A) (A) (A) (A) (A) (A) (A) (A)
                 (A) (A) (A) (A) (A) (A) (A) (A) (A) (A) (A) (A)
                 (A) (A) (A) (A) (A) (A) (A) (A) (A) (A) (A) (A)
                 (A) (A) (A) (A) (A) (A) (A) (A) (A) (A) (A) (A)
                 (A) (A) (A) (A) (A) (A) (A) (A) (A) (A) (A) (A)
                 (A) (A) (A) (A) (A) (A) (A) (A) (A) (A) (A) (A)
                 (A) (A) (A) (A) (A) (A) (A) (A) (A) (A) (A) (A)
                 (A) (A) (A) (A) (A) (A) (A) (A) (A) (A) (A) (A)
                 (A) (A) (A) (A) (A) (A) (A) (A) (A) (A) (A) (A)
                 (A) (A) (A) (A) (A) (A) (A) (A) (A) (A) (A) (A)
                 (A) (A) (A) (A) (A) (A) (A) (A) (A) (A) (A) (A)
                 (A) (A) (A) (A) (A) (A) (A) (A) (A) (A) (A) (A)
                 (A) (A) (A) (A) (A) (A) (A) (A) (A) (A) (A) (A)
                 (A) (A) (A) (A) (A) (A) (A) (A) (A) (A) (A) (A)
                 (A) (A) (A) (A) (A) (A) (A) (A) (A) (A) (A) (A)
                 (A) (A) (A) (A) (A) (A) (A) (A) (A) (A) (A) (A)
                 (A) (A) (A) (A) (A) (A) (A) (A) (A) (A) (A) (A)
                 (A) (A) (A) (A) (A) (A) (A) (A) (A) (A) (A) (A)
                 (A)
 The electronic state is 1-A.
 Alpha  occ. eigenvalues --  -88.98712 -19.23726 -19.20011 -10.34405 -10.26647
 Alpha  occ. eigenvalues --  -10.25920 -10.24473 -10.23307 -10.22752 -10.19475
 Alpha  occ. eigenvalues --  -10.19010 -10.18894 -10.17728  -8.04452  -6.00894
 Alpha  occ. eigenvalues --   -6.00544  -6.00177  -1.12152  -1.08475  -0.87405
 Alpha  occ. eigenvalues --   -0.84785  -0.80385  -0.74855  -0.71277  -0.67262
 Alpha  occ. eigenvalues --   -0.63404  -0.59521  -0.56466  -0.54199  -0.53535
 Alpha  occ. eigenvalues --   -0.51828  -0.50878  -0.47560  -0.46839  -0.46356
 Alpha  occ. eigenvalues --   -0.44182  -0.42948  -0.41919  -0.39673  -0.38152
 Alpha  occ. eigenvalues --   -0.34871  -0.33703  -0.31849  -0.27302  -0.25606
 Alpha  occ. eigenvalues --   -0.23070  -0.21851  -0.19753  -0.15339
 Alpha virt. eigenvalues --   -0.11838  -0.10674  -0.07779  -0.05298  -0.03169
 Alpha virt. eigenvalues --   -0.01785  -0.00106   0.03958   0.04987   0.06596
 Alpha virt. eigenvalues --    0.09188   0.11337   0.11644   0.12976   0.14696
 Alpha virt. eigenvalues --    0.16138   0.17916   0.20403   0.21784   0.24752
 Alpha virt. eigenvalues --    0.24780   0.26887   0.29080   0.30680   0.32825
 Alpha virt. eigenvalues --    0.34102   0.35087   0.36097   0.37687   0.39532
 Alpha virt. eigenvalues --    0.39984   0.41814   0.42317   0.44281   0.45106
 Alpha virt. eigenvalues --    0.45802   0.46715   0.47902   0.49271   0.50327
 Alpha virt. eigenvalues --    0.50931   0.51915   0.52700   0.54205   0.54763
 Alpha virt. eigenvalues --    0.56279   0.56959   0.57503   0.57841   0.59763
 Alpha virt. eigenvalues --    0.60674   0.63044   0.63306   0.64367   0.64976
 Alpha virt. eigenvalues --    0.66027   0.66998   0.68086   0.69040   0.69430
 Alpha virt. eigenvalues --    0.71739   0.72237   0.72775   0.74496   0.74794
 Alpha virt. eigenvalues --    0.75065   0.76246   0.76876   0.77340   0.78579
 Alpha virt. eigenvalues --    0.79555   0.80797   0.82076   0.83085   0.84521
 Alpha virt. eigenvalues --    0.86583   0.87421   0.89258   0.90045   0.90581
 Alpha virt. eigenvalues --    0.92916   0.93976   0.94825   0.96167   0.96485
 Alpha virt. eigenvalues --    0.97706   0.98710   0.99906   1.01029   1.03241
 Alpha virt. eigenvalues --    1.04042   1.05335   1.06472   1.08218   1.10210
 Alpha virt. eigenvalues --    1.10618   1.11733   1.13087   1.14941   1.16542
 Alpha virt. eigenvalues --    1.17062   1.18394   1.20336   1.21206   1.22874
 Alpha virt. eigenvalues --    1.26005   1.26344   1.27801   1.29692   1.32180
 Alpha virt. eigenvalues --    1.33815   1.37215   1.38726   1.40810   1.40937
 Alpha virt. eigenvalues --    1.42881   1.45359   1.45811   1.46830   1.47970
 Alpha virt. eigenvalues --    1.48830   1.50628   1.52546   1.54022   1.54452
 Alpha virt. eigenvalues --    1.56673   1.57984   1.59437   1.63847   1.65101
 Alpha virt. eigenvalues --    1.67197   1.70202   1.70634   1.71589   1.72223
 Alpha virt. eigenvalues --    1.74614   1.76112   1.77939   1.79269   1.81257
 Alpha virt. eigenvalues --    1.82634   1.84796   1.86076   1.88443   1.90413
 Alpha virt. eigenvalues --    1.93093   1.96210   1.99477   2.00378   2.02603
 Alpha virt. eigenvalues --    2.03576   2.07310   2.10582   2.13888   2.14870
 Alpha virt. eigenvalues --    2.16117   2.19014   2.20693   2.22907   2.25050
 Alpha virt. eigenvalues --    2.28251   2.32583   2.35052   2.37704   2.40367
 Alpha virt. eigenvalues --    2.44507   2.45906   2.48468   2.49484   2.55398
 Alpha virt. eigenvalues --    2.56071   2.56728   2.58237   2.60248   2.62862
 Alpha virt. eigenvalues --    2.63772   2.64870   2.65861   2.67802   2.70916
 Alpha virt. eigenvalues --    2.72790   2.74387   2.75462   2.75595   2.76421
 Alpha virt. eigenvalues --    2.78783   2.81027   2.81620   2.84229   2.85316
 Alpha virt. eigenvalues --    2.86522   2.89599   2.91056   2.93114   2.94586
 Alpha virt. eigenvalues --    2.95505   2.96670   2.98232   2.99003   2.99709
 Alpha virt. eigenvalues --    3.02710   3.03688   3.05628   3.06569   3.08823
 Alpha virt. eigenvalues --    3.09687   3.10783   3.13054   3.14146   3.14697
 Alpha virt. eigenvalues --    3.18877   3.19554   3.22266   3.23991   3.26059
 Alpha virt. eigenvalues --    3.26446   3.28014   3.29094   3.31408   3.32089
 Alpha virt. eigenvalues --    3.33180   3.35955   3.37647   3.38307   3.39364
 Alpha virt. eigenvalues --    3.40239   3.44949   3.46589   3.47254   3.49695
 Alpha virt. eigenvalues --    3.51675   3.52502   3.57391   3.58191   3.60623
 Alpha virt. eigenvalues --    3.61359   3.63638   3.65967   3.67555   3.71465
 Alpha virt. eigenvalues --    3.73765   3.77054   3.81373   3.84158   3.85897
 Alpha virt. eigenvalues --    3.89528   3.90797   3.94300   3.99078   4.02546
 Alpha virt. eigenvalues --    4.05291   4.05474   4.09420   4.10663   4.13920
 Alpha virt. eigenvalues --    4.15647   4.16893   4.19476   4.20376   4.20504
 Alpha virt. eigenvalues --    4.22607   4.23363   4.24671   4.25756   4.27346
 Alpha virt. eigenvalues --    4.28830   4.30655   4.31400   4.34338   4.35362
 Alpha virt. eigenvalues --    4.38737   4.40804   4.42245   4.44766   4.45462
 Alpha virt. eigenvalues --    4.50413   4.50977   4.53194   4.53869   4.54586
 Alpha virt. eigenvalues --    4.56267   4.59774   4.60388   4.62564   4.64197
 Alpha virt. eigenvalues --    4.65861   4.67907   4.68892   4.70767   4.71403
 Alpha virt. eigenvalues --    4.73337   4.74886   4.76193   4.78141   4.80394
 Alpha virt. eigenvalues --    4.80966   4.84761   4.91697   4.93421   4.95655
 Alpha virt. eigenvalues --    4.96565   4.99149   4.99156   5.01224   5.02844
 Alpha virt. eigenvalues --    5.05320   5.06424   5.14561   5.18343   5.23044
 Alpha virt. eigenvalues --    5.25652   5.26122   5.30834   5.35572   5.39327
 Alpha virt. eigenvalues --    5.39921   5.40167   5.44309   5.49273   5.52125
 Alpha virt. eigenvalues --    5.58415   5.59453   5.65880   5.73674   5.81034
 Alpha virt. eigenvalues --    5.91307   5.94067   5.95846   5.97342   6.09059
 Alpha virt. eigenvalues --    6.15860   6.34836   6.65137   6.71464   6.77171
 Alpha virt. eigenvalues --    6.94003   7.34820   9.70993  10.09708  10.52583
 Alpha virt. eigenvalues --   10.85912  10.92707  11.15117  11.41341  11.67678
 Alpha virt. eigenvalues --   11.88525  12.33602  12.95407  13.33042
          Condensed to atoms (all electrons):
               1          2          3          4          5          6
     1  O    7.519179   0.686230  -0.038798   0.000065   0.000011  -0.000000
     2  C    0.686230   4.617444   0.514793  -0.016094  -0.002425   0.000071
     3  S   -0.038798   0.514793  15.435321  -0.054279  -0.034034   0.003359
     4  C    0.000065  -0.016094  -0.054279   5.781070   0.534457  -0.041517
     5  C    0.000011  -0.002425  -0.034034   0.534457   4.705636   0.520125
     6  C   -0.000000   0.000071   0.003359  -0.041517   0.520125   5.302777
     7  C    0.000000  -0.000010  -0.001516   0.000634  -0.008748   0.460941
     8  C    0.000000  -0.000000  -0.000155   0.002416  -0.024678  -0.090123
     9  C    0.000000  -0.000000  -0.000002   0.000006  -0.000413  -0.006911
    10  O    0.000000  -0.000000  -0.000000  -0.000001  -0.000012  -0.000117
    11  C    0.000000  -0.000000  -0.000000  -0.000124   0.000187   0.000842
    12  C   -0.000000  -0.000001  -0.000329  -0.005999  -0.007503  -0.026707
    13  C   -0.000000   0.000101   0.010094   0.197793  -0.020651  -0.062325
    14  H   -0.000060  -0.041633   0.216083  -0.001722   0.000306  -0.002362
    15  H    0.000002  -0.001235  -0.053355  -0.082009   0.341231  -0.048601
    16  H   -0.000000  -0.000019  -0.001016  -0.005851  -0.044282   0.368995
    17  H   -0.000000   0.000000  -0.000000  -0.000001  -0.000011  -0.000148
    18  H    0.000000  -0.000000  -0.000000  -0.000000  -0.000006  -0.000075
    19  H    0.000000  -0.000034  -0.000782  -0.024907  -0.008706   0.007584
               7          8          9         10         11         12
     1  O    0.000000   0.000000   0.000000   0.000000   0.000000  -0.000000
     2  C   -0.000010  -0.000000  -0.000000  -0.000000  -0.000000  -0.000001
     3  S   -0.001516  -0.000155  -0.000002  -0.000000  -0.000000  -0.000329
     4  C    0.000634   0.002416   0.000006  -0.000001  -0.000124  -0.005999
     5  C   -0.008748  -0.024678  -0.000413  -0.000012   0.000187  -0.007503
     6  C    0.460941  -0.090123  -0.006911  -0.000117   0.000842  -0.026707
     7  C    4.648763   0.724726   0.015993  -0.034234   0.006277   0.009056
     8  C    0.724726   4.976145   0.427268  -0.079095  -0.009310   0.007570
     9  C    0.015993   0.427268   5.075378   0.395707  -0.091318   0.005912
    10  O   -0.034234  -0.079095   0.395707   7.853892   0.157546  -0.036403
    11  C    0.006277  -0.009310  -0.091318   0.157546   5.254770   0.632698
    12  C    0.009056   0.007570   0.005912  -0.036403   0.632698   4.873531
    13  C   -0.021210   0.004470   0.001628   0.000374  -0.033050   0.493771
    14  H    0.000070   0.000009   0.000000   0.000000  -0.000000  -0.000000
    15  H   -0.008711   0.001831   0.000206   0.000009  -0.000054   0.000400
    16  H   -0.038901  -0.007170   0.000530   0.000092  -0.000244   0.001878
    17  H   -0.002679  -0.046970   0.372188  -0.031085   0.006184   0.000527
    18  H   -0.000060   0.000741   0.007669  -0.042535   0.283458  -0.007834
    19  H   -0.000362  -0.000698  -0.000005  -0.000014   0.000136  -0.030228
              13         14         15         16         17         18
     1  O   -0.000000  -0.000060   0.000002  -0.000000  -0.000000   0.000000
     2  C    0.000101  -0.041633  -0.001235  -0.000019   0.000000  -0.000000
     3  S    0.010094   0.216083  -0.053355  -0.001016  -0.000000  -0.000000
     4  C    0.197793  -0.001722  -0.082009  -0.005851  -0.000001  -0.000000
     5  C   -0.020651   0.000306   0.341231  -0.044282  -0.000011  -0.000006
     6  C   -0.062325  -0.002362  -0.048601   0.368995  -0.000148  -0.000075
     7  C   -0.021210   0.000070  -0.008711  -0.038901  -0.002679  -0.000060
     8  C    0.004470   0.000009   0.001831  -0.007170  -0.046970   0.000741
     9  C    0.001628   0.000000   0.000206   0.000530   0.372188   0.007669
    10  O    0.000374   0.000000   0.000009   0.000092  -0.031085  -0.042535
    11  C   -0.033050  -0.000000  -0.000054  -0.000244   0.006184   0.283458
    12  C    0.493771  -0.000000   0.000400   0.001878   0.000527  -0.007834
    13  C    5.403551  -0.000034   0.002579  -0.003617  -0.000021   0.000064
    14  H   -0.000034   0.622527   0.022686   0.000104  -0.000000  -0.000000
    15  H    0.002579   0.022686   0.715809   0.006231  -0.000009  -0.000001
    16  H   -0.003617   0.000104   0.006231   0.592746   0.000002   0.000001
    17  H   -0.000021  -0.000000  -0.000009   0.000002   0.559285  -0.000349
    18  H    0.000064  -0.000000  -0.000001   0.000001  -0.000349   0.519395
    19  H    0.322399  -0.000014  -0.000063   0.005566   0.000001  -0.000001
              19
     1  O    0.000000
     2  C   -0.000034
     3  S   -0.000782
     4  C   -0.024907
     5  C   -0.008706
     6  C    0.007584
     7  C   -0.000362
     8  C   -0.000698
     9  C   -0.000005
    10  O   -0.000014
    11  C    0.000136
    12  C   -0.030228
    13  C    0.322399
    14  H   -0.000014
    15  H   -0.000063
    16  H    0.005566
    17  H    0.000001
    18  H   -0.000001
    19  H    0.546156
 Mulliken charges:
               1
     1  O   -0.166628
     2  C    0.242811
     3  S    0.004616
     4  C   -0.283938
     5  C    0.049515
     6  C   -0.385807
     7  C    0.249971
     8  C    0.113024
     9  C   -0.203834
    10  O   -0.184124
    11  C   -0.207996
    12  C    0.089661
    13  C   -0.295914
    14  H    0.184040
    15  H    0.103054
    16  H    0.124955
    17  H    0.143087
    18  H    0.239534
    19  H    0.183973
 Sum of Mulliken charges =  -0.00000
 Mulliken charges with hydrogens summed into heavy atoms:
               1
     1  O   -0.166628
     2  C    0.242811
     3  S    0.188656
     4  C   -0.283938
     5  C    0.152569
     6  C   -0.260852
     7  C    0.249971
     8  C    0.113024
     9  C   -0.060748
    10  O   -0.184124
    11  C    0.031539
    12  C    0.089661
    13  C   -0.111941
 Electronic spatial extent (au):  <R**2>=           3919.3501
 Charge=             -0.0000 electrons
 Dipole moment (field-independent basis, Debye):
    X=              0.6899    Y=             -3.5043    Z=             -1.7090  Tot=              3.9594
 Quadrupole moment (field-independent basis, Debye-Ang):
   XX=            -76.1857   YY=            -84.4176   ZZ=            -79.4399
   XY=              0.8323   XZ=              0.8926   YZ=              3.1527
 Traceless Quadrupole moment (field-independent basis, Debye-Ang):
   XX=              3.8287   YY=             -4.4032   ZZ=              0.5745
   XY=              0.8323   XZ=              0.8926   YZ=              3.1527
 Octapole moment (field-independent basis, Debye-Ang**2):
  XXX=            -73.7485  YYY=            -21.7043  ZZZ=              3.6103  XYY=             16.4100
  XXY=            -32.8715  XXZ=            -37.3744  XZZ=              8.4599  YZZ=             -2.7885
  YYZ=             -2.7378  XYZ=             -0.4805
 Hexadecapole moment (field-independent basis, Debye-Ang**3):
 XXXX=          -4460.5450 YYYY=           -565.6534 ZZZZ=           -199.5077 XXXY=             60.1449
 XXXZ=             54.3564 YYYX=             34.6260 YYYZ=             14.0635 ZZZX=             -0.8902
 ZZZY=              8.0255 XXYY=           -795.2587 XXZZ=           -760.6760 YYZZ=           -123.6761
 XXYZ=              9.2250 YYXZ=              2.3426 ZZXY=              3.7919
 N-N= 7.356377296520D+02 E-N=-3.661859613144D+03  KE= 9.276348468271D+02
 PrsmSu:  requested number of processors reduced to:  13 ShMem   1 Linda.
 Calling FoFJK, ICntrl=      2127 FMM=F ISym2X=0 I1Cent= 0 IOpClX= 0 NMat=1 NMatS=1 NMatT=0.
 ***** Axes restored to original set *****
 -------------------------------------------------------------------
 Center     Atomic                   Forces (Hartrees/Bohr)
 Number     Number              X              Y              Z
 -------------------------------------------------------------------
      1        8           0.030249738   -0.031315106   -0.003864186
      2        6           0.000488408    0.046690018   -0.001272984
      3       16          -0.069872038    0.020589967   -0.005489060
      4        6           0.006210098   -0.057829362   -0.059176625
      5        6           0.048829446    0.004960713    0.032026058
      6        6          -0.049211489    0.000879226    0.011005852
      7        6          -0.134265188    0.015221283    0.040036417
      8        6           0.134355785    0.029876974   -0.015980624
      9        6           0.017869933   -0.045999131    0.035950269
     10        8           0.030803856    0.014410870    0.010399542
     11        6          -0.058018590    0.044740978    0.006000612
     12        6          -0.019528999    0.010588931   -0.016590569
     13        6           0.075856363   -0.074235261    0.018715985
     14        1           0.005645253    0.000576791   -0.002333273
     15        1           0.008713588    0.003715910    0.021073200
     16        1           0.007305431    0.007490580    0.011720853
     17        1           0.006179132    0.009846669   -0.005570369
     18        1          -0.064639029   -0.007670119   -0.053674612
     19        1           0.023028304    0.007460069   -0.022976486
 -------------------------------------------------------------------
 Cartesian Forces:  Max     0.134355785 RMS     0.040468645

 GradGradGradGradGradGradGradGradGradGradGradGradGradGradGradGradGradGrad
 Berny optimization.
 FormGI is forming the generalized inverse of G from B-inverse, IUseBI=4.
 Internal  Forces:  Max     0.152778175 RMS     0.051397613
 Search for a local minimum.
 Step number   1 out of a maximum of   72
 All quantities printed in internal units (Hartrees-Bohrs-Radians)
 Mixed Optimization -- RFO/linear search
 Second derivative matrix not updated -- first step.
 ITU=  0
     Eigenvalues ---    0.00230   0.00230   0.00230   0.00230   0.00230
     Eigenvalues ---    0.00597   0.01867   0.02125   0.02371   0.02371
     Eigenvalues ---    0.02432   0.02537   0.02816   0.03023   0.03218
     Eigenvalues ---    0.03418   0.05117   0.05147   0.05274   0.09966
     Eigenvalues ---    0.10130   0.13947   0.14582   0.15666   0.16000
     Eigenvalues ---    0.16000   0.18469   0.20861   0.22095   0.22533
     Eigenvalues ---    0.22672   0.23179   0.23380   0.24999   0.25000
     Eigenvalues ---    0.25000   0.26922   0.29765   0.33495   0.33987
     Eigenvalues ---    0.34265   0.35810   0.35980   0.42838   0.42950
     Eigenvalues ---    0.51543   0.56092   0.62235   0.63284   1.07937
     Eigenvalues ---    1.28282
 RFO step:  Lambda=-3.13899761D-01 EMin= 2.30000000D-03
 Linear search not attempted -- first point.
 Maximum step size (   0.300) exceeded in Quadratic search.
    -- Step size scaled by   0.442
 Iteration  1 RMS(Cart)=  0.23746752 RMS(Int)=  0.02741693
 Iteration  2 RMS(Cart)=  0.19763500 RMS(Int)=  0.00873711
 Iteration  3 RMS(Cart)=  0.01392953 RMS(Int)=  0.00106660
 Iteration  4 RMS(Cart)=  0.00011473 RMS(Int)=  0.00106589
 Iteration  5 RMS(Cart)=  0.00000023 RMS(Int)=  0.00106589
 Variable       Old X    -DE/DX   Delta X   Delta X   Delta X     New X
                                 (Linear)    (Quad)   (Total)
    R1        2.25619  -0.03843   0.00000  -0.01218  -0.01218   2.24401
    R2        3.11570  -0.02913   0.00000  -0.01733  -0.01733   3.09837
    R3        4.11327   0.04665   0.00000   0.04981   0.04981   4.16308
    R4        2.61014  -0.00182   0.00000  -0.00146  -0.00146   2.60867
    R5        2.54174   0.07670   0.00000   0.03871   0.03871   2.58046
    R6        2.67732  -0.00575   0.00000  -0.00342  -0.00342   2.67390
    R7        2.07352   0.00443   0.00000   0.00299   0.00299   2.07651
    R8        2.49210   0.00914   0.00000   0.00427   0.00421   2.49631
    R9        2.08190  -0.01081   0.00000  -0.00736  -0.00736   2.07455
   R10        2.19063   0.15278   0.00000   0.04228   0.04237   2.23300
   R11        2.48432   0.03176   0.00000   0.01482   0.01483   2.49915
   R12        2.58339   0.02763   0.00000   0.01470   0.01466   2.59805
   R13        2.04113   0.00430   0.00000   0.00282   0.00282   2.04395
   R14        2.80184   0.08181   0.00000   0.05502   0.05504   2.85688
   R15        2.77679  -0.09517   0.00000  -0.06255  -0.06254   2.71425
   R16        2.46162  -0.06347   0.00000  -0.05621  -0.05621   2.40541
   R17        2.94558  -0.11601   0.00000  -0.08784  -0.08785   2.85773
   R18        2.15135  -0.02751   0.00000  -0.01986  -0.01986   2.13149
    A1        2.15280   0.00625   0.00000   0.00544   0.00544   2.15823
    A2        1.61725   0.00346   0.00000   0.00427   0.00427   1.62152
    A3        2.08661  -0.00564   0.00000  -0.00457  -0.00457   2.08204
    A4        1.46323   0.07670   0.00000   0.06007   0.06007   1.52330
    A5        2.00517  -0.01931   0.00000  -0.01688  -0.01719   1.98798
    A6        2.05226   0.02580   0.00000   0.02195   0.02156   2.07381
    A7        2.18086  -0.01613   0.00000  -0.01724  -0.01747   2.16339
    A8        1.97290  -0.10856   0.00000  -0.09181  -0.09326   1.87964
    A9        1.94452   0.03949   0.00000   0.02648   0.02374   1.96826
   A10        2.12340   0.02312   0.00000   0.01330   0.01278   2.13619
   A11        2.80045  -0.08491   0.00000  -0.06647  -0.06653   2.73392
   A12        1.87925   0.08357   0.00000   0.07235   0.07029   1.94954
   A13        2.21060  -0.00238   0.00000   0.00687   0.00484   2.21544
   A14        1.94337  -0.01554   0.00000  -0.00500  -0.00703   1.93634
   A15        2.04893   0.08269   0.00000   0.06482   0.06489   2.11383
   A16        1.98542   0.01874   0.00000   0.01771   0.02148   2.00690
   A17        1.12004   0.00054   0.00000   0.00516   0.00890   1.12895
   A18        2.82208   0.04538   0.00000   0.04778   0.04745   2.86953
   A19        1.96085  -0.01666   0.00000  -0.01552  -0.01552   1.94533
   A20        2.99274   0.03576   0.00000   0.04678   0.04678   3.03951
   A21        2.94682  -0.10048   0.00000  -0.12355  -0.12433   2.82248
   A22        3.17365   0.00374   0.00000   0.00878   0.01060   3.18424
   A23        3.43417  -0.02244   0.00000  -0.02935  -0.02935   3.40483
   A24        3.03682   0.01210   0.00000   0.01384   0.01358   3.05041
   A25        3.21951   0.08832   0.00000   0.12302   0.12245   3.34196
    D1       -2.21662   0.00197   0.00000   0.00309   0.00309  -2.21353
    D2       -2.02307  -0.00556   0.00000  -0.00709  -0.00709  -2.03016
    D3       -0.19355   0.00753   0.00000   0.01017   0.01017  -0.18337
    D4        2.50213   0.03126   0.00000   0.03951   0.03983   2.54196
    D5       -0.94071  -0.00328   0.00000  -0.00339  -0.00371  -0.94442
    D6        2.12441  -0.05745   0.00000  -0.07497  -0.07525   2.04917
    D7       -0.34021  -0.01478   0.00000  -0.02090  -0.02022  -0.36043
    D8       -0.69054  -0.02818   0.00000  -0.03615  -0.03683  -0.72737
    D9        3.12802   0.01449   0.00000   0.01792   0.01820  -3.13696
   D10       -1.46716   0.08089   0.00000   0.10567   0.10327  -1.36389
   D11        0.82818  -0.00328   0.00000   0.00256   0.00497   0.83315
   D12       -0.34544   0.05493   0.00000   0.06517   0.06581  -0.27963
   D13       -2.71053  -0.03103   0.00000  -0.03477  -0.03535  -2.74588
   D14        1.33583  -0.07385   0.00000  -0.09268  -0.09308   1.24275
   D15       -2.45377  -0.00436   0.00000  -0.01030  -0.00965  -2.46342
   D16       -0.93312  -0.07343   0.00000  -0.09372  -0.09356  -1.02669
   D17        1.85844  -0.02685   0.00000  -0.04446  -0.04423   1.81421
   D18       -1.54994   0.00162   0.00000   0.00027  -0.00037  -1.55031
   D19       -2.97591  -0.03667   0.00000  -0.04921  -0.04858  -3.02449
         Item               Value     Threshold  Converged?
 Maximum Force            0.152778     0.000450     NO 
 RMS     Force            0.051398     0.000300     NO 
 Maximum Displacement     1.215673     0.001800     NO 
 RMS     Displacement     0.428271     0.001200     NO 
 Predicted change in Energy=-1.294533D-01
 GradGradGradGradGradGradGradGradGradGradGradGradGradGradGradGradGradGrad

                          Input orientation:                          
 ---------------------------------------------------------------------
 Center     Atomic      Atomic             Coordinates (Angstroms)
 Number     Number       Type             X           Y           Z
 ---------------------------------------------------------------------
      1          8           0        1.829105   -0.292008   -0.622587
      2          6           0        2.982117   -0.554331   -0.513716
      3         16           0        4.618898   -0.594318   -0.426542
      4          6           0        5.797679   -2.455291   -0.448671
      5          6           0        6.392995   -2.015101    0.698705
      6          6           0        6.720755   -3.048856    1.607581
      7          6           0        8.033756   -3.054708    1.752534
      8          6           0        9.186189   -3.089261    1.493679
      9          6           0       10.272186   -3.458736    0.835585
     10          8           0       10.045498   -4.576060    0.067238
     11          6           0        9.193341   -4.506999   -1.179593
     12          6           0        7.846617   -4.053900   -0.969713
     13          6           0        6.368971   -3.872790   -0.703914
     14          1           0        4.648981    0.210944    0.694302
     15          1           0        6.861631   -1.021221    0.704684
     16          1           0        6.144197   -3.966643    1.433174
     17          1           0       11.290591   -3.439816    1.199419
     18          1           0       10.448650   -4.569239   -1.381021
     19          1           0        5.854925   -4.863165   -0.539143
 ---------------------------------------------------------------------
                    Distance matrix (angstroms):
                    1          2          3          4          5
     1  O    0.000000
     2  C    1.187477   0.000000
     3  S    2.812965   1.639589   0.000000
     4  C    4.523231   3.397833   2.203005   0.000000
     5  C    5.054103   3.903576   2.536183   1.365518   0.000000
     6  C    6.041696   4.969906   3.818404   2.330785   1.414966
     7  C    7.195235   6.075099   4.739530   3.194471   2.209849
     8  C    8.150453   6.996143   5.547263   3.956847   3.096407
     9  C    9.134553   7.962493   6.462006   4.762083   4.141369
    10  O    9.291828   8.148814   6.748783   4.775750   4.505334
    11  C    8.503433   7.392312   6.066439   4.034139   4.192791
    12  C    7.105123   6.009848   4.762552   2.650506   3.008876
    13  C    5.782647   4.745432   3.726670   1.549460   2.327859
    14  H    3.152595   2.196222   1.380450   3.120048   2.827875
    15  H    5.255447   4.093057   2.547895   2.125742   1.098842
    16  H    6.029023   5.043114   4.142180   2.438360   2.099967
    17  H   10.136475   8.960558   7.433175   5.818726   5.125132
    18  H    9.652279   8.521786   7.120185   5.193225   5.224674
    19  H    6.091770   5.178776   4.445615   2.410253   3.151706
                    6          7          8          9         10
     6  C    0.000000
     7  C    1.320991   0.000000
     8  C    2.468395   1.181652   0.000000
     9  C    3.657410   2.452469   1.322494   0.000000
    10  O    3.969752   3.033454   2.232424   1.374830   0.000000
    11  C    4.001026   3.471478   3.025957   2.514698   1.511797
    12  C    2.986658   2.905862   2.965347   3.081673   2.486563
    13  C    2.479038   3.078134   3.657875   4.216229   3.821795
    14  H    3.968956   4.820895   5.667151   6.716170   7.240926
    15  H    2.224044   2.570396   3.209808   4.194103   4.814585
    16  H    1.097803   2.122275   3.166572   4.201830   4.178196
    17  H    4.604656   3.325842   2.153599   1.081611   2.030552
    18  H    5.014032   4.236117   3.471029   2.485497   1.503341
    19  H    2.941055   3.642747   4.286773   4.834718   4.243940
                   11         12         13         14         15
    11  C    0.000000
    12  C    1.436320   0.000000
    13  C    2.933523   1.512246   0.000000
    14  H    6.813345   5.584148   4.646532   0.000000
    15  H    4.597610   3.601520   3.218433   2.532619   0.000000
    16  H    4.051644   2.946135   2.150925   4.498203   3.117839
    17  H    3.346198   4.116211   5.294572   7.595668   5.070508
    18  H    1.272890   2.684274   4.193721   7.797004   5.459423
    19  H    3.417902   2.192519   1.127934   5.359316   4.161862
                   16         17         18         19
    16  H    0.000000
    17  H    5.178568   0.000000
    18  H    5.177947   2.939920   0.000000
    19  H    2.185741   5.881750   4.679473   0.000000
 Stoichiometry    C10H6O2S
 Framework group  C1[X(C10H6O2S)]
 Deg. of freedom    51
 Full point group                 C1      NOp   1
 Largest Abelian subgroup         C1      NOp   1
 Largest concise Abelian subgroup C1      NOp   1
                         Standard orientation:                         
 ---------------------------------------------------------------------
 Center     Atomic      Atomic             Coordinates (Angstroms)
 Number     Number       Type             X           Y           Z
 ---------------------------------------------------------------------
      1          8           0        5.330477    0.308684    0.284848
      2          6           0        4.190734    0.148973   -0.007694
      3         16           0        2.741092   -0.183702   -0.697706
      4          6           0        0.818031    0.550378    0.087275
      5          6           0        0.392294   -0.747024    0.075622
      6          6           0       -0.490207   -1.070367    1.133342
      7          6           0       -1.648372   -1.414201    0.599066
      8          6           0       -2.638014   -1.371818   -0.045228
      9          6           0       -3.689775   -0.812487   -0.619630
     10          8           0       -3.952682    0.431699   -0.097100
     11          6           0       -3.046521    1.607164   -0.384647
     12          6           0       -1.680105    1.433729    0.022591
     13          6           0       -0.337831    1.368549    0.716088
     14          1           0        2.985849   -1.542040   -0.723315
     15          1           0        0.466572   -1.320538   -0.858732
     16          1           0       -0.415958   -0.372124    1.977211
     17          1           0       -4.603507   -1.305404   -0.922959
     18          1           0       -4.145016    1.596657   -1.027645
     19          1           0       -0.389186    1.802234    1.756047
 ---------------------------------------------------------------------
 Rotational constants (GHZ):           2.1589984           0.2969655           0.2781669
 Standard basis: 6-31G(2df,p) (6D, 7F)
 There are   437 symmetry adapted cartesian basis functions of A   symmetry.
 There are   398 symmetry adapted basis functions of A   symmetry.
   398 basis functions,   638 primitive gaussians,   437 cartesian basis functions
    49 alpha electrons       49 beta electrons
       nuclear repulsion energy       745.3464715534 Hartrees.
 NAtoms=   19 NActive=   19 NUniq=   19 SFac= 1.00D+00 NAtFMM=   60 NAOKFM=F Big=F
 Integral buffers will be    131072 words long.
 Raffenetti 2 integral format.
 Two-electron integral symmetry is turned on.
 One-electron integrals computed using PRISM.
 PrsmSu:  requested number of processors reduced to:  13 ShMem   1 Linda.
 NBasis=   398 RedAO= T EigKep=  1.56D-04  NBF=   398
 NBsUse=   398 1.00D-06 EigRej= -1.00D+00 NBFU=   398
 Initial guess from the checkpoint file:  "OdCd[SH]C1dCCdCdCdCOCdCdC1.chk"
 B after Tr=    -0.000000   -0.000000   -0.000000
         Rot=    0.999525   -0.025720    0.001550    0.016920 Ang=  -3.53 deg.
 ExpMin= 1.17D-01 ExpMax= 2.19D+04 ExpMxC= 3.30D+03 IAcc=2 IRadAn=         4 AccDes= 0.00D+00
 Harris functional with IExCor=  402 and IRadAn=       4 diagonalized for initial guess.
 HarFok:  IExCor=  402 AccDes= 0.00D+00 IRadAn=         4 IDoV= 1 UseB2=F ITyADJ=14
 ICtDFT=  3500011 ScaDFX=  1.000000  1.000000  1.000000  1.000000
 FoFCou: FMM=F IPFlag=           0 FMFlag=      100000 FMFlg1=           0
         NFxFlg=           0 DoJE=T BraDBF=F KetDBF=T FulRan=T
         wScrn=  0.000000 ICntrl=       500 IOpCl=  0 I1Cent=   200000004 NGrid=           0
         NMat0=    1 NMatS0=      1 NMatT0=    0 NMatD0=    1 NMtDS0=    0 NMtDT0=    0
 Petite list used in FoFCou.
 Requested convergence on RMS density matrix=1.00D-08 within 128 cycles.
 Requested convergence on MAX density matrix=1.00D-06.
 Requested convergence on             energy=1.00D-06.
 No special actions if energy rises.
 Integral accuracy reduced to 1.0D-05 until final iterations.
 Initial convergence to 1.0D-05 achieved.  Increase integral accuracy.
 SCF Done:  E(RB3LYP) =  -932.644401924     A.U. after   28 cycles
            NFock= 28  Conv=0.49D-08     -V/T= 2.0055
 PrsmSu:  requested number of processors reduced to:  13 ShMem   1 Linda.
 Calling FoFJK, ICntrl=      2127 FMM=F ISym2X=0 I1Cent= 0 IOpClX= 0 NMat=1 NMatS=1 NMatT=0.
 ***** Axes restored to original set *****
 -------------------------------------------------------------------
 Center     Atomic                   Forces (Hartrees/Bohr)
 Number     Number              X              Y              Z
 -------------------------------------------------------------------
      1        8           0.028204704   -0.027486551   -0.000658432
      2        6          -0.007180037    0.054808555    0.011815826
      3       16          -0.035215394    0.006303875   -0.018973510
      4        6           0.047796147   -0.064348920   -0.012307949
      5        6          -0.010459584    0.022733000   -0.004405535
      6        6          -0.008114413    0.001981298    0.020922764
      7        6          -0.111150255   -0.004311401    0.029502494
      8        6           0.116072883    0.016864438   -0.009300797
      9        6           0.003264035   -0.051277681    0.009038846
     10        8           0.029640643    0.006359902    0.033450824
     11        6          -0.056312301    0.037913280    0.035391846
     12        6          -0.002215615   -0.026187495   -0.019061411
     13        6           0.083476868   -0.011983572   -0.028288270
     14        1          -0.013374479   -0.006922303   -0.006660655
     15        1          -0.012253765    0.004008831    0.018174712
     16        1           0.009304621    0.004828704    0.012315042
     17        1           0.005728203    0.015845903   -0.009033319
     18        1          -0.070222242   -0.000037401   -0.047530426
     19        1           0.003009981    0.020907538   -0.014392050
 -------------------------------------------------------------------
 Cartesian Forces:  Max     0.116072883 RMS     0.035051080

 GradGradGradGradGradGradGradGradGradGradGradGradGradGradGradGradGradGrad
 Berny optimization.
 Using GEDIIS/GDIIS optimizer.
 FormGI is forming the generalized inverse of G from B-inverse, IUseBI=4.
 Internal  Forces:  Max     0.193094180 RMS     0.053566436
 Search for a local minimum.
 Step number   2 out of a maximum of   72
 All quantities printed in internal units (Hartrees-Bohrs-Radians)
 Mixed Optimization -- RFO/linear search
 Update second derivatives using D2CorX and points    1    2
 DE= -1.36D-01 DEPred=-1.29D-01 R= 1.05D+00
 TightC=F SS=  1.41D+00  RLast= 3.70D-01 DXNew= 5.0454D-01 1.1114D+00
 Trust test= 1.05D+00 RLast= 3.70D-01 DXMaxT set to 5.05D-01
 ITU=  1  0
 Use linear search instead of GDIIS.
     Eigenvalues ---    0.00159   0.00230   0.00230   0.00230   0.00269
     Eigenvalues ---    0.00554   0.01505   0.01978   0.02370   0.02412
     Eigenvalues ---    0.02502   0.02566   0.02758   0.02831   0.03074
     Eigenvalues ---    0.03737   0.04091   0.04788   0.06452   0.09900
     Eigenvalues ---    0.11019   0.13177   0.14777   0.15660   0.15894
     Eigenvalues ---    0.16008   0.18226   0.19527   0.20888   0.22511
     Eigenvalues ---    0.22947   0.23308   0.23405   0.24373   0.25000
     Eigenvalues ---    0.26247   0.29683   0.32587   0.33513   0.33982
     Eigenvalues ---    0.35110   0.35979   0.42665   0.42940   0.51103
     Eigenvalues ---    0.54002   0.62156   0.63000   1.06242   1.16361
     Eigenvalues ---    2.33059
 RFO step:  Lambda=-2.51631014D-01 EMin= 1.59389662D-03
 Quartic linear search produced a step of  0.22884.
 Maximum step size (   0.505) exceeded in Quadratic search.
    -- Step size scaled by   0.653
 Iteration  1 RMS(Cart)=  0.45776738 RMS(Int)=  0.03971370
 Iteration  2 RMS(Cart)=  0.40214040 RMS(Int)=  0.01360664
 Iteration  3 RMS(Cart)=  0.04265073 RMS(Int)=  0.00125500
 Iteration  4 RMS(Cart)=  0.00051160 RMS(Int)=  0.00124189
 Iteration  5 RMS(Cart)=  0.00000032 RMS(Int)=  0.00124189
 Variable       Old X    -DE/DX   Delta X   Delta X   Delta X     New X
                                 (Linear)    (Quad)   (Total)
    R1        2.24401  -0.03340  -0.00279  -0.03367  -0.03645   2.20755
    R2        3.09837  -0.01999  -0.00397  -0.03776  -0.04172   3.05665
    R3        4.16308   0.03716   0.01140   0.06865   0.08004   4.24312
    R4        2.60867  -0.01084  -0.00034  -0.00825  -0.00859   2.60009
    R5        2.58046   0.02582   0.00886   0.08094   0.08980   2.67025
    R6        2.67390   0.00097  -0.00078  -0.00540  -0.00618   2.66772
    R7        2.07651  -0.00150   0.00069   0.00392   0.00460   2.08111
    R8        2.49631  -0.00379   0.00096   0.00692   0.00781   2.50412
    R9        2.07455  -0.01088  -0.00168  -0.01660  -0.01828   2.05627
   R10        2.23300   0.12313   0.00969   0.11783   0.12760   2.36060
   R11        2.49915   0.02097   0.00339   0.03526   0.03864   2.53780
   R12        2.59805   0.01036   0.00336   0.03042   0.03376   2.63181
   R13        2.04395   0.00263   0.00065   0.00570   0.00634   2.05029
   R14        2.85688   0.08117   0.01259   0.12435   0.13696   2.99384
   R15        2.71425  -0.09751  -0.01431  -0.14447  -0.15877   2.55548
   R16        2.40541  -0.06173  -0.01286  -0.10464  -0.11751   2.28791
   R17        2.85773  -0.09051  -0.02010  -0.17198  -0.19209   2.66564
   R18        2.13149  -0.02183  -0.00455  -0.04034  -0.04488   2.08660
    A1        2.15823   0.02627   0.00124   0.02114   0.02240   2.18064
    A2        1.62152  -0.02158   0.00098  -0.01248  -0.01148   1.61003
    A3        2.08204   0.00442  -0.00105  -0.00313  -0.00416   2.07788
    A4        1.52330   0.06043   0.01375   0.11510   0.12885   1.65215
    A5        1.98798  -0.08070  -0.00393  -0.06868  -0.07347   1.91451
    A6        2.07381   0.03882   0.00493   0.04951   0.05326   2.12707
    A7        2.16339   0.02726  -0.00400   0.00082  -0.00375   2.15964
    A8        1.87964  -0.01573  -0.02134  -0.12512  -0.14955   1.73009
    A9        1.96826  -0.01693   0.00543   0.02764   0.02840   1.99667
   A10        2.13619  -0.02295   0.00292   0.00901   0.00893   2.14512
   A11        2.73392  -0.14120  -0.01523  -0.16949  -0.18476   2.54916
   A12        1.94954  -0.00869   0.01609   0.07621   0.08954   2.03908
   A13        2.21544  -0.00741   0.00111  -0.01929  -0.02135   2.19409
   A14        1.93634   0.03643  -0.00161  -0.00142  -0.00578   1.93056
   A15        2.11383  -0.01548   0.01485   0.07839   0.09317   2.20700
   A16        2.00690   0.02760   0.00492   0.03580   0.04112   2.04802
   A17        1.12895  -0.03040   0.00204  -0.02377  -0.02140   1.10754
   A18        2.86953  -0.01531   0.01086   0.02533   0.03562   2.90516
   A19        1.94533   0.01161  -0.00355  -0.00834  -0.01189   1.93343
   A20        3.03951   0.03909   0.01070   0.05196   0.06267   3.10218
   A21        2.82248  -0.09258  -0.02845  -0.14295  -0.17208   2.65040
   A22        3.18424  -0.02648   0.00242  -0.03766  -0.03504   3.14920
   A23        3.40483  -0.01819  -0.00672  -0.02606  -0.03278   3.37205
   A24        3.05041   0.19309   0.00311   0.18784   0.19082   3.24123
   A25        3.34196  -0.05915   0.02802  -0.05911  -0.03113   3.31083
    D1       -2.21353  -0.00114   0.00071  -0.00187  -0.00116  -2.21469
    D2       -2.03016   0.00351  -0.00162   0.00216   0.00055  -2.02961
    D3       -0.18337  -0.00465   0.00233  -0.00403  -0.00171  -0.18508
    D4        2.54196   0.02785   0.00911   0.04127   0.05130   2.59326
    D5       -0.94442  -0.00923  -0.00085  -0.01199  -0.01376  -0.95818
    D6        2.04917  -0.08701  -0.01722  -0.10847  -0.12429   1.92487
    D7       -0.36043  -0.02254  -0.00463  -0.02451  -0.02928  -0.38971
    D8       -0.72737  -0.04870  -0.00843  -0.06198  -0.07027  -0.79763
    D9       -3.13696   0.01577   0.00417   0.02197   0.02475  -3.11222
   D10       -1.36389   0.10027   0.02363   0.12647   0.14732  -1.21657
   D11        0.83315   0.02621   0.00114   0.01994   0.02403   0.85718
   D12       -0.27963   0.07909   0.01506   0.10875   0.12398  -0.15565
   D13       -2.74588   0.03224  -0.00809   0.01248   0.00436  -2.74151
   D14        1.24275   0.04153  -0.02130   0.01050  -0.01219   1.23056
   D15       -2.46342   0.06621  -0.00221   0.07777   0.07703  -2.38639
   D16       -1.02669   0.04762  -0.02141   0.02300   0.00115  -1.02554
   D17        1.81421   0.02661  -0.01012   0.04653   0.03692   1.85113
   D18       -1.55031   0.00357  -0.00008   0.00771   0.00757  -1.54274
   D19       -3.02449  -0.02848  -0.01112  -0.03771  -0.04877  -3.07326
         Item               Value     Threshold  Converged?
 Maximum Force            0.193094     0.000450     NO 
 RMS     Force            0.053566     0.000300     NO 
 Maximum Displacement     1.890662     0.001800     NO 
 RMS     Displacement     0.845567     0.001200     NO 
 Predicted change in Energy=-2.194566D-01
 GradGradGradGradGradGradGradGradGradGradGradGradGradGradGradGradGradGrad

                          Input orientation:                          
 ---------------------------------------------------------------------
 Center     Atomic      Atomic             Coordinates (Angstroms)
 Number     Number       Type             X           Y           Z
 ---------------------------------------------------------------------
      1          8           0        2.424721   -1.107830   -1.623082
      2          6           0        3.504632   -1.171000   -1.182106
      3         16           0        5.046271   -1.053397   -0.706861
      4          6           0        6.339484   -2.784521   -0.096562
      5          6           0        6.709993   -2.219207    1.144331
      6          6           0        6.919707   -3.245324    2.090899
      7          6           0        8.234794   -3.146448    2.220202
      8          6           0        9.389726   -3.203683    1.747660
      9          6           0       10.150291   -3.580972    0.707136
     10          8           0        9.530881   -4.342524   -0.280776
     11          6           0        8.444605   -3.836255   -1.316928
     12          6           0        7.301595   -3.316799   -0.814523
     13          6           0        6.040351   -3.000412   -0.267760
     14          1           0        4.742433   -0.085881    0.223039
     15          1           0        7.166464   -1.219464    1.214760
     16          1           0        6.417437   -4.181903    1.857298
     17          1           0       11.213212   -3.795356    0.744431
     18          1           0        9.557726   -4.030633   -1.751660
     19          1           0        5.402757   -3.899890   -0.207499
 ---------------------------------------------------------------------
                    Distance matrix (angstroms):
                    1          2          3          4          5
     1  O    0.000000
     2  C    1.168186   0.000000
     3  S    2.777580   1.617510   0.000000
     4  C    4.524039   3.437767   2.245363   0.000000
     5  C    5.220852   4.096998   2.748454   1.413036   0.000000
     6  C    6.210268   5.165086   4.017682   2.309541   1.411695
     7  C    7.258357   6.152441   4.807832   3.015060   2.083817
     8  C    8.016595   6.881109   5.432679   3.588987   2.917904
     9  C    8.439833   7.317239   5.868479   3.975238   3.725747
    10  O    7.922282   6.869253   5.577780   3.556168   3.807468
    11  C    6.616422   5.614721   4.434541   2.650844   3.417823
    12  C    5.414537   4.376814   3.197040   1.313182   2.322027
    13  C    4.300179   3.257706   2.229769   0.406692   1.747199
    14  H    3.134379   2.164270   1.375906   3.152042   3.044857
    15  H    5.527200   4.376794   2.866256   2.202921   1.101278
    16  H    6.124113   5.175708   4.271132   2.403398   2.108575
    17  H    9.490284   8.367855   6.903314   5.047998   4.787812
    18  H    7.709674   6.718768   5.505340   3.827431   4.447203
    19  H    4.320668   3.464041   2.911867   1.460758   2.522103
                    6          7          8          9         10
     6  C    0.000000
     7  C    1.325123   0.000000
     8  C    2.494102   1.249175   0.000000
     9  C    3.530458   2.479376   1.342943   0.000000
    10  O    3.694174   3.060283   2.330545   1.392696   0.000000
    11  C    3.779920   3.609867   3.268807   2.659205   1.584271
    12  C    2.931283   3.179534   3.307245   3.240417   2.511317
    13  C    2.529134   3.320672   3.914276   4.263693   3.739684
    14  H    4.267493   5.054931   5.800215   6.457162   6.426669
    15  H    2.220949   2.421882   3.027210   3.838961   4.192923
    16  H    1.088130   2.122888   3.131045   3.951986   3.780304
    17  H    4.533177   3.386731   2.163711   1.084966   2.044671
    18  H    4.726639   4.278740   3.599627   2.568853   1.503827
    19  H    2.830587   3.805501   4.494805   4.845343   4.152433
                   11         12         13         14         15
    11  C    0.000000
    12  C    1.352300   0.000000
    13  C    2.753148   1.410598   0.000000
    14  H    5.490253   4.250256   3.227997   0.000000
    15  H    3.858844   2.921483   2.576387   2.853848   0.000000
    16  H    3.782141   2.944277   2.460486   4.717398   3.122490
    17  H    3.451964   4.237936   5.330568   7.476833   4.820020
    18  H    1.210708   2.545175   3.954143   6.530509   4.735024
    19  H    3.238475   2.077031   1.104183   3.894619   3.509724
                   16         17         18         19
    16  H    0.000000
    17  H    4.938355   0.000000
    18  H    4.786322   3.004407   0.000000
    19  H    2.317864   5.888844   4.434557   0.000000
 Stoichiometry    C10H6O2S
 Framework group  C1[X(C10H6O2S)]
 Deg. of freedom    51
 Full point group                 C1      NOp   1
 Largest Abelian subgroup         C1      NOp   1
 Largest concise Abelian subgroup C1      NOp   1
                         Standard orientation:                         
 ---------------------------------------------------------------------
 Center     Atomic      Atomic             Coordinates (Angstroms)
 Number     Number       Type             X           Y           Z
 ---------------------------------------------------------------------
      1          8           0        4.807007    0.355992    0.388977
      2          6           0        3.715997    0.153886    0.023586
      3         16           0        2.285406   -0.044368   -0.704730
      4          6           0        0.291949    0.079253    0.321185
      5          6           0       -0.154866   -1.177899   -0.144215
      6          6           0       -1.016447   -1.759895    0.810690
      7          6           0       -2.159380   -1.667479    0.146525
      8          6           0       -3.055297   -0.993372   -0.404248
      9          6           0       -3.575390    0.231352   -0.586046
     10          8           0       -3.061819    1.256136    0.204943
     11          6           0       -1.619462    1.901334    0.089879
     12          6           0       -0.557054    1.077362    0.235061
     13          6           0        0.514442    0.244141    0.619022
     14          1           0        2.675373   -1.238781   -1.265461
     15          1           0       -0.171736   -1.428572   -1.216451
     16          1           0       -0.888242   -1.380206    1.822335
     17          1           0       -4.598170    0.448450   -0.875774
     18          1           0       -2.544610    2.568744   -0.315681
     19          1           0        0.692428    0.311126    1.706704
 ---------------------------------------------------------------------
 Rotational constants (GHZ):           2.0373112           0.3850965           0.3462006
 Standard basis: 6-31G(2df,p) (6D, 7F)
 There are   437 symmetry adapted cartesian basis functions of A   symmetry.
 There are   398 symmetry adapted basis functions of A   symmetry.
   398 basis functions,   638 primitive gaussians,   437 cartesian basis functions
    49 alpha electrons       49 beta electrons
       nuclear repulsion energy       829.8928120561 Hartrees.
 NAtoms=   19 NActive=   19 NUniq=   19 SFac= 1.00D+00 NAtFMM=   60 NAOKFM=F Big=F
 Integral buffers will be    131072 words long.
 Raffenetti 2 integral format.
 Two-electron integral symmetry is turned on.
 One-electron integrals computed using PRISM.
 PrsmSu:  requested number of processors reduced to:  13 ShMem   1 Linda.
 NBasis=   398 RedAO= T EigKep=  2.21D-04  NBF=   398
 NBsUse=   397 1.00D-06 EigRej=  8.95D-07 NBFU=   397
 Initial guess from the checkpoint file:  "OdCd[SH]C1dCCdCdCdCOCdCdC1.chk"
 B after Tr=     0.000000   -0.000000    0.000000
         Rot=    0.979948   -0.188219   -0.003930    0.065272 Ang= -22.99 deg.
 ExpMin= 1.17D-01 ExpMax= 2.19D+04 ExpMxC= 3.30D+03 IAcc=2 IRadAn=         4 AccDes= 0.00D+00
 Harris functional with IExCor=  402 and IRadAn=       4 diagonalized for initial guess.
 HarFok:  IExCor=  402 AccDes= 0.00D+00 IRadAn=         4 IDoV= 1 UseB2=F ITyADJ=14
 ICtDFT=  3500011 ScaDFX=  1.000000  1.000000  1.000000  1.000000
 FoFCou: FMM=F IPFlag=           0 FMFlag=      100000 FMFlg1=           0
         NFxFlg=           0 DoJE=T BraDBF=F KetDBF=T FulRan=T
         wScrn=  0.000000 ICntrl=       500 IOpCl=  0 I1Cent=   200000004 NGrid=           0
         NMat0=    1 NMatS0=      1 NMatT0=    0 NMatD0=    1 NMtDS0=    0 NMtDT0=    0
 Petite list used in FoFCou.
 Requested convergence on RMS density matrix=1.00D-08 within 128 cycles.
 Requested convergence on MAX density matrix=1.00D-06.
 Requested convergence on             energy=1.00D-06.
 No special actions if energy rises.
 Integral accuracy reduced to 1.0D-05 until final iterations.
 EnCoef did     2 forward-backward iterations
 EnCoef did     3 forward-backward iterations
 EnCoef did     9 forward-backward iterations
 EnCoef did    25 forward-backward iterations
 EnCoef did   100 forward-backward iterations
 EnCoef did     2 forward-backward iterations
 EnCoef did     6 forward-backward iterations
 EnCoef did     3 forward-backward iterations
 Rare condition: small coef for last iteration:  0.444D-15
 EnCoef did     3 forward-backward iterations
 Rare condition: small coef for last iteration:  0.000D+00
 Initial convergence to 1.0D-05 achieved.  Increase integral accuracy.
 Restarting incremental Fock formation.
 SCF Done:  E(RB3LYP) =  -924.168415124     A.U. after   41 cycles
            NFock= 41  Conv=0.83D-08     -V/T= 1.9861
 PrsmSu:  requested number of processors reduced to:  13 ShMem   1 Linda.
 Calling FoFJK, ICntrl=      2127 FMM=F ISym2X=0 I1Cent= 0 IOpClX= 0 NMat=1 NMatS=1 NMatT=0.
 ***** Axes restored to original set *****
 -------------------------------------------------------------------
 Center     Atomic                   Forces (Hartrees/Bohr)
 Number     Number              X              Y              Z
 -------------------------------------------------------------------
      1        8          -0.018711385   -0.008001587    0.000094814
      2        6           0.026676283    0.001715267   -0.023703464
      3       16          -0.068133124    0.055454667   -0.002387422
      4        6          17.520882286   12.871228236   10.223476994
      5        6           0.095305544    0.141176429    0.115964545
      6        6          -0.050926855   -0.004001431   -0.014776031
      7        6           0.013722121   -0.006750839   -0.018739033
      8        6           0.028425268    0.014719968    0.014567617
      9        6          -0.025236011   -0.055119803   -0.007536017
     10        8           0.058591358   -0.000249849    0.051250299
     11        6          -0.042286425    0.030584412    0.054829793
     12        6           0.315274103   -0.094601920   -0.216471962
     13        6         -17.725690998  -12.932403511  -10.118677489
     14        1           0.012120767    0.022643089    0.011614353
     15        1           0.003459499   -0.008702779    0.009118225
     16        1           0.002721034   -0.006509270    0.015059987
     17        1           0.004684168    0.014864182   -0.007505268
     18        1          -0.064919634    0.015078064   -0.029028686
     19        1          -0.085957997   -0.051123327   -0.057151254
 -------------------------------------------------------------------
 Cartesian Forces:  Max    17.725690998 RMS     4.513627472

 GradGradGradGradGradGradGradGradGradGradGradGradGradGradGradGradGradGrad
 Berny optimization.
 Using GEDIIS/GDIIS optimizer.
 FormGI is forming the generalized inverse of G from B-inverse, IUseBI=4.
 Internal  Forces:  Max    98.569012216 RMS    25.159452110
 Search for a local minimum.
 Step number   3 out of a maximum of   72
 All quantities printed in internal units (Hartrees-Bohrs-Radians)
 Mixed Optimization -- RFO/linear search
 Update second derivatives using D2CorX and points    1    3    2
 DE=  8.48D+00 DEPred=-2.19D-01 R=-3.86D+01
 Trust test=-3.86D+01 RLast= 6.19D-01 DXMaxT set to 2.52D-01
 ITU= -1  1  0
 Use linear search instead of GDIIS.
     Eigenvalues ---    0.00002   0.00230   0.00230   0.00230   0.00298
     Eigenvalues ---    0.00589   0.00841   0.02071   0.02368   0.02382
     Eigenvalues ---    0.02428   0.02533   0.02790   0.02827   0.03324
     Eigenvalues ---    0.03435   0.04733   0.05376   0.07973   0.09626
     Eigenvalues ---    0.10010   0.12906   0.14188   0.15381   0.15763
     Eigenvalues ---    0.16001   0.17898   0.18698   0.21929   0.22722
     Eigenvalues ---    0.23101   0.23369   0.23692   0.24864   0.25754
     Eigenvalues ---    0.29496   0.30751   0.33505   0.33924   0.34191
     Eigenvalues ---    0.35979   0.40257   0.42924   0.43615   0.50992
     Eigenvalues ---    0.60901   0.62367   0.69551   1.07830   1.30152
     Eigenvalues --- **********
 RFO step:  Lambda=-7.59153025D-02 EMin= 1.75828939D-05
 Quartic linear search produced a step of -0.99544.
 Maximum step size (   0.252) exceeded in Quadratic search.
    -- Step size scaled by   0.415
 Iteration  1 RMS(Cart)=  0.59532725 RMS(Int)=  0.03832176
 Iteration  2 RMS(Cart)=  0.19762394 RMS(Int)=  0.00532447
 Iteration  3 RMS(Cart)=  0.01184270 RMS(Int)=  0.00156174
 Iteration  4 RMS(Cart)=  0.00003825 RMS(Int)=  0.00156167
 Iteration  5 RMS(Cart)=  0.00000009 RMS(Int)=  0.00156167
 Variable       Old X    -DE/DX   Delta X   Delta X   Delta X     New X
                                 (Linear)    (Quad)   (Total)
    R1        2.20755   0.01683   0.03629  -0.01961   0.01668   2.22423
    R2        3.05665   0.00047   0.04153  -0.00732   0.03421   3.09086
    R3        4.24312   0.08695  -0.07968  -0.02627  -0.10595   4.13717
    R4        2.60009   0.02031   0.00855  -0.00956  -0.00101   2.59908
    R5        2.67025 -18.72501  -0.08939   0.00343  -0.08596   2.58429
    R6        2.66772  -0.03542   0.00615   0.00252   0.00867   2.67639
    R7        2.08111  -0.00588  -0.00458  -0.00358  -0.00816   2.07295
    R8        2.50412 -18.44943  -0.00777  -0.00789  -0.01563   2.48849
    R9        2.05627   0.00111   0.01820  -0.00432   0.01388   2.07015
   R10        2.36060 -13.19236  -0.12702   0.06838  -0.05869   2.30191
   R11        2.53780  -0.25817  -0.03847   0.01184  -0.02663   2.51116
   R12        2.63181  18.59856  -0.03361   0.00868  -0.02491   2.60690
   R13        2.05029   0.00139  -0.00631   0.00038  -0.00593   2.04436
   R14        2.99384  17.44576  -0.13633   0.04027  -0.09607   2.89777
   R15        2.55548   8.76020   0.15805  -0.03902   0.11903   2.67451
   R16        2.28791  -0.05169   0.11697   0.00148   0.11846   2.40636
   R17        2.66564   9.16566   0.19121  -0.00058   0.19062   2.85627
   R18        2.08660   0.08816   0.04468  -0.00353   0.04115   2.12775
    A1        2.18064  -0.01917  -0.02230   0.02176  -0.00054   2.18009
    A2        1.61003   0.02276   0.01143  -0.02663  -0.01521   1.59482
    A3        2.07788   0.00529   0.00414   0.01259   0.01673   2.09460
    A4        1.65215  -0.00927  -0.12826   0.00007  -0.12819   1.52396
    A5        1.91451  10.87693   0.07314  -0.05996   0.01364   1.92815
    A6        2.12707  -8.75483  -0.05302   0.00484  -0.04768   2.07939
    A7        2.15964  -5.49989   0.00374   0.04599   0.05017   2.20981
    A8        1.73009 -44.65892   0.14887   0.05599   0.20575   1.93584
    A9        1.99667  30.31591  -0.02827  -0.02370  -0.05028   1.94639
   A10        2.14512   2.66060  -0.00889  -0.04111  -0.04949   2.09563
   A11        2.54916  26.56580   0.18392  -0.05993   0.12403   2.67318
   A12        2.03908  50.21056  -0.08913  -0.05397  -0.14870   1.89038
   A13        2.19409 -18.99854   0.02125  -0.02457  -0.00885   2.18524
   A14        1.93056 -32.17057   0.00575   0.02949   0.02830   1.95886
   A15        2.20700  98.56901  -0.09275  -0.02539  -0.11816   2.08884
   A16        2.04802  35.50095  -0.04094   0.03042  -0.01137   2.03665
   A17        1.10754 -36.89458   0.02131  -0.06350  -0.04324   1.06430
   A18        2.90516  25.92997  -0.03546  -0.05592  -0.09257   2.81259
   A19        1.93343   0.02885   0.01184   0.03280   0.04464   1.97807
   A20        3.10218   0.00692  -0.06238  -0.00096  -0.06334   3.03884
   A21        2.65040 -43.49172   0.17129  -0.01295   0.15883   2.80923
   A22        3.14920  25.04079   0.03488   0.08960   0.12394   3.27314
   A23        3.37205  -0.01616   0.03263   0.00535   0.03798   3.41003
   A24        3.24123 -69.74644  -0.18995   0.07679  -0.11309   3.12813
   A25        3.31083  43.73051   0.03099   0.09782   0.12894   3.43977
    D1       -2.21469  -0.01673   0.00115   0.00384   0.00499  -2.20970
[...]
 Rotational constants (GHZ):           1.8680591           0.2651241           0.2356510
 Standard basis: 6-31G(2df,p) (6D, 7F)
 There are   437 symmetry adapted cartesian basis functions of A   symmetry.
 There are   398 symmetry adapted basis functions of A   symmetry.
   398 basis functions,   638 primitive gaussians,   437 cartesian basis functions
    49 alpha electrons       49 beta electrons
       nuclear repulsion energy       707.9920425236 Hartrees.
 NAtoms=   19 NActive=   19 NUniq=   19 SFac= 1.00D+00 NAtFMM=   60 NAOKFM=F Big=F
 Integral buffers will be    131072 words long.
 Raffenetti 2 integral format.
 Two-electron integral symmetry is turned on.
 One-electron integrals computed using PRISM.
 PrsmSu:  requested number of processors reduced to:  13 ShMem   1 Linda.
 NBasis=   398 RedAO= T EigKep=  1.54D-04  NBF=   398
 NBsUse=   398 1.00D-06 EigRej= -1.00D+00 NBFU=   398
 Initial guess from the checkpoint file:  "OdCd[SH]C1dCCdCdCdCOCdCdC1.chk"
 B after Tr=     0.000000   -0.000000    0.000000
         Rot=    0.999972   -0.005369    0.000289   -0.005206 Ang=  -0.86 deg.
 ExpMin= 1.17D-01 ExpMax= 2.19D+04 ExpMxC= 3.30D+03 IAcc=2 IRadAn=         4 AccDes= 0.00D+00
 Harris functional with IExCor=  402 and IRadAn=       4 diagonalized for initial guess.
 HarFok:  IExCor=  402 AccDes= 0.00D+00 IRadAn=         4 IDoV= 1 UseB2=F ITyADJ=14
 ICtDFT=  3500011 ScaDFX=  1.000000  1.000000  1.000000  1.000000
 FoFCou: FMM=F IPFlag=           0 FMFlag=      100000 FMFlg1=           0
         NFxFlg=           0 DoJE=T BraDBF=F KetDBF=T FulRan=T
         wScrn=  0.000000 ICntrl=       500 IOpCl=  0 I1Cent=   200000004 NGrid=           0
         NMat0=    1 NMatS0=      1 NMatT0=    0 NMatD0=    1 NMtDS0=    0 NMtDT0=    0
 Petite list used in FoFCou.
 Requested convergence on RMS density matrix=1.00D-08 within 128 cycles.
 Requested convergence on MAX density matrix=1.00D-06.
 Requested convergence on             energy=1.00D-06.
 No special actions if energy rises.
 Integral accuracy reduced to 1.0D-05 until final iterations.
 Initial convergence to 1.0D-05 achieved.  Increase integral accuracy.
 SCF Done:  E(RB3LYP) =  -932.976480471     A.U. after   18 cycles
            NFock= 18  Conv=0.85D-08     -V/T= 2.0054
 PrsmSu:  requested number of processors reduced to:  13 ShMem   1 Linda.
 Calling FoFJK, ICntrl=      2127 FMM=F ISym2X=0 I1Cent= 0 IOpClX= 0 NMat=1 NMatS=1 NMatT=0.
 ***** Axes restored to original set *****
 -------------------------------------------------------------------
 Center     Atomic                   Forces (Hartrees/Bohr)
 Number     Number              X              Y              Z
 -------------------------------------------------------------------
      1        8          -0.011658674   -0.005717908   -0.018744672
      2        6          -0.020512205    0.020442622    0.005428768
      3       16           0.047990353   -0.013543794    0.034363821
      4        6          -0.019834835    0.011105717    0.008015337
      5        6           0.020168038   -0.015334100    0.032143362
      6        6          -0.020220544    0.018021114   -0.043711728
      7        6          -0.030178899    0.017622637    0.006358083
      8        6           0.010075501   -0.010566893   -0.006659994
      9        6           0.021380790   -0.012082001    0.011130449
     10        8           0.012851865   -0.006314846    0.022295015
     11        6           0.034052358   -0.003762396   -0.031241863
     12        6          -0.012668188    0.000458608    0.011662160
     13        6          -0.023291440   -0.002960189   -0.013180434
     14        1           0.005687387   -0.011217280   -0.008051956
     15        1           0.004791135    0.001274096   -0.005948367
     16        1           0.005809860   -0.003114248    0.001860806
     17        1          -0.000442439    0.004269047   -0.004954088
     18        1          -0.029138571    0.008754483    0.004143244
     19        1           0.005138508    0.002665331   -0.004907942
 -------------------------------------------------------------------
 Cartesian Forces:  Max     0.047990353 RMS     0.017496399

 GradGradGradGradGradGradGradGradGradGradGradGradGradGradGradGradGradGrad
 Berny optimization.
 Using GEDIIS/GDIIS optimizer.
 FormGI is forming the generalized inverse of G from B-inverse, IUseBI=4.
 Internal  Forces:  Max     0.105234877 RMS     0.028195530
 Search for a local minimum.
 Step number  24 out of a maximum of   72
 All quantities printed in internal units (Hartrees-Bohrs-Radians)
 Mixed Optimization -- RFO/linear search
 Update second derivatives using D2CorX and points   23   24
 DE= -3.48D-02 DEPred=-5.50D-02 R= 6.33D-01
 TightC=F SS=  1.41D+00  RLast= 5.86D-01 DXNew= 4.8000D+00 1.7576D+00
 Trust test= 6.33D-01 RLast= 5.86D-01 DXMaxT set to 2.85D+00
 ITU=  1  0  1  0  1  1  0 -1  1  1  1  1  1  1  0 -1 -1  0  1  1
 ITU= -1 -1  1  0
 Use linear search instead of GDIIS.
     Eigenvalues ---    0.00000   0.00005   0.00221   0.00233   0.00265
     Eigenvalues ---    0.00291   0.00791   0.00957   0.02078   0.02114
     Eigenvalues ---    0.02611   0.02899   0.03397   0.03755   0.04314
     Eigenvalues ---    0.05951   0.06226   0.07329   0.10072   0.11154
     Eigenvalues ---    0.13692   0.14207   0.16050   0.17164   0.18142
     Eigenvalues ---    0.21309   0.21928   0.23210   0.24113   0.27458
     Eigenvalues ---    0.29715   0.30661   0.33480   0.33832   0.34705
     Eigenvalues ---    0.35773   0.35985   0.39867   0.43322   0.45536
     Eigenvalues ---    0.52904   0.59360   0.61864   0.66766   0.89717
     Eigenvalues ---    1.07679   1.24696   2.60929   6.04058  50.19531
     Eigenvalues ---  187.44813
 RFO step:  Lambda=-4.50769189D-02 EMin= 2.69736269D-07
 Quartic linear search produced a step of -0.04563.
 Iteration  1 RMS(Cart)=  0.02186376 RMS(Int)=  0.56578640
 Iteration  2 RMS(Cart)=  0.00304143 RMS(Int)=  0.56551288
 Iteration  3 RMS(Cart)=  0.00291772 RMS(Int)=  0.56525161
 Iteration  4 RMS(Cart)=  0.00280281 RMS(Int)=  0.56500168
 Iteration  5 RMS(Cart)=  0.00269585 RMS(Int)=  0.56476234
 Iteration  6 RMS(Cart)=  0.00259608 RMS(Int)=  0.56453300
 Iteration  7 RMS(Cart)=  0.00250288 RMS(Int)=  0.56431370
 Iteration  8 RMS(Cart)=  0.00241580 RMS(Int)=  0.06299926
 Iteration  9 RMS(Cart)=  0.00232118 RMS(Int)=  0.56405705
 Iteration 10 RMS(Cart)=  0.00226235 RMS(Int)=  0.56386372
 Iteration 11 RMS(Cart)=  0.00219166 RMS(Int)=  0.06089761
 Iteration 12 RMS(Cart)=  0.00273237 RMS(Int)=  0.56363864
 Iteration 13 RMS(Cart)=  0.00204921 RMS(Int)=  0.05934365
 Iteration 14 RMS(Cart)=  0.00248002 RMS(Int)=  0.56342841
 Iteration 15 RMS(Cart)=  0.00192404 RMS(Int)=  0.56326260
 Iteration 16 RMS(Cart)=  0.00187026 RMS(Int)=  0.05738180
 Iteration 17 RMS(Cart)=  0.00250326 RMS(Int)=  0.56307863
 Iteration 18 RMS(Cart)=  0.00175965 RMS(Int)=  0.55982028
 Iteration 19 RMS(Cart)=  0.01141157 RMS(Int)=  0.05252548
 Iteration 20 RMS(Cart)=  0.00312987 RMS(Int)=  0.05142704
 Iteration 21 RMS(Cart)=  0.00291291 RMS(Int)=  0.05038227
 Iteration 22 RMS(Cart)=  0.00266367 RMS(Int)=  0.55598374
 Iteration 23 RMS(Cart)=  0.00981330 RMS(Int)=  0.04696709
 Iteration 24 RMS(Cart)=  0.00331181 RMS(Int)=  0.04573836
 Iteration 25 RMS(Cart)=  0.00303199 RMS(Int)=  0.04443104
 Iteration 26 RMS(Cart)=  0.00255429 RMS(Int)=  0.55774257
 Iteration 27 RMS(Cart)=  0.00833531 RMS(Int)=  0.04080486
 Iteration 28 RMS(Cart)=  0.00212243 RMS(Int)=  0.04005312
 Iteration 29 RMS(Cart)=  0.00199667 RMS(Int)=  0.03929707
 Iteration 30 RMS(Cart)=  0.00181847 RMS(Int)=  0.55887964
 Iteration 31 RMS(Cart)=  0.00727977 RMS(Int)=  0.03639092
 Iteration 32 RMS(Cart)=  0.00160093 RMS(Int)=  0.03584112
 Iteration 33 RMS(Cart)=  0.00153044 RMS(Int)=  0.03530628
 Iteration 34 RMS(Cart)=  0.00145358 RMS(Int)=  0.03473731
 Iteration 35 RMS(Cart)=  0.00130787 RMS(Int)=  0.55998177
 New curvilinear step failed, DQL= 4.44D+00 SP=-1.39D-03.
 ITry= 1 IFail=1 DXMaxC= 3.44D-01 DCOld= 1.00D+10 DXMaxT= 2.85D+00 DXLimC= 3.00D+00 Rises=F
 Iteration  1 RMS(Cart)=  0.01973922 RMS(Int)=  0.56523741
 Iteration  2 RMS(Cart)=  0.00236118 RMS(Int)=  0.56502011
 Iteration  3 RMS(Cart)=  0.00228168 RMS(Int)=  0.56481077
 Iteration  4 RMS(Cart)=  0.00220689 RMS(Int)=  0.56460892
 Iteration  5 RMS(Cart)=  0.00213646 RMS(Int)=  0.56441412
 Iteration  6 RMS(Cart)=  0.00207002 RMS(Int)=  0.56422599
 Iteration  7 RMS(Cart)=  0.00200728 RMS(Int)=  0.56404427
 Iteration  8 RMS(Cart)=  0.00194795 RMS(Int)=  0.56386908
 Iteration  9 RMS(Cart)=  0.00189190 RMS(Int)=  0.05656138
 Iteration 10 RMS(Cart)=  0.00156581 RMS(Int)=  0.56367219
 Iteration 11 RMS(Cart)=  0.00179749 RMS(Int)=  0.50763417
 SLEqS3 Cycle:     6 Max:0.200118     RMS:0.791722E-01 Conv:0.960751E-01
 Iteration 12 RMS(Cart)=  0.00001233 RMS(Int)=  0.08125241
 Iteration 13 RMS(Cart)=  0.01151462 RMS(Int)=  0.50641603
 Iteration 14 RMS(Cart)=  0.01095077 RMS(Int)=  0.40555391
 Iteration 15 RMS(Cart)=  0.00043209 RMS(Int)=  0.16799781
 Iteration 16 RMS(Cart)=  0.00885524 RMS(Int)=  0.40492063
 Iteration 17 RMS(Cart)=  0.00992942 RMS(Int)=  0.15711536
 Iteration 18 RMS(Cart)=  0.00743053 RMS(Int)=  0.41303697
 Iteration 19 RMS(Cart)=  0.00856337 RMS(Int)=  0.15300355
 Iteration 20 RMS(Cart)=  0.00629746 RMS(Int)=  0.41446997
 Iteration 21 RMS(Cart)=  0.00002082 RMS(Int)=  0.41446278
 Iteration 22 RMS(Cart)=  0.00002082 RMS(Int)=  0.41445559
 Iteration 23 RMS(Cart)=  0.00002081 RMS(Int)=  0.41444840
 Iteration 24 RMS(Cart)=  0.00002090 RMS(Int)=  0.41444118
 Iteration 25 RMS(Cart)=  0.00002078 RMS(Int)=  0.41443401
 Iteration 26 RMS(Cart)=  0.00002076 RMS(Int)=  0.41442683
 Iteration 27 RMS(Cart)=  0.00002075 RMS(Int)=  0.41441966
 Iteration 28 RMS(Cart)=  0.00002074 RMS(Int)=  0.41441249
 Iteration 29 RMS(Cart)=  0.00002072 RMS(Int)=  0.41440533
 Iteration 30 RMS(Cart)=  0.00002071 RMS(Int)=  0.41439817
 Iteration 31 RMS(Cart)=  0.00002070 RMS(Int)=  0.41439101
 Iteration 32 RMS(Cart)=  0.00002068 RMS(Int)=  0.41438385
 Iteration 33 RMS(Cart)=  0.00002067 RMS(Int)=  0.41437670
 Iteration 34 RMS(Cart)=  0.00002066 RMS(Int)=  0.41436955
 Iteration 35 RMS(Cart)=  0.00002065 RMS(Int)=  0.41436241
 Iteration 36 RMS(Cart)=  0.00002063 RMS(Int)=  0.41435526
 Iteration 37 RMS(Cart)=  0.00002062 RMS(Int)=  0.41434812
 Iteration 38 RMS(Cart)=  0.00002061 RMS(Int)=  0.41434099
 Iteration 39 RMS(Cart)=  0.00002059 RMS(Int)=  0.41433385
 Iteration 40 RMS(Cart)=  0.00002058 RMS(Int)=  0.41432672
 Iteration 41 RMS(Cart)=  0.00002057 RMS(Int)=  0.41431960
 Iteration 42 RMS(Cart)=  0.00002056 RMS(Int)=  0.41431247
 Iteration 43 RMS(Cart)=  0.00002054 RMS(Int)=  0.41430535
 Iteration 44 RMS(Cart)=  0.00002053 RMS(Int)=  0.41429823
 Iteration 45 RMS(Cart)=  0.00002052 RMS(Int)=  0.41429112
 Iteration 46 RMS(Cart)=  0.00002051 RMS(Int)=  0.41428400
 Iteration 47 RMS(Cart)=  0.00002050 RMS(Int)=  0.41427689
 Iteration 48 RMS(Cart)=  0.00002048 RMS(Int)=  0.41426979
 Iteration 49 RMS(Cart)=  0.00002047 RMS(Int)=  0.41426268
 Iteration 50 RMS(Cart)=  0.00002046 RMS(Int)=  0.41425558
 Iteration 51 RMS(Cart)=  0.00002045 RMS(Int)=  0.41424849
 Iteration 52 RMS(Cart)=  0.00002043 RMS(Int)=  0.41424139
 Iteration 53 RMS(Cart)=  0.00002042 RMS(Int)=  0.41423430
 Iteration 54 RMS(Cart)=  0.00002041 RMS(Int)=  0.41422721
 Iteration 55 RMS(Cart)=  0.00002040 RMS(Int)=  0.41422012
 Iteration 56 RMS(Cart)=  0.00002039 RMS(Int)=  0.41421304
 Iteration 57 RMS(Cart)=  0.00002037 RMS(Int)=  0.41420596
 Iteration 58 RMS(Cart)=  0.00002036 RMS(Int)=  0.41419888
 Iteration 59 RMS(Cart)=  0.00002035 RMS(Int)=  0.41419180
 Iteration 60 RMS(Cart)=  0.00002034 RMS(Int)=  0.41418473
 Iteration 61 RMS(Cart)=  0.00002033 RMS(Int)=  0.41417766
 Iteration 62 RMS(Cart)=  0.00002032 RMS(Int)=  0.41417059
 Iteration 63 RMS(Cart)=  0.00002030 RMS(Int)=  0.41416353
 Iteration 64 RMS(Cart)=  0.00002029 RMS(Int)=  0.41415647
 Iteration 65 RMS(Cart)=  0.00002028 RMS(Int)=  0.41414941
 Iteration 66 RMS(Cart)=  0.00002027 RMS(Int)=  0.41414235
 Iteration 67 RMS(Cart)=  0.00002026 RMS(Int)=  0.41413530
 Iteration 68 RMS(Cart)=  0.00002025 RMS(Int)=  0.41412825
 Iteration 69 RMS(Cart)=  0.00002023 RMS(Int)=  0.41412120
 Iteration 70 RMS(Cart)=  0.00002022 RMS(Int)=  0.41411415
 Iteration 71 RMS(Cart)=  0.00002021 RMS(Int)=  0.41410711
 Iteration 72 RMS(Cart)=  0.00002020 RMS(Int)=  0.41410007
 Iteration 73 RMS(Cart)=  0.00002019 RMS(Int)=  0.41409303
 Iteration 74 RMS(Cart)=  0.00002018 RMS(Int)=  0.41408599
 Iteration 75 RMS(Cart)=  0.00002017 RMS(Int)=  0.41407896
 Iteration 76 RMS(Cart)=  0.00002015 RMS(Int)=  0.41407193
 Iteration 77 RMS(Cart)=  0.00002014 RMS(Int)=  0.41406490
 Iteration 78 RMS(Cart)=  0.00002013 RMS(Int)=  0.41405788
 Iteration 79 RMS(Cart)=  0.00002012 RMS(Int)=  0.41405085
 Iteration 80 RMS(Cart)=  0.00002011 RMS(Int)=  0.41404383
 Iteration 81 RMS(Cart)=  0.00002010 RMS(Int)=  0.41403681
 Iteration 82 RMS(Cart)=  0.00002009 RMS(Int)=  0.41402980
 Iteration 83 RMS(Cart)=  0.00002008 RMS(Int)=  0.41402278
 Iteration 84 RMS(Cart)=  0.00002007 RMS(Int)=  0.41401577
 Iteration 85 RMS(Cart)=  0.00002005 RMS(Int)=  0.41400876
 Iteration 86 RMS(Cart)=  0.00002004 RMS(Int)=  0.41400176
 Iteration 87 RMS(Cart)=  0.00002003 RMS(Int)=  0.41399475
 Iteration 88 RMS(Cart)=  0.00002002 RMS(Int)=  0.41398775
 Iteration 89 RMS(Cart)=  0.00002001 RMS(Int)=  0.41398075
 Iteration 90 RMS(Cart)=  0.00002000 RMS(Int)=  0.41397375
 Iteration 91 RMS(Cart)=  0.00001999 RMS(Int)=  0.41396676
 Iteration 92 RMS(Cart)=  0.00001998 RMS(Int)=  0.41395977
 Iteration 93 RMS(Cart)=  0.00001997 RMS(Int)=  0.41395278
 Iteration 94 RMS(Cart)=  0.00001996 RMS(Int)=  0.41394579
 Iteration 95 RMS(Cart)=  0.00001995 RMS(Int)=  0.41393880
 Iteration 96 RMS(Cart)=  0.00001994 RMS(Int)=  0.41393182
 Iteration 97 RMS(Cart)=  0.00001993 RMS(Int)=  0.41392483
 Iteration 98 RMS(Cart)=  0.00001992 RMS(Int)=  0.41391785
 Iteration 99 RMS(Cart)=  0.00001991 RMS(Int)=  0.41391088
 Iteration100 RMS(Cart)=  0.00001989 RMS(Int)=  0.41390390
 New curvilinear step not converged.
 ITry= 2 IFail=1 DXMaxC= 2.85D-01 DCOld= 1.00D+10 DXMaxT= 2.85D+00 DXLimC= 3.00D+00 Rises=F
 Iteration  1 RMS(Cart)=  0.01762086 RMS(Int)=  0.56478008
 Iteration  2 RMS(Cart)=  0.00180649 RMS(Int)=  0.56460813
 Iteration  3 RMS(Cart)=  0.00175001 RMS(Int)=  0.56444187
 Iteration  4 RMS(Cart)=  0.00169380 RMS(Int)=  0.56428124
 Iteration  5 RMS(Cart)=  0.00164063 RMS(Int)=  0.56412594
 Iteration  6 RMS(Cart)=  0.00159029 RMS(Int)=  0.56397567
 Iteration  7 RMS(Cart)=  0.00154257 RMS(Int)=  0.56383020
 Iteration  8 RMS(Cart)=  0.00149727 RMS(Int)=  0.56368931
 Iteration  9 RMS(Cart)=  0.00145424 RMS(Int)=  0.56355296
 Iteration 10 RMS(Cart)=  0.00141336 RMS(Int)=  0.56338357
 Iteration 11 RMS(Cart)=  0.01019356 RMS(Int)=  0.04690138
 Iteration 12 RMS(Cart)=  0.00152856 RMS(Int)=  0.04637980
 Iteration 13 RMS(Cart)=  0.00147289 RMS(Int)=  0.04587675
 Iteration 14 RMS(Cart)=  0.00141762 RMS(Int)=  0.04539169
 Iteration 15 RMS(Cart)=  0.00136047 RMS(Int)=  0.04492392
 Iteration 16 RMS(Cart)=  0.00129374 RMS(Int)=  0.04445887
 Iteration 17 RMS(Cart)=  0.00108957 RMS(Int)=  0.56321497
 Iteration 18 RMS(Cart)=  0.00096194 RMS(Int)=  0.56312226
 Iteration 19 RMS(Cart)=  0.00094235 RMS(Int)=  0.04356270
 Iteration 20 RMS(Cart)=  0.00123786 RMS(Int)=  0.56302632
 Iteration 21 RMS(Cart)=  0.00090118 RMS(Int)=  0.04285242
 Iteration 22 RMS(Cart)=  0.00103596 RMS(Int)=  0.56293249
 Iteration 23 RMS(Cart)=  0.00086504 RMS(Int)=  0.56284678
 Iteration 24 RMS(Cart)=  0.00084840 RMS(Int)=  0.04201202
 Iteration 25 RMS(Cart)=  0.00102926 RMS(Int)=  0.56276261
 Iteration 26 RMS(Cart)=  0.00081547 RMS(Int)=  0.55931372
 Iteration 27 RMS(Cart)=  0.00802879 RMS(Int)=  0.03918453
 Iteration 28 RMS(Cart)=  0.00178409 RMS(Int)=  0.03856138
 Iteration 29 RMS(Cart)=  0.00170012 RMS(Int)=  0.03796017
 Iteration 30 RMS(Cart)=  0.00161166 RMS(Int)=  0.03736132
 Iteration 31 RMS(Cart)=  0.00148951 RMS(Int)=  0.55972256
 Iteration 32 RMS(Cart)=  0.00694038 RMS(Int)=  0.03459334
 Iteration 33 RMS(Cart)=  0.00131564 RMS(Int)=  0.03414054
 Iteration 34 RMS(Cart)=  0.00126611 RMS(Int)=  0.03370103
 Iteration 35 RMS(Cart)=  0.00121470 RMS(Int)=  0.03326815
 Iteration 36 RMS(Cart)=  0.00115230 RMS(Int)=  0.55744353
 Iteration 37 RMS(Cart)=  0.00612001 RMS(Int)=  0.03149258
 Iteration 38 RMS(Cart)=  0.00150107 RMS(Int)=  0.03095599
 Iteration 39 RMS(Cart)=  0.00143113 RMS(Int)=  0.03042895
 Iteration 40 RMS(Cart)=  0.00135515 RMS(Int)=  0.02982754
 Iteration 41 RMS(Cart)=  0.00121153 RMS(Int)=  0.55849784
 Iteration 42 RMS(Cart)=  0.00534595 RMS(Int)=  0.02770230
 Iteration 43 RMS(Cart)=  0.00104415 RMS(Int)=  0.02734130
 Iteration 44 RMS(Cart)=  0.00100716 RMS(Int)=  0.02698662
 Iteration 45 RMS(Cart)=  0.00096754 RMS(Int)=  0.02661874
 Iteration 46 RMS(Cart)=  0.00091115 RMS(Int)=  0.55928289
 New curvilinear step failed, DQL= 4.44D+00 SP=-9.04D-03.
 ITry= 3 IFail=1 DXMaxC= 2.87D-01 DCOld= 1.00D+10 DXMaxT= 2.85D+00 DXLimC= 3.00D+00 Rises=F
 Iteration  1 RMS(Cart)=  0.01547201 RMS(Int)=  0.56441472
 Iteration  2 RMS(Cart)=  0.00125998 RMS(Int)=  0.56428820
 Iteration  3 RMS(Cart)=  0.00122764 RMS(Int)=  0.56416504
 Iteration  4 RMS(Cart)=  0.00119672 RMS(Int)=  0.56404508
 Iteration  5 RMS(Cart)=  0.00116711 RMS(Int)=  0.56392819
 Iteration  6 RMS(Cart)=  0.00113874 RMS(Int)=  0.56381423
 Iteration  7 RMS(Cart)=  0.00111155 RMS(Int)=  0.56370308
 Iteration  8 RMS(Cart)=  0.00108545 RMS(Int)=  0.56359464
 Iteration  9 RMS(Cart)=  0.00106040 RMS(Int)=  0.56348881
 Iteration 10 RMS(Cart)=  0.00103634 RMS(Int)=  0.56338551
 Iteration 11 RMS(Cart)=  0.00101321 RMS(Int)=  0.56328476
 Iteration 12 RMS(Cart)=  0.00099098 RMS(Int)=  0.56318770
 Iteration 13 RMS(Cart)=  0.00096976 RMS(Int)=  0.04384836
 Iteration 14 RMS(Cart)=  0.00131433 RMS(Int)=  0.56308692
 Iteration 15 RMS(Cart)=  0.00092497 RMS(Int)=  0.56232200
 Iteration 16 RMS(Cart)=  0.00847377 RMS(Int)=  0.04027362
 Iteration 17 RMS(Cart)=  0.00123110 RMS(Int)=  0.03985133
 Iteration 18 RMS(Cart)=  0.00119143 RMS(Int)=  0.03944208
 Iteration 19 RMS(Cart)=  0.00115196 RMS(Int)=  0.03904538
 Iteration 20 RMS(Cart)=  0.00111138 RMS(Int)=  0.03866030
 Iteration 21 RMS(Cart)=  0.00106592 RMS(Int)=  0.03827931
 Iteration 22 RMS(Cart)=  0.00098564 RMS(Int)=  0.56291613
 Iteration 23 RMS(Cart)=  0.00065321 RMS(Int)=  0.56117116
 Iteration 24 RMS(Cart)=  0.00712561 RMS(Int)=  0.03550121
 Iteration 25 RMS(Cart)=  0.00113964 RMS(Int)=  0.03510961
 Iteration 26 RMS(Cart)=  0.00110316 RMS(Int)=  0.03472942
 Iteration 27 RMS(Cart)=  0.00106646 RMS(Int)=  0.03435965
 Iteration 28 RMS(Cart)=  0.00102779 RMS(Int)=  0.03399670
 Iteration 29 RMS(Cart)=  0.00097961 RMS(Int)=  0.55883521
 Iteration 30 RMS(Cart)=  0.00631649 RMS(Int)=  0.03197639
 Iteration 31 RMS(Cart)=  0.00130401 RMS(Int)=  0.03151713
 Iteration 32 RMS(Cart)=  0.00125231 RMS(Int)=  0.03107047
 Iteration 33 RMS(Cart)=  0.00119860 RMS(Int)=  0.03062570
 Iteration 34 RMS(Cart)=  0.00113281 RMS(Int)=  0.55785397
 Iteration 35 RMS(Cart)=  0.00554488 RMS(Int)=  0.02878142
 Iteration 36 RMS(Cart)=  0.00123491 RMS(Int)=  0.02833892
 Iteration 37 RMS(Cart)=  0.00118418 RMS(Int)=  0.02790489
 Iteration 38 RMS(Cart)=  0.00113039 RMS(Int)=  0.02745051
 Iteration 39 RMS(Cart)=  0.00105482 RMS(Int)=  0.55837231
 Iteration 40 RMS(Cart)=  0.00487672 RMS(Int)=  0.02558069
 Iteration 41 RMS(Cart)=  0.00095762 RMS(Int)=  0.02524355
 Iteration 42 RMS(Cart)=  0.00092463 RMS(Int)=  0.02491227
 Iteration 43 RMS(Cart)=  0.00089003 RMS(Int)=  0.02457441
 Iteration 44 RMS(Cart)=  0.00084656 RMS(Int)=  0.55847883
 New curvilinear step failed, DQL= 4.44D+00 SP=-8.87D-03.
 ITry= 4 IFail=1 DXMaxC= 2.42D-01 DCOld= 1.00D+10 DXMaxT= 2.85D+00 DXLimC= 3.00D+00 Rises=F
 Iteration  1 RMS(Cart)=  0.01319155 RMS(Int)=  0.56414536
slurmstepd: error: *** JOB 27446951 ON lewis4-r630-hpc4-node227 CANCELLED AT 2023-05-17T03:49:26 DUE TO TIME LIMIT ***
