### Starting Gaussian ###
 Entering Gaussian System, Link 0=g16
 Initial command:
 /cluster/software/gaussian/gaussian-16-A.03/avx2/g16/l1.exe "/local/scratch/cz9n3/Gau-31855.inp" -scrdir="/local/scratch/cz9n3/"
 Entering Link 1 = /cluster/software/gaussian/gaussian-16-A.03/avx2/g16/l1.exe PID=     31856.
  
 Copyright (c) 1988,1990,1992,1993,1995,1998,2003,2009,2016,
            Gaussian, Inc.  All Rights Reserved.
  
 This is part of the Gaussian(R) 16 program.  It is based on
 the Gaussian(R) 09 system (copyright 2009, Gaussian, Inc.),
 the Gaussian(R) 03 system (copyright 2003, Gaussian, Inc.),
 the Gaussian(R) 98 system (copyright 1998, Gaussian, Inc.),
 the Gaussian(R) 94 system (copyright 1995, Gaussian, Inc.),
 the Gaussian 92(TM) system (copyright 1992, Gaussian, Inc.),
 the Gaussian 90(TM) system (copyright 1990, Gaussian, Inc.),
 the Gaussian 88(TM) system (copyright 1988, Gaussian, Inc.),
 the Gaussian 86(TM) system (copyright 1986, Carnegie Mellon
 University), and the Gaussian 82(TM) system (copyright 1983,
 Carnegie Mellon University). Gaussian is a federally registered
 trademark of Gaussian, Inc.
  
 This software contains proprietary and confidential information,
 including trade secrets, belonging to Gaussian, Inc.
  
 This software is provided under written license and may be
 used, copied, transmitted, or stored only in accord with that
 written license.
  
 The following legend is applicable only to US Government
 contracts under FAR:
  
                    RESTRICTED RIGHTS LEGEND
  
 Use, reproduction and disclosure by the US Government is
 subject to restrictions as set forth in subparagraphs (a)
 and (c) of the Commercial Computer Software - Restricted
 Rights clause in FAR 52.227-19.
  
 Gaussian, Inc.
 340 Quinnipiac St., Bldg. 40, Wallingford CT 06492
  
  
 ---------------------------------------------------------------
 Warning -- This program may not be used in any manner that
 competes with the business of Gaussian, Inc. or will provide
 assistance to any competitor of Gaussian, Inc.  The licensee
 of this program is prohibited from giving any competitor of
 Gaussian, Inc. access to this program.  By using this program,
 the user acknowledges that Gaussian, Inc. is engaged in the
 business of creating and licensing software in the field of
 computational chemistry and represents and warrants to the
 licensee that it is not a competitor of Gaussian, Inc. and that
 it will not use this program in any manner prohibited above.
 ---------------------------------------------------------------
  

 Cite this work as:
 Gaussian 16, Revision A.03,
 M. J. Frisch, G. W. Trucks, H. B. Schlegel, G. E. Scuseria, 
 M. A. Robb, J. R. Cheeseman, G. Scalmani, V. Barone, 
 G. A. Petersson, H. Nakatsuji, X. Li, M. Caricato, A. V. Marenich, 
 J. Bloino, B. G. Janesko, R. Gomperts, B. Mennucci, H. P. Hratchian, 
 J. V. Ortiz, A. F. Izmaylov, J. L. Sonnenberg, D. Williams-Young, 
 F. Ding, F. Lipparini, F. Egidi, J. Goings, B. Peng, A. Petrone, 
 T. Henderson, D. Ranasinghe, V. G. Zakrzewski, J. Gao, N. Rega, 
 G. Zheng, W. Liang, M. Hada, M. Ehara, K. Toyota, R. Fukuda, 
 J. Hasegawa, M. Ishida, T. Nakajima, Y. Honda, O. Kitao, H. Nakai, 
 T. Vreven, K. Throssell, J. A. Montgomery, Jr., J. E. Peralta, 
 F. Ogliaro, M. J. Bearpark, J. J. Heyd, E. N. Brothers, K. N. Kudin, 
 V. N. Staroverov, T. A. Keith, R. Kobayashi, J. Normand, 
 K. Raghavachari, A. P. Rendell, J. C. Burant, S. S. Iyengar, 
 J. Tomasi, M. Cossi, J. M. Millam, M. Klene, C. Adamo, R. Cammi, 
 J. W. Ochterski, R. L. Martin, K. Morokuma, O. Farkas, 
 J. B. Foresman, and D. J. Fox, Gaussian, Inc., Wallingford CT, 2016.
 
 ******************************************
 Gaussian 16:  ES64L-G16RevA.03 25-Dec-2016
                17-May-2023 
 ******************************************
 %chk=OdCNC1dc2ccncc2dCCdCCdNOS1.chk
 %NProcShared=20
 Will use up to   20 processors via shared memory.
 -----------------------------
 # opt freq b3lyp/6-31g(2df,p)
 -----------------------------
 1/18=20,19=15,26=3,38=1/1,3;
 2/9=110,12=2,17=6,18=5,40=1/2;
 3/5=1,6=6,7=104,11=2,25=1,30=1,71=1,74=-5/1,2,3;
 4//1;
 5/5=2,38=5/2;
 6/7=2,8=2,9=2,10=2,28=1/1;
 7//1,2,3,16;
 1/18=20,19=15,26=3/3(2);
 2/9=110/2;
 99//99;
 2/9=110/2;
 3/5=1,6=6,7=104,11=2,25=1,30=1,71=1,74=-5/1,2,3;
 4/5=5,16=3,69=1/1;
 5/5=2,38=5/2;
 7//1,2,3,16;
 1/18=20,19=15,26=3/3(-5);
 2/9=110/2;
 6/7=2,8=2,9=2,10=2,19=2,28=1/1;
 99/9=1/99;
 -------------------
 Title Card Required
 -------------------
 Symbolic Z-matrix:
 Charge =  0 Multiplicity = 1
 O                     1.49895   1.51926  -1.42984 
 C                     2.5069    0.94657  -0.99194 
 N                     3.20619   1.28306   0.15244 
 C                     4.07259   0.39248   0.792 
 C                     4.85635   0.79525   1.9131 
 C                     6.39494   0.82683   1.91822 
 C                     7.11927   1.36756   2.93793 
 N                     6.62759   2.11429   3.97595 
 C                     5.35323   2.32122   3.96105 
 C                     4.35615   1.68963   3.03112 
 C                     3.1003    1.88286   3.46762 
 C                     2.06951   1.08665   2.92793 
 C                     0.79641   1.32094   2.62581 
 C                     0.40699   0.12791   1.81755 
 N                     0.50737   0.04986   0.53108 
 O                     1.39897  -1.04912   0.11754 
 S                     2.97814  -1.29432   0.90192 
 H                     2.87981   0.02326  -1.46399 
 H                     2.84548   2.06193   0.68984 
 H                     6.98721   0.48481   1.07356 
 H                     8.21478   1.33438   2.96852 
 H                     4.94865   2.99465   4.73979 
 H                     2.83719   2.5343    4.28752 
 H                     2.47297   0.11817   2.69526 
 H                     0.26689   2.2058    2.93189 
 H                     0.66672  -0.81003   2.30269 
 

 GradGradGradGradGradGradGradGradGradGradGradGradGradGradGradGradGradGrad
 Berny optimization.
 Initialization pass.
                           ----------------------------
                           !    Initial Parameters    !
                           ! (Angstroms and Degrees)  !
 --------------------------                            --------------------------
 ! Name  Definition              Value          Derivative Info.                !
 --------------------------------------------------------------------------------
 ! R1    R(1,2)                  1.2392         estimate D2E/DX2                !
 ! R2    R(2,3)                  1.3827         estimate D2E/DX2                !
 ! R3    R(2,18)                 1.102          estimate D2E/DX2                !
 ! R4    R(3,4)                  1.3974         estimate D2E/DX2                !
 ! R5    R(3,19)                 1.0127         estimate D2E/DX2                !
 ! R6    R(4,5)                  1.426          estimate D2E/DX2                !
 ! R7    R(4,17)                 2.0138         estimate D2E/DX2                !
 ! R8    R(5,6)                  1.5389         estimate D2E/DX2                !
 ! R9    R(5,10)                 1.5166         estimate D2E/DX2                !
 ! R10   R(6,7)                  1.3627         estimate D2E/DX2                !
 ! R11   R(6,20)                 1.0868         estimate D2E/DX2                !
 ! R12   R(7,8)                  1.37           estimate D2E/DX2                !
 ! R13   R(7,21)                 1.0964         estimate D2E/DX2                !
 ! R14   R(8,9)                  1.2911         estimate D2E/DX2                !
 ! R15   R(9,10)                 1.5026         estimate D2E/DX2                !
 ! R16   R(9,22)                 1.1062         estimate D2E/DX2                !
 ! R17   R(10,11)                1.3435         estimate D2E/DX2                !
 ! R18   R(11,12)                1.4099         estimate D2E/DX2                !
 ! R19   R(11,23)                1.0797         estimate D2E/DX2                !
 ! R20   R(12,13)                1.3293         estimate D2E/DX2                !
 ! R21   R(12,24)                1.0746         estimate D2E/DX2                !
 ! R22   R(13,14)                1.4927         estimate D2E/DX2                !
 ! R23   R(13,25)                1.0757         estimate D2E/DX2                !
 ! R24   R(14,15)                1.2927         estimate D2E/DX2                !
 ! R25   R(14,26)                1.0875         estimate D2E/DX2                !
 ! R26   R(15,16)                1.4744         estimate D2E/DX2                !
 ! R27   R(16,17)                1.7802         estimate D2E/DX2                !
 ! A1    A(1,2,3)              126.2531         estimate D2E/DX2                !
 ! A2    A(1,2,18)             120.7353         estimate D2E/DX2                !
 ! A3    A(3,2,18)             112.7858         estimate D2E/DX2                !
 ! A4    A(2,3,4)              122.4969         estimate D2E/DX2                !
 ! A5    A(2,3,19)             116.5021         estimate D2E/DX2                !
 ! A6    A(4,3,19)             117.9121         estimate D2E/DX2                !
 ! A7    A(3,4,5)              121.3715         estimate D2E/DX2                !
 ! A8    A(3,4,17)             102.8176         estimate D2E/DX2                !
 ! A9    A(5,4,17)             119.4985         estimate D2E/DX2                !
 ! A10   A(4,5,6)              123.9127         estimate D2E/DX2                !
 ! A11   A(4,5,10)             124.3935         estimate D2E/DX2                !
 ! A12   A(6,5,10)             108.3723         estimate D2E/DX2                !
 ! A13   A(5,6,7)              122.8248         estimate D2E/DX2                !
 ! A14   A(5,6,20)             122.3974         estimate D2E/DX2                !
 ! A15   A(7,6,20)             114.6316         estimate D2E/DX2                !
 ! A16   A(6,7,8)              126.3358         estimate D2E/DX2                !
 ! A17   A(6,7,21)             122.6818         estimate D2E/DX2                !
 ! A18   A(8,7,21)             110.729          estimate D2E/DX2                !
 ! A19   A(7,8,9)              115.6483         estimate D2E/DX2                !
 ! A20   A(8,9,10)             126.4925         estimate D2E/DX2                !
 ! A21   A(8,9,22)             116.7719         estimate D2E/DX2                !
 ! A22   A(10,9,22)            116.6718         estimate D2E/DX2                !
 ! A23   A(5,10,9)             119.0289         estimate D2E/DX2                !
 ! A24   A(5,10,11)            129.2437         estimate D2E/DX2                !
 ! A25   A(9,10,11)            111.0231         estimate D2E/DX2                !
 ! A26   A(10,11,12)           118.5435         estimate D2E/DX2                !
 ! A27   A(10,11,23)           124.1431         estimate D2E/DX2                !
 ! A28   A(12,11,23)           116.9517         estimate D2E/DX2                !
 ! A29   A(11,12,13)           133.4478         estimate D2E/DX2                !
 ! A30   A(11,12,24)           108.5019         estimate D2E/DX2                !
 ! A31   A(13,12,24)           117.9827         estimate D2E/DX2                !
 ! A32   A(12,13,14)           103.4179         estimate D2E/DX2                !
 ! A33   A(12,13,25)           123.4898         estimate D2E/DX2                !
 ! A34   A(14,13,25)           133.0869         estimate D2E/DX2                !
 ! A35   A(13,14,15)           124.5298         estimate D2E/DX2                !
 ! A36   A(13,14,26)           112.673          estimate D2E/DX2                !
 ! A37   A(15,14,26)           111.9218         estimate D2E/DX2                !
 ! A38   A(14,15,16)           111.7829         estimate D2E/DX2                !
 ! A39   A(15,16,17)           121.0327         estimate D2E/DX2                !
 ! A40   A(4,17,16)            110.0407         estimate D2E/DX2                !
 ! D1    D(1,2,3,4)            160.9292         estimate D2E/DX2                !
 ! D2    D(1,2,3,19)             1.2414         estimate D2E/DX2                !
 ! D3    D(18,2,3,4)           -13.6021         estimate D2E/DX2                !
 ! D4    D(18,2,3,19)         -173.29           estimate D2E/DX2                !
 ! D5    D(2,3,4,5)            175.3276         estimate D2E/DX2                !
 ! D6    D(2,3,4,17)           -47.7718         estimate D2E/DX2                !
 ! D7    D(19,3,4,5)           -25.2549         estimate D2E/DX2                !
 ! D8    D(19,3,4,17)          111.6458         estimate D2E/DX2                !
 ! D9    D(3,4,5,6)           -116.6532         estimate D2E/DX2                !
 ! D10   D(3,4,5,10)            40.343          estimate D2E/DX2                !
 ! D11   D(17,4,5,6)           113.2954         estimate D2E/DX2                !
 ! D12   D(17,4,5,10)          -89.7083         estimate D2E/DX2                !
 ! D13   D(3,4,17,16)            2.0835         estimate D2E/DX2                !
 ! D14   D(5,4,17,16)          139.9959         estimate D2E/DX2                !
 ! D15   D(4,5,6,7)            171.7366         estimate D2E/DX2                !
 ! D16   D(4,5,6,20)            -3.6297         estimate D2E/DX2                !
 ! D17   D(10,5,6,7)            11.6008         estimate D2E/DX2                !
 ! D18   D(10,5,6,20)         -163.7655         estimate D2E/DX2                !
 ! D19   D(4,5,10,9)          -164.6874         estimate D2E/DX2                !
 ! D20   D(4,5,10,11)           25.8619         estimate D2E/DX2                !
 ! D21   D(6,5,10,9)            -4.6699         estimate D2E/DX2                !
 ! D22   D(6,5,10,11)         -174.1205         estimate D2E/DX2                !
 ! D23   D(5,6,7,8)            -10.1707         estimate D2E/DX2                !
 ! D24   D(5,6,7,21)           176.1594         estimate D2E/DX2                !
 ! D25   D(20,6,7,8)           165.5258         estimate D2E/DX2                !
 ! D26   D(20,6,7,21)           -8.1441         estimate D2E/DX2                !
 ! D27   D(6,7,8,9)             -0.5329         estimate D2E/DX2                !
 ! D28   D(21,7,8,9)           173.7726         estimate D2E/DX2                !
 ! D29   D(7,8,9,10)             8.2097         estimate D2E/DX2                !
 ! D30   D(7,8,9,22)          -174.8071         estimate D2E/DX2                !
 ! D31   D(8,9,10,5)            -5.1287         estimate D2E/DX2                !
 ! D32   D(8,9,10,11)          166.1342         estimate D2E/DX2                !
 ! D33   D(22,9,10,5)          177.8855         estimate D2E/DX2                !
 ! D34   D(22,9,10,11)         -10.8517         estimate D2E/DX2                !
 ! D35   D(5,10,11,12)           6.1783         estimate D2E/DX2                !
 ! D36   D(5,10,11,23)         179.0507         estimate D2E/DX2                !
 ! D37   D(9,10,11,12)        -163.9468         estimate D2E/DX2                !
 ! D38   D(9,10,11,23)           8.9256         estimate D2E/DX2                !
 ! D39   D(10,11,12,13)       -144.3382         estimate D2E/DX2                !
 ! D40   D(10,11,12,24)         32.5078         estimate D2E/DX2                !
 ! D41   D(23,11,12,13)         42.2772         estimate D2E/DX2                !
 ! D42   D(23,11,12,24)       -140.8767         estimate D2E/DX2                !
 ! D43   D(11,12,13,14)        167.6242         estimate D2E/DX2                !
 ! D44   D(11,12,13,25)        -11.6324         estimate D2E/DX2                !
 ! D45   D(24,12,13,14)         -8.9886         estimate D2E/DX2                !
 ! D46   D(24,12,13,25)        171.7548         estimate D2E/DX2                !
 ! D47   D(12,13,14,15)        -90.689          estimate D2E/DX2                !
 ! D48   D(12,13,14,26)         50.4406         estimate D2E/DX2                !
 ! D49   D(25,13,14,15)         88.4621         estimate D2E/DX2                !
 ! D50   D(25,13,14,26)       -130.4084         estimate D2E/DX2                !
 ! D51   D(13,14,15,16)        119.741          estimate D2E/DX2                !
 ! D52   D(26,14,15,16)        -21.6358         estimate D2E/DX2                !
 ! D53   D(14,15,16,17)        -46.0148         estimate D2E/DX2                !
 ! D54   D(15,16,17,4)         -55.4041         estimate D2E/DX2                !
 --------------------------------------------------------------------------------
 Trust Radius=3.00D-01 FncErr=1.00D-07 GrdErr=1.00D-06 EigMax=2.50D+02 EigMin=1.00D-04
 Number of steps in this run=    131 maximum allowed number of steps=    156.
 GradGradGradGradGradGradGradGradGradGradGradGradGradGradGradGradGradGrad

                          Input orientation:                          
 ---------------------------------------------------------------------
 Center     Atomic      Atomic             Coordinates (Angstroms)
 Number     Number       Type             X           Y           Z
 ---------------------------------------------------------------------
      1          8           0        1.498950    1.519260   -1.429840
      2          6           0        2.506900    0.946570   -0.991940
      3          7           0        3.206190    1.283060    0.152440
      4          6           0        4.072590    0.392480    0.792000
      5          6           0        4.856350    0.795250    1.913100
      6          6           0        6.394940    0.826830    1.918220
      7          6           0        7.119270    1.367560    2.937930
      8          7           0        6.627590    2.114290    3.975950
      9          6           0        5.353230    2.321220    3.961050
     10          6           0        4.356150    1.689630    3.031120
     11          6           0        3.100300    1.882860    3.467620
     12          6           0        2.069510    1.086650    2.927930
     13          6           0        0.796410    1.320940    2.625810
     14          6           0        0.406990    0.127910    1.817550
     15          7           0        0.507370    0.049860    0.531080
     16          8           0        1.398970   -1.049120    0.117540
     17         16           0        2.978140   -1.294320    0.901920
     18          1           0        2.879810    0.023260   -1.463990
     19          1           0        2.845480    2.061930    0.689840
     20          1           0        6.987210    0.484810    1.073560
     21          1           0        8.214780    1.334380    2.968520
     22          1           0        4.948650    2.994650    4.739790
     23          1           0        2.837190    2.534300    4.287520
     24          1           0        2.472970    0.118170    2.695260
     25          1           0        0.266890    2.205800    2.931890
     26          1           0        0.666720   -0.810030    2.302690
 ---------------------------------------------------------------------
                    Distance matrix (angstroms):
                    1          2          3          4          5
     1  O    0.000000
     2  C    1.239231   0.000000
     3  N    2.339673   1.382692   0.000000
     4  C    3.581875   2.437384   1.397433   0.000000
     5  C    4.792867   3.739261   2.461892   1.425962   0.000000
     6  C    5.971573   4.858006   3.673452   2.617316   1.538923
     7  C    7.119580   6.074131   4.803987   3.852020   2.549240
     8  N    7.475264   6.559237   5.197706   4.430597   3.022004
     9  C    6.675351   5.875659   4.493670   3.924660   2.601840
    10  C    5.300262   4.489641   3.126421   2.603202   1.516603
    11  C    5.165427   4.595263   3.370666   3.213335   2.585177
    12  C    4.416203   3.946684   3.005655   3.009385   2.980146
    13  C    4.120824   4.019209   3.453409   3.867590   4.155408
    14  C    3.697807   3.601813   3.455790   3.815544   4.500142
    15  N    2.643402   2.668670   2.991284   3.591136   4.623766
    16  O    3.000159   2.537958   2.950648   3.111487   4.310361
    17  S    3.942251   2.971592   2.693810   2.013752   2.986044
    18  H    2.036162   1.101996   2.075203   2.578476   3.988410
    19  H    2.569178   2.046228   1.012694   2.074439   2.672909
    20  H    6.120302   4.955067   3.972629   2.929643   2.311226
    21  H    8.030076   6.958127   5.746209   4.773065   3.561408
    22  H    7.220910   6.558163   5.197065   4.808723   3.582744
    23  H    5.958976   5.522923   4.335972   4.281620   3.569198
    24  H    4.464103   3.779265   2.891455   2.501285   2.598213
    25  H    4.584103   4.690389   4.149250   4.727643   4.908231
    26  H    4.477720   4.162510   3.931095   3.915120   4.503521
                    6          7          8          9         10
     6  C    0.000000
     7  C    1.362663   0.000000
     8  N    2.438428   1.369978   0.000000
     9  C    2.737063   2.252807   1.291137   0.000000
    10  C    2.477829   2.783387   2.496493   1.502612   0.000000
    11  C    3.790843   4.086346   3.571237   2.347621   1.343514
    12  C    4.449311   5.057577   4.788578   3.657091   2.367056
    13  C    5.664659   6.330731   6.037793   4.852632   3.601660
    14  C    6.029442   6.917130   6.877518   5.819836   4.416739
    15  N    6.098469   7.158665   7.320252   6.356582   4.873618
    16  O    5.632171   6.820321   7.227237   6.462812   4.973391
    17  S    4.148092   5.327279   5.864023   5.298250   3.916167
    18  H    4.943805   6.257560   6.929012   6.389795   5.016212
    19  H    3.953866   4.878662   5.010551   4.129995   2.811107
    20  H    1.086836   2.067018   3.347895   3.792083   3.493724
    21  H    2.161609   1.096439   2.035276   3.185504   3.875454
    22  H    3.840893   3.256641   2.043850   1.106178   2.230176
    23  H    4.602893   4.638845   3.826306   2.546064   2.144586
    24  H    4.060522   4.817465   4.783882   3.840775   2.475612
    25  H    6.362553   6.903462   6.446467   5.190698   4.122903
    26  H    5.969894   6.839651   6.847147   5.875224   4.515618
                   11         12         13         14         15
    11  C    0.000000
    12  C    1.409874   0.000000
    13  C    2.516408   1.329267   0.000000
    14  C    3.613378   2.217228   1.492733   0.000000
    15  N    4.325094   3.043042   2.467201   1.292739   0.000000
    16  O    4.765928   3.592969   3.503096   2.293351   1.474355
    17  S    4.085610   3.255663   3.817241   3.077650   2.837084
    18  H    5.275178   4.590898   4.769800   4.110267   3.099917
    19  H    2.795185   2.561708   2.914744   3.310347   3.088752
    20  H    4.774321   5.290054   6.436971   6.631756   6.517039
    21  H    5.167963   6.150395   7.426294   7.983852   8.185064
    22  H    2.504175   3.900352   4.950890   6.114275   6.790434
    23  H    1.079739   2.129204   2.897983   4.218689   5.070636
    24  H    2.025886   1.074648   2.064542   2.244714   2.924367
    25  H    2.901639   2.121780   1.075664   2.361992   3.235707
    26  H    3.811959   2.440520   2.159227   1.087452   1.975704
                   16         17         18         19         20
    16  O    0.000000
    17  S    1.780211   0.000000
    18  H    2.417462   2.709837   0.000000
    19  H    3.478297   3.365559   2.965862   0.000000
    20  H    5.873274   4.389465   4.850044   4.448424   0.000000
    21  H    7.763016   6.213155   7.058901   5.878018   2.412379
    22  H    7.093483   6.083372   7.183046   4.657831   4.888381
    23  H    5.683143   5.112777   6.275907   3.628568   5.634946
    24  H    3.026662   2.338032   4.180178   2.817566   4.810686
    25  H    4.449345   4.870574   5.560089   3.420031   7.181775
    26  H    2.316945   2.745789   4.447473   3.949232   6.567798
                   21         22         23         24         25
    21  H    0.000000
    22  H    4.069582   0.000000
    23  H    5.665513   2.207880   0.000000
    24  H    5.875561   4.310827   2.916442   0.000000
    25  H    7.995603   5.080321   2.924395   3.046470   0.000000
    26  H    7.874962   6.224947   4.453654   2.068382   3.106604
                   26
    26  H    0.000000
 Stoichiometry    C11H9N3O2S
 Framework group  C1[X(C11H9N3O2S)]
 Deg. of freedom    72
 Full point group                 C1      NOp   1
 Largest Abelian subgroup         C1      NOp   1
 Largest concise Abelian subgroup C1      NOp   1
                         Standard orientation:                         
 ---------------------------------------------------------------------
 Center     Atomic      Atomic             Coordinates (Angstroms)
 Number     Number       Type             X           Y           Z
 ---------------------------------------------------------------------
      1          8           0        2.803210   -0.915676    2.057686
      2          6           0        1.919812   -1.373921    1.319234
      3          7           0        0.666306   -0.829588    1.108845
      4          6           0       -0.119592   -1.160220    0.001657
      5          6           0       -1.447584   -0.660978   -0.141733
      6          6           0       -2.701893   -1.552249   -0.166790
      7          6           0       -3.967349   -1.047508   -0.140170
      8          7           0       -4.317092    0.254158    0.105162
      9          6           0       -3.337224    1.061200    0.340905
     10          6           0       -1.872973    0.753371    0.202862
     11          6           0       -1.139110    1.878371    0.232022
     12          6           0        0.194951    1.824397   -0.220872
     13          6           0        1.315653    2.427591    0.162712
     14          6           0        2.381273    1.667250   -0.554637
     15          7           0        2.991117    0.632435   -0.076703
     16          8           0        2.790493   -0.559322   -0.921207
     17         16           0        1.174661   -0.990076   -1.531691
     18          1           0        2.119965   -2.245833    0.675726
     19          1           0        0.462315    0.035872    1.593526
     20          1           0       -2.646131   -2.637129   -0.133061
     21          1           0       -4.859040   -1.680533   -0.219819
     22          1           0       -3.602125    2.096008    0.628358
     23          1           0       -1.533615    2.853085    0.477248
     24          1           0        0.258398    1.096424   -1.008843
     25          1           0        1.339013    3.256444    0.847919
     26          1           0        2.178912    1.564012   -1.618096
 ---------------------------------------------------------------------
 Rotational constants (GHZ):           0.8268560           0.3195145           0.2852715
 Standard basis: 6-31G(2df,p) (6D, 7F)
 There are   576 symmetry adapted cartesian basis functions of A   symmetry.
 There are   525 symmetry adapted basis functions of A   symmetry.
   525 basis functions,   835 primitive gaussians,   576 cartesian basis functions
    64 alpha electrons       64 beta electrons
       nuclear repulsion energy      1301.0774714452 Hartrees.
 NAtoms=   26 NActive=   26 NUniq=   26 SFac= 1.00D+00 NAtFMM=   60 NAOKFM=F Big=F
 Integral buffers will be    131072 words long.
 Raffenetti 2 integral format.
 Two-electron integral symmetry is turned on.
 One-electron integrals computed using PRISM.
 PrsmSu:  requested number of processors reduced to:  12 ShMem   1 Linda.
 NBasis=   525 RedAO= T EigKep=  1.70D-04  NBF=   525
 NBsUse=   525 1.00D-06 EigRej= -1.00D+00 NBFU=   525
 ExpMin= 1.17D-01 ExpMax= 2.19D+04 ExpMxC= 3.30D+03 IAcc=3 IRadAn=         5 AccDes= 0.00D+00
 Harris functional with IExCor=  402 and IRadAn=       5 diagonalized for initial guess.
 HarFok:  IExCor=  402 AccDes= 0.00D+00 IRadAn=         5 IDoV= 1 UseB2=F ITyADJ=14
 ICtDFT=  3500011 ScaDFX=  1.000000  1.000000  1.000000  1.000000
 FoFCou: FMM=F IPFlag=           0 FMFlag=      100000 FMFlg1=           0
         NFxFlg=           0 DoJE=T BraDBF=F KetDBF=T FulRan=T
         wScrn=  0.000000 ICntrl=       500 IOpCl=  0 I1Cent=   200000004 NGrid=           0
         NMat0=    1 NMatS0=      1 NMatT0=    0 NMatD0=    1 NMtDS0=    0 NMtDT0=    0
 Petite list used in FoFCou.
 Requested convergence on RMS density matrix=1.00D-08 within 128 cycles.
 Requested convergence on MAX density matrix=1.00D-06.
 Requested convergence on             energy=1.00D-06.
 No special actions if energy rises.
 Integral accuracy reduced to 1.0D-05 until final iterations.
 EnCoef did     2 forward-backward iterations
 EnCoef did     3 forward-backward iterations
 EnCoef did     4 forward-backward iterations
 EnCoef did     4 forward-backward iterations
 EnCoef did     7 forward-backward iterations
 EnCoef did     4 forward-backward iterations
 Initial convergence to 1.0D-05 achieved.  Increase integral accuracy.
 SCF Done:  E(RB3LYP) =  -1137.15750274     A.U. after   25 cycles
            NFock= 25  Conv=0.97D-08     -V/T= 2.0060

 **********************************************************************

            Population analysis using the SCF density.

 **********************************************************************

 Orbital symmetries:
       Occupied  (A) (A) (A) (A) (A) (A) (A) (A) (A) (A) (A) (A)
                 (A) (A) (A) (A) (A) (A) (A) (A) (A) (A) (A) (A)
                 (A) (A) (A) (A) (A) (A) (A) (A) (A) (A) (A) (A)
                 (A) (A) (A) (A) (A) (A) (A) (A) (A) (A) (A) (A)
                 (A) (A) (A) (A) (A) (A) (A) (A) (A) (A) (A) (A)
                 (A) (A) (A) (A)
       Virtual   (A) (A) (A) (A) (A) (A) (A) (A) (A) (A) (A) (A)
                 (A) (A) (A) (A) (A) (A) (A) (A) (A) (A) (A) (A)
                 (A) (A) (A) (A) (A) (A) (A) (A) (A) (A) (A) (A)
                 (A) (A) (A) (A) (A) (A) (A) (A) (A) (A) (A) (A)
                 (A) (A) (A) (A) (A) (A) (A) (A) (A) (A) (A) (A)
                 (A) (A) (A) (A) (A) (A) (A) (A) (A) (A) (A) (A)
                 (A) (A) (A) (A) (A) (A) (A) (A) (A) (A) (A) (A)
                 (A) (A) (A) (A) (A) (A) (A) (A) (A) (A) (A) (A)
                 (A) (A) (A) (A) (A) (A) (A) (A) (A) (A) (A) (A)
                 (A) (A) (A) (A) (A) (A) (A) (A) (A) (A) (A) (A)
                 (A) (A) (A) (A) (A) (A) (A) (A) (A) (A) (A) (A)
                 (A) (A) (A) (A) (A) (A) (A) (A) (A) (A) (A) (A)
                 (A) (A) (A) (A) (A) (A) (A) (A) (A) (A) (A) (A)
                 (A) (A) (A) (A) (A) (A) (A) (A) (A) (A) (A) (A)
                 (A) (A) (A) (A) (A) (A) (A) (A) (A) (A) (A) (A)
                 (A) (A) (A) (A) (A) (A) (A) (A) (A) (A) (A) (A)
                 (A) (A) (A) (A) (A) (A) (A) (A) (A) (A) (A) (A)
                 (A) (A) (A) (A) (A) (A) (A) (A) (A) (A) (A) (A)
                 (A) (A) (A) (A) (A) (A) (A) (A) (A) (A) (A) (A)
                 (A) (A) (A) (A) (A) (A) (A) (A) (A) (A) (A) (A)
                 (A) (A) (A) (A) (A) (A) (A) (A) (A) (A) (A) (A)
                 (A) (A) (A) (A) (A) (A) (A) (A) (A) (A) (A) (A)
                 (A) (A) (A) (A) (A) (A) (A) (A) (A) (A) (A) (A)
                 (A) (A) (A) (A) (A) (A) (A) (A) (A) (A) (A) (A)
                 (A) (A) (A) (A) (A) (A) (A) (A) (A) (A) (A) (A)
                 (A) (A) (A) (A) (A) (A) (A) (A) (A) (A) (A) (A)
                 (A) (A) (A) (A) (A) (A) (A) (A) (A) (A) (A) (A)
                 (A) (A) (A) (A) (A) (A) (A) (A) (A) (A) (A) (A)
                 (A) (A) (A) (A) (A) (A) (A) (A) (A) (A) (A) (A)
                 (A) (A) (A) (A) (A) (A) (A) (A) (A) (A) (A) (A)
                 (A) (A) (A) (A) (A) (A) (A) (A) (A) (A) (A) (A)
                 (A) (A) (A) (A) (A) (A) (A) (A) (A) (A) (A) (A)
                 (A) (A) (A) (A) (A) (A) (A) (A) (A) (A) (A) (A)
                 (A) (A) (A) (A) (A) (A) (A) (A) (A) (A) (A) (A)
                 (A) (A) (A) (A) (A) (A) (A) (A) (A) (A) (A) (A)
                 (A) (A) (A) (A) (A) (A) (A) (A) (A) (A) (A) (A)
                 (A) (A) (A) (A) (A) (A) (A) (A) (A) (A) (A) (A)
                 (A) (A) (A) (A) (A) (A) (A) (A) (A) (A) (A) (A)
                 (A) (A) (A) (A) (A)
 The electronic state is 1-A.
 Alpha  occ. eigenvalues --  -88.96586 -19.23345 -19.12813 -14.40386 -14.39761
 Alpha  occ. eigenvalues --  -14.33622 -10.30074 -10.29566 -10.26092 -10.24501
 Alpha  occ. eigenvalues --  -10.24100 -10.23163 -10.22809 -10.22218 -10.22047
 Alpha  occ. eigenvalues --  -10.21101 -10.20775  -8.02020  -5.98653  -5.98290
 Alpha  occ. eigenvalues --   -5.97386  -1.07557  -1.03681  -0.96866  -0.94901
 Alpha  occ. eigenvalues --   -0.89884  -0.85705  -0.81005  -0.79118  -0.75555
 Alpha  occ. eigenvalues --   -0.71005  -0.69783  -0.64566  -0.62865  -0.62235
 Alpha  occ. eigenvalues --   -0.58812  -0.57736  -0.54746  -0.52363  -0.51322
 Alpha  occ. eigenvalues --   -0.49808  -0.49666  -0.47527  -0.45906  -0.45449
 Alpha  occ. eigenvalues --   -0.44570  -0.43395  -0.42382  -0.42042  -0.41023
 Alpha  occ. eigenvalues --   -0.39884  -0.38997  -0.37390  -0.37156  -0.33871
 Alpha  occ. eigenvalues --   -0.32790  -0.30643  -0.29382  -0.27962  -0.27536
 Alpha  occ. eigenvalues --   -0.26893  -0.26256  -0.25808  -0.18703
 Alpha virt. eigenvalues --   -0.14833  -0.09849  -0.06578  -0.03546  -0.03124
 Alpha virt. eigenvalues --   -0.01670   0.02562   0.03416   0.07874   0.09125
 Alpha virt. eigenvalues --    0.10064   0.10885   0.11164   0.11461   0.13046
 Alpha virt. eigenvalues --    0.15249   0.15990   0.16600   0.17260   0.18497
 Alpha virt. eigenvalues --    0.21095   0.22891   0.23283   0.25255   0.26879
 Alpha virt. eigenvalues --    0.28492   0.28724   0.28815   0.29701   0.30196
 Alpha virt. eigenvalues --    0.31511   0.32538   0.33349   0.34412   0.35995
 Alpha virt. eigenvalues --    0.37401   0.38429   0.40291   0.40831   0.41968
 Alpha virt. eigenvalues --    0.42804   0.43013   0.44051   0.44882   0.45675
 Alpha virt. eigenvalues --    0.46770   0.47418   0.47777   0.48455   0.49314
 Alpha virt. eigenvalues --    0.50038   0.50857   0.52575   0.53354   0.53642
 Alpha virt. eigenvalues --    0.54529   0.55353   0.55453   0.55703   0.56678
 Alpha virt. eigenvalues --    0.57908   0.59399   0.59562   0.60590   0.61476
 Alpha virt. eigenvalues --    0.62803   0.63743   0.64811   0.66741   0.67297
 Alpha virt. eigenvalues --    0.68074   0.68905   0.69377   0.70710   0.71202
 Alpha virt. eigenvalues --    0.71730   0.73231   0.73777   0.74217   0.74464
 Alpha virt. eigenvalues --    0.75054   0.76113   0.76800   0.76976   0.78438
 Alpha virt. eigenvalues --    0.78986   0.79728   0.80385   0.81030   0.82169
 Alpha virt. eigenvalues --    0.83530   0.84474   0.85166   0.85893   0.87888
 Alpha virt. eigenvalues --    0.89274   0.89910   0.90469   0.90708   0.92299
 Alpha virt. eigenvalues --    0.92859   0.93393   0.95090   0.96022   0.97167
 Alpha virt. eigenvalues --    0.97748   0.97831   0.99150   0.99671   1.01147
 Alpha virt. eigenvalues --    1.02188   1.03208   1.03695   1.04658   1.06186
 Alpha virt. eigenvalues --    1.06831   1.09119   1.09555   1.10379   1.10996
 Alpha virt. eigenvalues --    1.14037   1.15075   1.15937   1.17720   1.20056
 Alpha virt. eigenvalues --    1.20707   1.22000   1.23094   1.24042   1.25961
 Alpha virt. eigenvalues --    1.26296   1.27077   1.30849   1.32714   1.33202
 Alpha virt. eigenvalues --    1.34342   1.34796   1.35305   1.36027   1.37872
 Alpha virt. eigenvalues --    1.38058   1.40047   1.40875   1.42092   1.42766
 Alpha virt. eigenvalues --    1.43946   1.44237   1.45661   1.46819   1.47590
 Alpha virt. eigenvalues --    1.48866   1.49450   1.51325   1.52158   1.53341
 Alpha virt. eigenvalues --    1.53517   1.55554   1.56954   1.57839   1.58375
 Alpha virt. eigenvalues --    1.59003   1.60239   1.61182   1.62713   1.62842
 Alpha virt. eigenvalues --    1.64966   1.66260   1.67634   1.68054   1.69591
 Alpha virt. eigenvalues --    1.70652   1.71683   1.72330   1.72666   1.75538
 Alpha virt. eigenvalues --    1.76602   1.77991   1.81284   1.81495   1.82539
 Alpha virt. eigenvalues --    1.83752   1.85799   1.86954   1.89685   1.90820
 Alpha virt. eigenvalues --    1.92208   1.92925   1.95398   1.97113   1.97746
 Alpha virt. eigenvalues --    1.99256   2.00060   2.01896   2.04900   2.06163
 Alpha virt. eigenvalues --    2.07174   2.08888   2.09335   2.13908   2.15069
 Alpha virt. eigenvalues --    2.16699   2.18070   2.20755   2.22280   2.24061
 Alpha virt. eigenvalues --    2.26762   2.28185   2.29561   2.30493   2.33981
 Alpha virt. eigenvalues --    2.34463   2.36219   2.38561   2.39933   2.41087
 Alpha virt. eigenvalues --    2.43337   2.44000   2.47519   2.50137   2.52646
 Alpha virt. eigenvalues --    2.54091   2.57273   2.60039   2.60863   2.65321
 Alpha virt. eigenvalues --    2.67763   2.68984   2.71055   2.71862   2.75458
 Alpha virt. eigenvalues --    2.77618   2.77969   2.80137   2.82510   2.83825
 Alpha virt. eigenvalues --    2.84107   2.86280   2.89231   2.90580   2.92111
 Alpha virt. eigenvalues --    2.93117   2.93784   2.94463   2.95637   2.97206
 Alpha virt. eigenvalues --    2.98219   2.99398   3.00129   3.01171   3.03475
 Alpha virt. eigenvalues --    3.04235   3.05716   3.07367   3.07833   3.08963
 Alpha virt. eigenvalues --    3.10301   3.11600   3.13262   3.14212   3.14435
 Alpha virt. eigenvalues --    3.17593   3.19541   3.20510   3.21817   3.23042
 Alpha virt. eigenvalues --    3.23754   3.25325   3.26519   3.27255   3.28033
 Alpha virt. eigenvalues --    3.28641   3.29096   3.30843   3.32520   3.33243
 Alpha virt. eigenvalues --    3.34877   3.36447   3.37478   3.38093   3.40136
 Alpha virt. eigenvalues --    3.40704   3.43590   3.45298   3.46044   3.48137
 Alpha virt. eigenvalues --    3.50290   3.51489   3.52505   3.54406   3.54877
 Alpha virt. eigenvalues --    3.55262   3.56814   3.58682   3.60385   3.61534
 Alpha virt. eigenvalues --    3.62641   3.64976   3.66517   3.68199   3.70368
 Alpha virt. eigenvalues --    3.71090   3.74645   3.76073   3.77516   3.78209
 Alpha virt. eigenvalues --    3.79686   3.80605   3.83629   3.85568   3.87350
 Alpha virt. eigenvalues --    3.89251   3.92156   3.94759   3.97057   3.98634
 Alpha virt. eigenvalues --    3.99962   4.00865   4.03662   4.04286   4.07115
 Alpha virt. eigenvalues --    4.08048   4.09786   4.10710   4.11991   4.12963
 Alpha virt. eigenvalues --    4.14903   4.15283   4.16601   4.18127   4.19601
 Alpha virt. eigenvalues --    4.21492   4.22549   4.23207   4.24578   4.26023
 Alpha virt. eigenvalues --    4.27402   4.28853   4.30457   4.31608   4.32521
 Alpha virt. eigenvalues --    4.33978   4.35773   4.37415   4.38248   4.38530
 Alpha virt. eigenvalues --    4.40355   4.40577   4.43597   4.44403   4.44733
 Alpha virt. eigenvalues --    4.46438   4.46754   4.47046   4.47581   4.48306
 Alpha virt. eigenvalues --    4.49879   4.50733   4.52334   4.53206   4.54776
 Alpha virt. eigenvalues --    4.55775   4.56423   4.57590   4.58649   4.59609
 Alpha virt. eigenvalues --    4.60567   4.61820   4.62358   4.63170   4.65522
 Alpha virt. eigenvalues --    4.66663   4.68168   4.68560   4.69697   4.70137
 Alpha virt. eigenvalues --    4.71506   4.73447   4.74981   4.76377   4.77684
 Alpha virt. eigenvalues --    4.78278   4.80280   4.82583   4.83953   4.86687
 Alpha virt. eigenvalues --    4.88148   4.90755   4.93192   4.94381   4.94531
 Alpha virt. eigenvalues --    4.96618   4.98657   4.99623   5.03070   5.04341
 Alpha virt. eigenvalues --    5.04942   5.07348   5.08350   5.09894   5.11510
 Alpha virt. eigenvalues --    5.12028   5.13941   5.15661   5.16349   5.19913
 Alpha virt. eigenvalues --    5.23886   5.24333   5.25129   5.28268   5.29686
 Alpha virt. eigenvalues --    5.32070   5.32219   5.34853   5.38919   5.41746
 Alpha virt. eigenvalues --    5.43681   5.45099   5.47287   5.50029   5.51715
 Alpha virt. eigenvalues --    5.53429   5.56891   5.60060   5.61632   5.64800
 Alpha virt. eigenvalues --    5.71215   5.75212   5.77591   5.78276   5.79033
 Alpha virt. eigenvalues --    5.84154   5.91446   5.93648   5.96466   6.08458
 Alpha virt. eigenvalues --    6.16694   6.22043   6.28473   6.43106   6.61888
 Alpha virt. eigenvalues --    6.71970   6.81630   9.79932   9.92652  10.35223
 Alpha virt. eigenvalues --   10.67393  10.88480  11.03878  11.20179  11.34148
 Alpha virt. eigenvalues --   11.35151  11.37627  11.52907  11.68198  12.16280
 Alpha virt. eigenvalues --   12.29823  12.96160  13.14624  13.43473  18.11792
 Alpha virt. eigenvalues --   18.64254
          Condensed to atoms (all electrons):
               1          2          3          4          5          6
     1  O    7.697099   0.708896  -0.046788   0.000180  -0.000168   0.000000
     2  C    0.708896   4.560121   0.236360  -0.049335   0.002961  -0.000049
     3  N   -0.046788   0.236360   6.548130   0.381150  -0.041669  -0.000588
     4  C    0.000180  -0.049335   0.381150   5.273472   0.386908  -0.041204
     5  C   -0.000168   0.002961  -0.041669   0.386908   4.951392   0.437389
     6  C    0.000000  -0.000049  -0.000588  -0.041204   0.437389   4.913741
     7  C   -0.000000   0.000001   0.000009   0.002167  -0.012154   0.571977
     8  N    0.000000   0.000000  -0.000006   0.000058  -0.045599  -0.003720
     9  C   -0.000000  -0.000006   0.000057   0.004504  -0.020140  -0.026916
    10  C   -0.000005  -0.000214  -0.003880  -0.027422   0.471895  -0.008649
    11  C    0.000003  -0.000033  -0.001297  -0.025821  -0.041150   0.005499
    12  C   -0.000119  -0.001117  -0.004531   0.013742  -0.013943  -0.000015
    13  C    0.000103   0.001338   0.002297  -0.003722   0.001956  -0.000017
    14  C    0.000383  -0.001294  -0.000721  -0.000371   0.000091   0.000000
    15  N   -0.009348  -0.003475  -0.002101   0.001307  -0.000118  -0.000001
    16  O   -0.002252   0.005279  -0.006634  -0.002266   0.000004  -0.000002
    17  S   -0.000589  -0.007790  -0.053864   0.210809  -0.038055   0.002034
    18  H   -0.050978   0.383432  -0.101774   0.002600   0.000773   0.000014
    19  H    0.004286  -0.002356   0.293040  -0.046841   0.007844   0.000348
    20  H   -0.000000   0.000001  -0.000007  -0.002048  -0.040471   0.355498
    21  H    0.000000  -0.000000   0.000000  -0.000088   0.001636  -0.049338
    22  H   -0.000000  -0.000000  -0.000004  -0.000056   0.001564   0.001033
    23  H    0.000000   0.000000  -0.000048  -0.000059   0.004086  -0.000034
    24  H    0.000035  -0.000097  -0.006095   0.010717  -0.001522   0.000040
    25  H   -0.000004  -0.000005  -0.000034   0.000037  -0.000019   0.000000
    26  H   -0.000059   0.000052   0.000191  -0.000514   0.000055   0.000000
               7          8          9         10         11         12
     1  O   -0.000000   0.000000  -0.000000  -0.000005   0.000003  -0.000119
     2  C    0.000001   0.000000  -0.000006  -0.000214  -0.000033  -0.001117
     3  N    0.000009  -0.000006   0.000057  -0.003880  -0.001297  -0.004531
     4  C    0.002167   0.000058   0.004504  -0.027422  -0.025821   0.013742
     5  C   -0.012154  -0.045599  -0.020140   0.471895  -0.041150  -0.013943
     6  C    0.571977  -0.003720  -0.026916  -0.008649   0.005499  -0.000015
     7  C    4.722061   0.490637  -0.100321  -0.019963   0.001470  -0.000043
     8  N    0.490637   6.261104   0.602158  -0.010501   0.004031  -0.000318
     9  C   -0.100321   0.602158   4.811960   0.437761  -0.056619   0.004950
    10  C   -0.019963  -0.010501   0.437761   4.583966   0.500002   0.013648
    11  C    0.001470   0.004031  -0.056619   0.500002   5.123045   0.407464
    12  C   -0.000043  -0.000318   0.004950   0.013648   0.407464   4.754712
    13  C    0.000001   0.000001  -0.000163  -0.002456  -0.010841   0.584188
    14  C   -0.000000   0.000000  -0.000001   0.000023   0.002101  -0.014641
    15  N   -0.000000  -0.000000   0.000000   0.000109   0.000155  -0.014956
    16  O    0.000000  -0.000000   0.000000   0.000024  -0.000007   0.001886
    17  S   -0.000062   0.000009  -0.000304  -0.001736   0.006044  -0.036335
    18  H    0.000000   0.000000  -0.000000  -0.000036  -0.000003  -0.000093
    19  H   -0.000006  -0.000002  -0.000216  -0.000290   0.002736   0.003928
    20  H   -0.032952   0.005036  -0.000142   0.002772  -0.000046  -0.000010
    21  H    0.371584  -0.033788   0.001837   0.001325   0.000007  -0.000000
    22  H    0.004070  -0.022865   0.358658  -0.061024  -0.003212  -0.000168
    23  H   -0.000048   0.000658  -0.011514  -0.039206   0.372271  -0.051423
    24  H   -0.000014  -0.000005   0.000334  -0.015608  -0.045401   0.379028
    25  H   -0.000000  -0.000000  -0.000003   0.000133  -0.007535  -0.028982
    26  H    0.000000  -0.000000  -0.000002  -0.000066   0.001227  -0.011580
              13         14         15         16         17         18
     1  O    0.000103   0.000383  -0.009348  -0.002252  -0.000589  -0.050978
     2  C    0.001338  -0.001294  -0.003475   0.005279  -0.007790   0.383432
     3  N    0.002297  -0.000721  -0.002101  -0.006634  -0.053864  -0.101774
     4  C   -0.003722  -0.000371   0.001307  -0.002266   0.210809   0.002600
     5  C    0.001956   0.000091  -0.000118   0.000004  -0.038055   0.000773
     6  C   -0.000017   0.000000  -0.000001  -0.000002   0.002034   0.000014
     7  C    0.000001  -0.000000  -0.000000   0.000000  -0.000062   0.000000
     8  N    0.000001   0.000000  -0.000000  -0.000000   0.000009   0.000000
     9  C   -0.000163  -0.000001   0.000000   0.000000  -0.000304  -0.000000
    10  C   -0.002456   0.000023   0.000109   0.000024  -0.001736  -0.000036
    11  C   -0.010841   0.002101   0.000155  -0.000007   0.006044  -0.000003
    12  C    0.584188  -0.014641  -0.014956   0.001886  -0.036335  -0.000093
    13  C    5.092595   0.350684  -0.051645   0.002868  -0.003533   0.000053
    14  C    0.350684   4.868797   0.547957  -0.050461  -0.009883   0.000094
    15  N   -0.051645   0.547957   6.454816   0.196405  -0.045185  -0.001721
    16  O    0.002868  -0.050461   0.196405   7.955180   0.203232  -0.002175
    17  S   -0.003533  -0.009883  -0.045185   0.203232  15.597844   0.003158
    18  H    0.000053   0.000094  -0.001721  -0.002175   0.003158   0.634283
    19  H    0.007034   0.000288  -0.000251  -0.000621   0.008051   0.006949
    20  H    0.000000   0.000000  -0.000000  -0.000000   0.000214   0.000002
    21  H   -0.000000   0.000000   0.000000  -0.000000   0.000001  -0.000000
    22  H    0.000001   0.000000  -0.000000  -0.000000   0.000002  -0.000000
    23  H   -0.003447  -0.000152  -0.000018  -0.000000  -0.000055   0.000000
    24  H   -0.061184  -0.010575  -0.001485  -0.000722   0.009995   0.000013
    25  H    0.363973  -0.027994   0.000910  -0.000054  -0.000245   0.000000
    26  H   -0.051860   0.353747  -0.041994  -0.010306   0.016312   0.000027
              19         20         21         22         23         24
     1  O    0.004286  -0.000000   0.000000  -0.000000   0.000000   0.000035
     2  C   -0.002356   0.000001  -0.000000  -0.000000   0.000000  -0.000097
     3  N    0.293040  -0.000007   0.000000  -0.000004  -0.000048  -0.006095
     4  C   -0.046841  -0.002048  -0.000088  -0.000056  -0.000059   0.010717
     5  C    0.007844  -0.040471   0.001636   0.001564   0.004086  -0.001522
     6  C    0.000348   0.355498  -0.049338   0.001033  -0.000034   0.000040
     7  C   -0.000006  -0.032952   0.371584   0.004070  -0.000048  -0.000014
     8  N   -0.000002   0.005036  -0.033788  -0.022865   0.000658  -0.000005
     9  C   -0.000216  -0.000142   0.001837   0.358658  -0.011514   0.000334
    10  C   -0.000290   0.002772   0.001325  -0.061024  -0.039206  -0.015608
    11  C    0.002736  -0.000046   0.000007  -0.003212   0.372271  -0.045401
    12  C    0.003928  -0.000010  -0.000000  -0.000168  -0.051423   0.379028
    13  C    0.007034   0.000000  -0.000000   0.000001  -0.003447  -0.061184
    14  C    0.000288   0.000000   0.000000   0.000000  -0.000152  -0.010575
    15  N   -0.000251  -0.000000   0.000000  -0.000000  -0.000018  -0.001485
    16  O   -0.000621  -0.000000  -0.000000  -0.000000  -0.000000  -0.000722
    17  S    0.008051   0.000214   0.000001   0.000002  -0.000055   0.009995
    18  H    0.006949   0.000002  -0.000000  -0.000000   0.000000   0.000013
    19  H    0.441493   0.000020  -0.000000   0.000008   0.000158  -0.000959
    20  H    0.000020   0.599372  -0.005222   0.000027   0.000003  -0.000003
    21  H   -0.000000  -0.005222   0.600067  -0.000377  -0.000000   0.000000
    22  H    0.000008   0.000027  -0.000377   0.599454   0.007074  -0.000023
    23  H    0.000158   0.000003  -0.000000   0.007074   0.598621   0.005872
    24  H   -0.000959  -0.000003   0.000000  -0.000023   0.005872   0.591046
    25  H    0.000129   0.000000   0.000000  -0.000000   0.001829   0.005741
    26  H    0.000247   0.000000  -0.000000   0.000000   0.000007  -0.001122
              25         26
     1  O   -0.000004  -0.000059
     2  C   -0.000005   0.000052
     3  N   -0.000034   0.000191
     4  C    0.000037  -0.000514
     5  C   -0.000019   0.000055
     6  C    0.000000   0.000000
     7  C   -0.000000   0.000000
     8  N   -0.000000  -0.000000
     9  C   -0.000003  -0.000002
    10  C    0.000133  -0.000066
    11  C   -0.007535   0.001227
    12  C   -0.028982  -0.011580
    13  C    0.363973  -0.051860
    14  C   -0.027994   0.353747
    15  N    0.000910  -0.041994
    16  O   -0.000054  -0.010306
    17  S   -0.000245   0.016312
    18  H    0.000000   0.000027
    19  H    0.000129   0.000247
    20  H    0.000000   0.000000
    21  H    0.000000  -0.000000
    22  H   -0.000000   0.000000
    23  H    0.001829   0.000007
    24  H    0.005741  -0.001122
    25  H    0.554668   0.002933
    26  H    0.002933   0.601879
 Mulliken charges:
               1
     1  O   -0.300676
     2  C    0.167328
     3  N   -0.191194
     4  C   -0.087904
     5  C   -0.013545
     6  C   -0.157041
     7  C    0.001586
     8  N   -0.246890
     9  C   -0.005872
    10  C    0.179397
    11  C   -0.234089
    12  C    0.014729
    13  C   -0.218227
    14  C   -0.008073
    15  N   -0.029362
    16  O   -0.289378
    17  S    0.139931
    18  H    0.125380
    19  H    0.274982
    20  H    0.117957
    21  H    0.112354
    22  H    0.115837
    23  H    0.115428
    24  H    0.141995
    25  H    0.134523
    26  H    0.140825
 Sum of Mulliken charges =  -0.00000
 Mulliken charges with hydrogens summed into heavy atoms:
               1
     1  O   -0.300676
     2  C    0.292708
     3  N    0.083788
     4  C   -0.087904
     5  C   -0.013545
     6  C   -0.039085
     7  C    0.113940
     8  N   -0.246890
     9  C    0.109965
    10  C    0.179397
    11  C   -0.118661
    12  C    0.156724
    13  C   -0.083704
    14  C    0.132752
    15  N   -0.029362
    16  O   -0.289378
    17  S    0.139931
 Electronic spatial extent (au):  <R**2>=           3971.4505
 Charge=             -0.0000 electrons
 Dipole moment (field-independent basis, Debye):
    X=             -1.9503    Y=              1.7451    Z=             -1.2793  Tot=              2.9130
 Quadrupole moment (field-independent basis, Debye-Ang):
   XX=           -126.8480   YY=            -91.7479   ZZ=           -106.9292
   XY=              6.7334   XZ=             -7.5593   YZ=              2.1294
 Traceless Quadrupole moment (field-independent basis, Debye-Ang):
   XX=            -18.3396   YY=             16.7605   ZZ=              1.5792
   XY=              6.7334   XZ=             -7.5593   YZ=              2.1294
 Octapole moment (field-independent basis, Debye-Ang**2):
  XXX=             33.8543  YYY=              6.3556  ZZZ=             -8.3990  XYY=              0.8303
  XXY=             -6.1699  XXZ=            -24.8518  XZZ=             -2.6562  YZZ=              6.5284
  YYZ=             10.1019  XYZ=             -2.3048
 Hexadecapole moment (field-independent basis, Debye-Ang**3):
 XXXX=          -3969.9392 YYYY=          -1090.3192 ZZZZ=           -605.8804 XXXY=            111.0355
 XXXZ=            -55.4329 YYYX=             -8.4325 YYYZ=             16.1703 ZZZX=            -34.3344
 ZZZY=              4.1527 XXYY=           -700.9799 XXZZ=           -742.8026 YYZZ=           -298.2661
 XXYZ=             17.3278 YYXZ=              2.8086 ZZXY=             11.4616
 N-N= 1.301077471445D+03 E-N=-5.269271288864D+03  KE= 1.130377315510D+03
 PrsmSu:  requested number of processors reduced to:  13 ShMem   1 Linda.
 Calling FoFJK, ICntrl=      2127 FMM=F ISym2X=0 I1Cent= 0 IOpClX= 0 NMat=1 NMatS=1 NMatT=0.
 ***** Axes restored to original set *****
 -------------------------------------------------------------------
 Center     Atomic                   Forces (Hartrees/Bohr)
 Number     Number              X              Y              Z
 -------------------------------------------------------------------
      1        8           0.054049503   -0.006939409    0.018189850
      2        6          -0.049528432    0.007781582   -0.033591878
      3        7           0.000009197   -0.003785614    0.015396638
      4        6          -0.044166507   -0.003712457   -0.001189817
      5        6           0.058476728    0.040424277    0.027480170
      6        6          -0.045983780   -0.023991666   -0.000489484
      7        6           0.012300748    0.006213099    0.004043692
      8        7          -0.009342018   -0.000209566    0.001050056
      9        6          -0.009728003   -0.004855015   -0.010510852
     10        6           0.060347699    0.007508905    0.002313035
     11        6          -0.036191041   -0.000788638    0.006585167
     12        6           0.005291726    0.002027424    0.009060666
     13        6          -0.022467575   -0.002147356    0.003531970
     14        6           0.014263263   -0.021063603   -0.013753778
     15        7           0.005237962    0.015026094    0.010949779
     16        8           0.012388374   -0.011902367    0.009081624
     17       16          -0.001173444    0.000000268   -0.017568700
     18        1           0.006629914    0.006648044   -0.000637266
     19        1           0.001141956    0.008748017   -0.004984654
     20        1          -0.009277338   -0.009860733   -0.000882940
     21        1          -0.006276667   -0.002374509   -0.010127144
     22        1           0.001532047   -0.005961544   -0.008949197
     23        1           0.007239567    0.007586821    0.002226999
     24        1          -0.000767125   -0.003952633   -0.009053322
     25        1          -0.007959580    0.003095706   -0.008186903
     26        1           0.003952823   -0.003515128    0.010016289
 -------------------------------------------------------------------
 Cartesian Forces:  Max     0.060347699 RMS     0.018568982

 GradGradGradGradGradGradGradGradGradGradGradGradGradGradGradGradGradGrad
 Berny optimization.
 FormGI is forming the generalized inverse of G from B-inverse, IUseBI=4.
 Internal  Forces:  Max     0.060578042 RMS     0.015701028
 Search for a local minimum.
 Step number   1 out of a maximum of  131
 All quantities printed in internal units (Hartrees-Bohrs-Radians)
 Mixed Optimization -- RFO/linear search
 Second derivative matrix not updated -- first step.
 ITU=  0
     Eigenvalues ---    0.00521   0.00817   0.01019   0.01280   0.01379
     Eigenvalues ---    0.01400   0.01531   0.01726   0.01772   0.01882
     Eigenvalues ---    0.01921   0.01958   0.02072   0.02178   0.02245
     Eigenvalues ---    0.02415   0.02438   0.02521   0.02689   0.02745
     Eigenvalues ---    0.03339   0.05898   0.06633   0.12868   0.14381
     Eigenvalues ---    0.14694   0.15498   0.15913   0.15944   0.15969
     Eigenvalues ---    0.15988   0.15989   0.15998   0.16000   0.16958
     Eigenvalues ---    0.21449   0.21944   0.22015   0.22078   0.22157
     Eigenvalues ---    0.22448   0.22527   0.23095   0.23981   0.24087
     Eigenvalues ---    0.24349   0.27608   0.28242   0.29834   0.31540
     Eigenvalues ---    0.32773   0.33008   0.33462   0.34079   0.34981
     Eigenvalues ---    0.35109   0.35181   0.36026   0.36523   0.36649
     Eigenvalues ---    0.40939   0.43460   0.45524   0.46049   0.48613
     Eigenvalues ---    0.48901   0.51123   0.55788   0.59014   0.67302
     Eigenvalues ---    0.68305   0.87346
 RFO step:  Lambda=-1.08774213D-01 EMin= 5.20801990D-03
 Linear search not attempted -- first point.
 Maximum step size (   0.300) exceeded in Quadratic search.
    -- Step size scaled by   0.744
 Iteration  1 RMS(Cart)=  0.21766900 RMS(Int)=  0.01141138
 Iteration  2 RMS(Cart)=  0.01998483 RMS(Int)=  0.00120145
 Iteration  3 RMS(Cart)=  0.00014765 RMS(Int)=  0.00119723
 Iteration  4 RMS(Cart)=  0.00000013 RMS(Int)=  0.00119723
 Variable       Old X    -DE/DX   Delta X   Delta X   Delta X     New X
                                 (Linear)    (Quad)   (Total)
    R1        2.34181  -0.05360   0.00000  -0.04060  -0.04060   2.30121
    R2        2.61291   0.00581   0.00000   0.00727   0.00727   2.62018
    R3        2.08247  -0.00305   0.00000  -0.00512  -0.00512   2.07735
    R4        2.64077   0.00288   0.00000   0.00377   0.00377   2.64453
    R5        1.91371   0.00368   0.00000   0.00485   0.00485   1.91856
    R6        2.69468   0.00995   0.00000   0.01329   0.01313   2.70780
    R7        3.80544  -0.00539   0.00000  -0.01457  -0.01473   3.79071
    R8        2.90814  -0.06058   0.00000  -0.11481  -0.11493   2.79321
    R9        2.86596  -0.01945   0.00000  -0.03642  -0.03676   2.82920
   R10        2.57506  -0.00329   0.00000  -0.00330  -0.00327   2.57179
   R11        2.05382  -0.00127   0.00000  -0.00205  -0.00205   2.05178
   R12        2.58888   0.00644   0.00000   0.00889   0.00910   2.59799
   R13        2.07197  -0.00648   0.00000  -0.01073  -0.01073   2.06124
   R14        2.43990   0.00175   0.00000   0.00208   0.00227   2.44217
   R15        2.83953  -0.02258   0.00000  -0.03976  -0.03982   2.79971
   R16        2.09037  -0.01049   0.00000  -0.01778  -0.01778   2.07259
   R17        2.53887   0.04332   0.00000   0.04822   0.04827   2.58714
   R18        2.66428   0.02111   0.00000   0.02886   0.02904   2.69332
   R19        2.04041   0.00450   0.00000   0.00715   0.00715   2.04756
   R20        2.51195   0.01983   0.00000   0.02167   0.02178   2.53373
   R21        2.03079   0.00523   0.00000   0.00819   0.00819   2.03898
   R22        2.82086   0.00676   0.00000   0.01127   0.01144   2.83230
   R23        2.03271   0.00414   0.00000   0.00649   0.00649   2.03920
   R24        2.44292  -0.00491   0.00000  -0.00400  -0.00390   2.43902
   R25        2.05499   0.00844   0.00000   0.01366   0.01366   2.06865
   R26        2.78613  -0.00540   0.00000  -0.00971  -0.00966   2.77647
   R27        3.36411  -0.03253   0.00000  -0.06423  -0.06435   3.29976
    A1        2.20353  -0.01439   0.00000  -0.03094  -0.03356   2.16997
    A2        2.10723   0.01183   0.00000   0.03126   0.02864   2.13587
    A3        1.96848   0.00442   0.00000   0.01075   0.00813   1.97661
    A4        2.13797   0.02126   0.00000   0.05327   0.05055   2.18852
    A5        2.03334  -0.01027   0.00000  -0.01578  -0.01863   2.01472
    A6        2.05795  -0.00334   0.00000   0.00355   0.00086   2.05882
    A7        2.11833  -0.02359   0.00000  -0.02856  -0.03272   2.08561
    A8        1.79451   0.05261   0.00000   0.14577   0.14455   1.93905
    A9        2.08564  -0.01105   0.00000  -0.01422  -0.01760   2.06805
   A10        2.16268  -0.03854   0.00000  -0.07602  -0.07477   2.08792
   A11        2.17108   0.01561   0.00000   0.03035   0.02889   2.19996
   A12        1.89145   0.02292   0.00000   0.04901   0.04935   1.94081
   A13        2.14370  -0.00101   0.00000  -0.00210  -0.00279   2.14090
   A14        2.13624  -0.01055   0.00000  -0.02978  -0.02942   2.10682
   A15        2.00070   0.01140   0.00000   0.03077   0.03096   2.03166
   A16        2.20497  -0.00883   0.00000  -0.01701  -0.01749   2.18748
   A17        2.14120  -0.00598   0.00000  -0.02023  -0.01999   2.12121
   A18        1.93258   0.01486   0.00000   0.03746   0.03765   1.97023
   A19        2.01844  -0.00004   0.00000   0.00449   0.00408   2.02253
   A20        2.20771  -0.00225   0.00000  -0.00502  -0.00555   2.20216
   A21        2.03805   0.00368   0.00000   0.00948   0.00974   2.04779
   A22        2.03631  -0.00147   0.00000  -0.00480  -0.00457   2.03174
   A23        2.07745  -0.00903   0.00000  -0.01944  -0.01941   2.05804
   A24        2.25573  -0.01058   0.00000  -0.02944  -0.03087   2.22486
   A25        1.93772   0.01908   0.00000   0.04523   0.04634   1.98406
   A26        2.06897  -0.00394   0.00000  -0.01797  -0.01975   2.04922
   A27        2.16671  -0.00796   0.00000  -0.02059  -0.02017   2.14654
   A28        2.04119   0.01072   0.00000   0.03283   0.03286   2.07405
   A29        2.32910   0.02862   0.00000   0.06675   0.06800   2.39710
   A30        1.89371  -0.00930   0.00000  -0.01981  -0.02042   1.87330
   A31        2.05919  -0.01923   0.00000  -0.04682  -0.04747   2.01171
   A32        1.80498  -0.00120   0.00000  -0.00657  -0.00784   1.79714
   A33        2.15530   0.01015   0.00000   0.02981   0.03044   2.18574
   A34        2.32280  -0.00892   0.00000  -0.02319  -0.02255   2.30025
   A35        2.17345  -0.00704   0.00000  -0.02338  -0.02284   2.15061
   A36        1.96652   0.00056   0.00000   0.00781   0.00700   1.97352
   A37        1.95340   0.01234   0.00000   0.04675   0.04596   1.99937
   A38        1.95098   0.01305   0.00000   0.02777   0.02488   1.97586
   A39        2.11242  -0.01121   0.00000  -0.03661  -0.03982   2.07260
   A40        1.92057   0.01882   0.00000   0.03984   0.03852   1.95910
    D1        2.80874   0.02754   0.00000   0.15782   0.15756   2.96631
    D2        0.02167   0.00435   0.00000   0.02788   0.02804   0.04971
    D3       -0.23740   0.00424   0.00000   0.02210   0.02193  -0.21547
    D4       -3.02448  -0.01895   0.00000  -0.10785  -0.10759  -3.13207
    D5        3.06004  -0.03130   0.00000  -0.18310  -0.18489   2.87515
    D6       -0.83377  -0.01170   0.00000  -0.06745  -0.06659  -0.90036
    D7       -0.44078  -0.00903   0.00000  -0.05493  -0.05579  -0.49657
    D8        1.94859   0.01057   0.00000   0.06072   0.06251   2.01110
    D9       -2.03598   0.01216   0.00000   0.03632   0.03428  -2.00170
   D10        0.70412   0.01693   0.00000   0.05773   0.05533   0.75945
   D11        1.97738  -0.03443   0.00000  -0.15973  -0.15755   1.81983
   D12       -1.56571  -0.02966   0.00000  -0.13831  -0.13650  -1.70221
   D13        0.03636  -0.01367   0.00000  -0.12113  -0.12518  -0.08881
   D14        2.44339  -0.00209   0.00000  -0.01796  -0.01743   2.42596
   D15        2.99737  -0.00363   0.00000  -0.03739  -0.03875   2.95862
   D16       -0.06335  -0.00160   0.00000  -0.02125  -0.02260  -0.08595
   D17        0.20247  -0.00880   0.00000  -0.05723  -0.05759   0.14489
   D18       -2.85825  -0.00678   0.00000  -0.04110  -0.04143  -2.89968
   D19       -2.87434   0.01543   0.00000   0.05540   0.05451  -2.81983
   D20        0.45138   0.01744   0.00000   0.07782   0.07629   0.52767
   D21       -0.08150   0.00733   0.00000   0.04924   0.04974  -0.03177
   D22       -3.03898   0.00934   0.00000   0.07166   0.07153  -2.96745
   D23       -0.17751   0.00666   0.00000   0.03447   0.03379  -0.14372
   D24        3.07456   0.00515   0.00000   0.02952   0.02954   3.10410
   D25        2.88897   0.00388   0.00000   0.01701   0.01578   2.90475
   D26       -0.14214   0.00238   0.00000   0.01206   0.01153  -0.13062
   D27       -0.00930   0.00152   0.00000   0.00996   0.00999   0.00069
   D28        3.03290   0.00193   0.00000   0.01170   0.01113   3.04403
   D29        0.14329  -0.00419   0.00000  -0.01884  -0.01827   0.12502
   D30       -3.05096  -0.00523   0.00000  -0.02702  -0.02664  -3.07760
   D31       -0.08951  -0.00241   0.00000  -0.01777  -0.01732  -0.10684
   D32        2.89959  -0.00653   0.00000  -0.04264  -0.04295   2.85664
   D33        3.10469  -0.00150   0.00000  -0.00997  -0.00940   3.09529
   D34       -0.18940  -0.00562   0.00000  -0.03484  -0.03503  -0.22442
   D35        0.10783   0.01084   0.00000   0.04028   0.03999   0.14782
   D36        3.12502  -0.00004   0.00000  -0.01364  -0.01292   3.11210
   D37       -2.86141   0.01487   0.00000   0.06614   0.06621  -2.79520
   D38        0.15578   0.00399   0.00000   0.01222   0.01330   0.16908
   D39       -2.51918  -0.01258   0.00000  -0.06995  -0.06957  -2.58875
   D40        0.56737  -0.01125   0.00000  -0.06952  -0.06932   0.49805
   D41        0.73788  -0.00123   0.00000  -0.01638  -0.01533   0.72254
   D42       -2.45876   0.00010   0.00000  -0.01596  -0.01508  -2.47384
   D43        2.92559   0.00350   0.00000  -0.00232  -0.00211   2.92349
   D44       -0.20302   0.00136   0.00000  -0.00574  -0.00547  -0.20850
   D45       -0.15688   0.00166   0.00000  -0.00385  -0.00338  -0.16027
   D46        2.99769  -0.00048   0.00000  -0.00728  -0.00675   2.99094
   D47       -1.58282  -0.01381   0.00000  -0.07339  -0.07240  -1.65522
   D48        0.88035   0.00039   0.00000  -0.00540  -0.00519   0.87516
   D49        1.54395  -0.01115   0.00000  -0.06887  -0.06811   1.47585
   D50       -2.27606   0.00305   0.00000  -0.00087  -0.00090  -2.27696
   D51        2.08987   0.01977   0.00000   0.09188   0.09149   2.18136
   D52       -0.37762   0.00947   0.00000   0.03690   0.03666  -0.34095
   D53       -0.80311   0.00095   0.00000   0.03433   0.03493  -0.76817
   D54       -0.96698  -0.00502   0.00000  -0.00076  -0.00149  -0.96848
         Item               Value     Threshold  Converged?
 Maximum Force            0.060578     0.000450     NO 
 RMS     Force            0.015701     0.000300     NO 
 Maximum Displacement     0.851534     0.001800     NO 
 RMS     Displacement     0.222309     0.001200     NO 
 Predicted change in Energy=-6.723935D-02
 GradGradGradGradGradGradGradGradGradGradGradGradGradGradGradGradGradGrad

                          Input orientation:                          
 ---------------------------------------------------------------------
 Center     Atomic      Atomic             Coordinates (Angstroms)
 Number     Number       Type             X           Y           Z
 ---------------------------------------------------------------------
      1          8           0        1.949562    1.946646   -1.697886
      2          6           0        2.721342    1.175769   -1.156580
      3          7           0        3.257203    1.365084    0.108136
      4          6           0        3.982358    0.412009    0.832148
      5          6           0        4.754090    0.825060    1.966627
      6          6           0        6.226874    0.704801    1.931514
      7          6           0        7.032153    1.263028    2.876001
      8          7           0        6.618833    2.122965    3.865817
      9          6           0        5.357957    2.406188    3.876804
     10          6           0        4.314300    1.783034    3.029794
     11          6           0        3.039322    2.002350    3.477727
     12          6           0        2.020456    1.119462    3.015412
     13          6           0        0.710078    1.184592    2.739021
     14          6           0        0.456421   -0.098740    2.007524
     15          7           0        0.470032   -0.193622    0.720414
     16          8           0        1.395991   -1.221340    0.225364
     17         16           0        2.988865   -1.327734    0.932827
     18          1           0        3.093142    0.268765   -1.654109
     19          1           0        2.929419    2.189560    0.601643
     20          1           0        6.724897    0.234328    1.089203
     21          1           0        8.114944    1.133745    2.851282
     22          1           0        5.012608    3.137635    4.617491
     23          1           0        2.805491    2.698650    4.274286
     24          1           0        2.488005    0.169276    2.808651
     25          1           0        0.058093    2.002961    3.002923
     26          1           0        0.847114   -0.976272    2.532525
 ---------------------------------------------------------------------
                    Distance matrix (angstroms):
                    1          2          3          4          5
     1  O    0.000000
     2  C    1.217746   0.000000
     3  N    2.304312   1.386540   0.000000
     4  C    3.590047   2.475586   1.399426   0.000000
     5  C    4.748893   3.742924   2.446689   1.432908   0.000000
     6  C    5.745443   4.695411   3.546777   2.516384   1.478102
     7  C    6.871717   5.903593   4.682065   3.768663   2.491655
     8  N    7.265533   6.427448   5.098540   4.368241   2.961207
     9  C    6.550229   5.813830   4.438460   3.890882   2.552136
    10  C    5.288639   4.520177   3.134999   2.611425   1.497148
    11  C    5.289390   4.718172   3.436238   3.227630   2.570966
    12  C    4.785857   4.230830   3.168932   3.019303   2.942683
    13  C    4.669388   4.384172   3.666331   3.865342   4.132783
    14  C    4.488111   4.094606   3.687118   3.751614   4.396026
    15  N    3.552173   3.235234   3.251580   3.565908   4.576452
    16  O    3.747194   3.067973   3.188643   3.118542   4.300765
    17  S    4.326934   3.271806   2.829026   2.005958   2.969729
    18  H    2.031003   1.099285   2.081907   2.644370   4.022181
    19  H    2.511366   2.040199   1.015260   2.078822   2.656024
    20  H    5.788239   4.685969   3.777036   2.760285   2.236720
    21  H    7.705041   6.719796   5.583548   4.655757   3.489017
    22  H    7.119317   6.514499   5.153413   4.776953   3.527310
    23  H    6.079882   5.640971   4.397642   4.296750   3.554247
    24  H    4.874201   4.097625   3.051951   2.489694   2.504836
    25  H    5.067389   5.007854   4.361306   4.758492   4.951136
    26  H    5.258823   4.664066   4.143446   3.827318   4.339298
                    6          7          8          9         10
     6  C    0.000000
     7  C    1.360935   0.000000
     8  N    2.430298   1.374796   0.000000
     9  C    2.726515   2.260831   1.292341   0.000000
    10  C    2.454942   2.771423   2.474947   1.481543   0.000000
    11  C    3.772916   4.105042   3.602507   2.387135   1.369055
    12  C    4.363569   5.015691   4.782811   3.679209   2.387939
    13  C    5.596187   6.324045   6.087988   4.938586   3.665119
    14  C    5.826627   6.771183   6.809152   5.813255   4.412407
    15  N    5.951064   7.059023   7.284771   6.372882   4.900897
    16  O    5.473427   6.705541   7.191339   6.495318   5.040596
    17  S    3.951364   5.180362   5.804001   5.312418   3.978809
    18  H    4.781955   6.084920   6.807212   6.347359   5.071802
    19  H    3.853086   4.781589   4.926565   4.083063   2.824725
    20  H    1.085753   2.084532   3.359730   3.788960   3.460543
    21  H    2.143542   1.090762   2.060628   3.204963   3.859837
    22  H    3.821988   3.259678   2.043166   1.096766   2.200764
    23  H    4.601073   4.677701   3.878123   2.599732   2.159542
    24  H    3.877538   4.674410   4.690228   3.792276   2.447135
    25  H    6.394293   7.014351   6.618330   5.386540   4.261969
    26  H    5.668249   6.586892   6.685483   5.796191   4.458971
                   11         12         13         14         15
    11  C    0.000000
    12  C    1.425242   0.000000
    13  C    2.576780   1.340792   0.000000
    14  C    3.639705   2.223974   1.498790   0.000000
    15  N    4.361917   3.065129   2.455986   1.290674   0.000000
    16  O    4.865242   3.695088   3.546471   2.306321   1.469244
    17  S    4.191483   3.356151   3.842785   3.013084   2.770532
    18  H    5.417006   4.866083   5.081075   4.527131   3.568315
    19  H    2.884266   2.792419   3.240959   3.650827   3.426696
    20  H    4.734386   5.159991   6.308958   6.344135   6.280325
    21  H    5.187374   6.096715   7.405892   7.802815   8.046563
    22  H    2.545936   3.948753   5.084761   6.168054   6.849779
    23  H    1.083521   2.166767   3.006687   4.299038   5.142919
    24  H    2.027751   1.078984   2.048595   2.200221   2.926541
    25  H    3.018802   2.152113   1.079099   2.359371   3.194451
    26  H    3.817247   2.449900   2.175029   1.094682   2.009596
                   16         17         18         19         20
    16  O    0.000000
    17  S    1.746159   0.000000
    18  H    2.938223   3.041697   0.000000
    19  H    3.758620   3.533351   2.967267   0.000000
    20  H    5.591281   4.052460   4.551548   4.297243   0.000000
    21  H    7.588557   6.001336   6.801855   5.750243   2.417871
    22  H    7.167381   6.132846   7.158751   4.622289   4.879543
    23  H    5.809198   5.235528   6.413498   3.709830   5.619553
    24  H    3.130444   2.451656   4.504699   3.024447   4.572963
    25  H    4.461045   4.895738   5.822964   3.747729   7.157979
    26  H    2.384181   2.696231   4.911483   4.252857   6.172282
                   21         22         23         24         25
    21  H    0.000000
    22  H    4.093844   0.000000
    23  H    5.715257   2.276370   0.000000
    24  H    5.709156   4.296123   2.940513   0.000000
    25  H    8.105022   5.333060   3.106210   3.050347   0.000000
    26  H    7.574638   6.214712   4.513759   2.020160   3.117636
                   26
    26  H    0.000000
 Stoichiometry    C11H9N3O2S
 Framework group  C1[X(C11H9N3O2S)]
 Deg. of freedom    72
 Full point group                 C1      NOp   1
 Largest Abelian subgroup         C1      NOp   1
 Largest concise Abelian subgroup C1      NOp   1
                         Standard orientation:                         
 ---------------------------------------------------------------------
 Center     Atomic      Atomic             Coordinates (Angstroms)
 Number     Number       Type             X           Y           Z
 ---------------------------------------------------------------------
      1          8           0        2.416556   -1.681501    2.330696
      2          6           0        1.750126   -1.809108    1.319511
      3          7           0        0.612464   -1.069608    1.034282
      4          6           0       -0.055672   -1.052005   -0.195222
      5          6           0       -1.383107   -0.517531   -0.269250
      6          6           0       -2.511859   -1.409003   -0.609811
      7          6           0       -3.812202   -1.023885   -0.496070
      8          7           0       -4.247780    0.143535    0.084849
      9          6           0       -3.325838    0.919566    0.551692
     10          6           0       -1.864621    0.739376    0.386326
     11          6           0       -1.136812    1.864928    0.665144
     12          6           0        0.184790    1.939337    0.136801
     13          6           0        1.359848    2.478547    0.492069
     14          6           0        2.325652    1.835152   -0.456422
     15          7           0        3.005084    0.777347   -0.164426
     16          8           0        2.824945   -0.312295   -1.133400
     17         16           0        1.213733   -0.673230   -1.701545
     18          1           0        1.980073   -2.564147    0.554353
     19          1           0        0.374048   -0.355935    1.715885
     20          1           0       -2.337285   -2.445503   -0.881938
     21          1           0       -4.630335   -1.684800   -0.785227
     22          1           0       -3.649269    1.827571    1.074966
     23          1           0       -1.567977    2.748437    1.120694
     24          1           0        0.201302    1.356507   -0.771077
     25          1           0        1.501736    3.192488    1.288695
     26          1           0        2.005777    1.896269   -1.501541
 ---------------------------------------------------------------------
 Rotational constants (GHZ):           0.7104837           0.3227053           0.2918426
 Standard basis: 6-31G(2df,p) (6D, 7F)
 There are   576 symmetry adapted cartesian basis functions of A   symmetry.
 There are   525 symmetry adapted basis functions of A   symmetry.
   525 basis functions,   835 primitive gaussians,   576 cartesian basis functions
    64 alpha electrons       64 beta electrons
       nuclear repulsion energy      1284.5723593129 Hartrees.
 NAtoms=   26 NActive=   26 NUniq=   26 SFac= 1.00D+00 NAtFMM=   60 NAOKFM=F Big=F
 Integral buffers will be    131072 words long.
 Raffenetti 2 integral format.
 Two-electron integral symmetry is turned on.
 One-electron integrals computed using PRISM.
 PrsmSu:  requested number of processors reduced to:  12 ShMem   1 Linda.
 NBasis=   525 RedAO= T EigKep=  1.60D-04  NBF=   525
 NBsUse=   525 1.00D-06 EigRej= -1.00D+00 NBFU=   525
 Initial guess from the checkpoint file:  "OdCNC1dc2ccncc2dCCdCCdNOS1.chk"
 B after Tr=     0.000000    0.000000    0.000000
         Rot=    0.995589   -0.092922    0.012889    0.001474 Ang= -10.77 deg.
 ExpMin= 1.17D-01 ExpMax= 2.19D+04 ExpMxC= 3.30D+03 IAcc=2 IRadAn=         4 AccDes= 0.00D+00
 Harris functional with IExCor=  402 and IRadAn=       4 diagonalized for initial guess.
 HarFok:  IExCor=  402 AccDes= 0.00D+00 IRadAn=         4 IDoV= 1 UseB2=F ITyADJ=14
 ICtDFT=  3500011 ScaDFX=  1.000000  1.000000  1.000000  1.000000
 FoFCou: FMM=F IPFlag=           0 FMFlag=      100000 FMFlg1=           0
         NFxFlg=           0 DoJE=T BraDBF=F KetDBF=T FulRan=T
         wScrn=  0.000000 ICntrl=       500 IOpCl=  0 I1Cent=   200000004 NGrid=           0
         NMat0=    1 NMatS0=      1 NMatT0=    0 NMatD0=    1 NMtDS0=    0 NMtDT0=    0
 Petite list used in FoFCou.
 Requested convergence on RMS density matrix=1.00D-08 within 128 cycles.
 Requested convergence on MAX density matrix=1.00D-06.
 Requested convergence on             energy=1.00D-06.
 No special actions if energy rises.
 Integral accuracy reduced to 1.0D-05 until final iterations.
 Initial convergence to 1.0D-05 achieved.  Increase integral accuracy.
 SCF Done:  E(RB3LYP) =  -1137.20540629     A.U. after   20 cycles
            NFock= 20  Conv=0.68D-08     -V/T= 2.0061
 PrsmSu:  requested number of processors reduced to:  13 ShMem   1 Linda.
 Calling FoFJK, ICntrl=      2127 FMM=F ISym2X=0 I1Cent= 0 IOpClX= 0 NMat=1 NMatS=1 NMatT=0.
 ***** Axes restored to original set *****
 -------------------------------------------------------------------
 Center     Atomic                   Forces (Hartrees/Bohr)
 Number     Number              X              Y              Z
 -------------------------------------------------------------------
      1        8           0.016352243   -0.008109189    0.013854601
      2        6          -0.018014055    0.006705480   -0.015654442
      3        7          -0.006890143   -0.012788186    0.016479316
      4        6          -0.043684249   -0.000519668   -0.004221219
      5        6           0.044548216    0.029594484    0.015511858
      6        6          -0.034750591   -0.020382154    0.000404070
      7        6           0.011635287    0.010226212    0.010093606
      8        7           0.000564853   -0.004400783   -0.004902320
      9        6          -0.013810845   -0.004747119   -0.009529755
     10        6           0.036739055    0.004319092    0.004089251
     11        6          -0.025155407   -0.006695662    0.000000236
     12        6           0.003955161    0.007870010    0.005448504
     13        6          -0.011822382   -0.004635588    0.008835972
     14        6           0.013147781   -0.015814477   -0.013880873
     15        7           0.007263597    0.024212704    0.004591954
     16        8           0.019131599   -0.004533357    0.006962811
     17       16           0.001003525    0.005223395   -0.015268108
     18        1           0.001827776   -0.002254575    0.002829819
     19        1           0.003500543    0.004724397   -0.003930720
     20        1          -0.005899636   -0.007214952    0.000929043
     21        1          -0.003544126   -0.000581389   -0.005274212
[...]
   A30        1.93240   0.00003   0.00243   0.00010   0.00254   1.93495
   A31        2.02665   0.00006   0.00268   0.00024   0.00294   2.02959
   A32        1.93626   0.00002   0.00573   0.00015   0.00595   1.94221
   A33        2.14922  -0.00005  -0.00233  -0.00011  -0.00247   2.14676
   A34        2.05936   0.00005  -0.00380   0.00028  -0.00355   2.05581
   A35        2.04095  -0.00000  -0.00189  -0.00001  -0.00191   2.03904
   A36        2.05697   0.00001   0.00112   0.00002   0.00115   2.05812
   A37        2.09293  -0.00002   0.00082  -0.00006   0.00076   2.09370
   A38        1.87024   0.00011   0.00050   0.00016   0.00065   1.87090
   A39        1.84097   0.00003   0.00011  -0.00001   0.00012   1.84110
   A40        1.79318   0.00008  -0.00017   0.00016  -0.00001   1.79317
    D1        3.10066  -0.00007  -0.00388   0.00045  -0.00343   3.09723
    D2       -0.01494  -0.00008   0.00201  -0.00042   0.00158  -0.01335
    D3       -0.05460   0.00007  -0.00470   0.00122  -0.00348  -0.05808
    D4        3.11300   0.00006   0.00119   0.00034   0.00153   3.11453
    D5       -3.03157   0.00000   0.00767  -0.00011   0.00756  -3.02401
    D6        0.13246  -0.00001   0.00798   0.00019   0.00817   0.14062
    D7        0.08325   0.00002   0.00160   0.00080   0.00240   0.08565
    D8       -3.03591   0.00001   0.00191   0.00110   0.00301  -3.03290
    D9       -2.67113   0.00006   0.00131   0.00051   0.00179  -2.66934
   D10        0.29885   0.00007   0.00274   0.00056   0.00328   0.30213
   D11        0.44621   0.00007   0.00098   0.00019   0.00115   0.44736
   D12       -2.86699   0.00008   0.00240   0.00024   0.00264  -2.86435
   D13       -1.54083  -0.00003  -0.00432  -0.00027  -0.00463  -1.54546
   D14        1.62446  -0.00004  -0.00401   0.00005  -0.00401   1.62045
   D15        2.60475  -0.00002  -0.00006   0.00017   0.00013   2.60488
   D16       -0.39724  -0.00001   0.00084   0.00000   0.00086  -0.39638
   D17       -0.38131  -0.00001  -0.00162   0.00013  -0.00148  -0.38279
   D18        2.89988  -0.00001  -0.00072  -0.00003  -0.00075   2.89913
   D19       -2.38915  -0.00000   0.00054  -0.00023   0.00028  -2.38886
   D20        1.06388   0.00002   0.00620  -0.00032   0.00587   1.06975
   D21        0.59700   0.00002   0.00174  -0.00018   0.00155   0.59855
   D22       -2.23316   0.00004   0.00740  -0.00027   0.00713  -2.22603
   D23       -0.02315  -0.00000   0.00033  -0.00002   0.00030  -0.02285
   D24       -3.07546   0.00000   0.00070  -0.00009   0.00060  -3.07485
   D25        2.97693  -0.00001  -0.00062   0.00015  -0.00047   2.97646
   D26       -0.07537  -0.00000  -0.00025   0.00008  -0.00017  -0.07554
   D27        0.20732   0.00000   0.00053  -0.00004   0.00048   0.20780
   D28       -3.01855  -0.00001   0.00019   0.00001   0.00020  -3.01835
   D29        0.05907  -0.00000   0.00007  -0.00003   0.00004   0.05912
   D30        3.10818  -0.00001   0.00001  -0.00013  -0.00011   3.10807
   D31       -0.46419  -0.00001  -0.00137   0.00013  -0.00123  -0.46542
   D32        2.38270  -0.00000  -0.00554   0.00028  -0.00523   2.37746
   D33        2.77021   0.00000  -0.00134   0.00023  -0.00112   2.76909
   D34       -0.66609   0.00001  -0.00551   0.00038  -0.00512  -0.67120
   D35        0.17378   0.00008  -0.00475   0.00054  -0.00426   0.16952
   D36        3.02338   0.00004  -0.01116   0.00061  -0.01057   3.01281
   D37       -2.64212   0.00008   0.00064   0.00040   0.00100  -2.64112
   D38        0.20748   0.00005  -0.00576   0.00048  -0.00531   0.20217
   D39       -1.44539  -0.00002   0.02312   0.00014   0.02323  -1.42216
   D40        1.27139  -0.00003   0.02437  -0.00009   0.02428   1.29566
   D41        1.99731   0.00003   0.02976   0.00012   0.02984   2.02716
   D42       -1.56909   0.00002   0.03101  -0.00011   0.03089  -1.53821
   D43        2.16465   0.00000  -0.00732  -0.00003  -0.00733   2.15732
   D44       -0.42219  -0.00005  -0.00566  -0.00070  -0.00637  -0.42856
   D45       -0.53318   0.00003  -0.00845   0.00025  -0.00820  -0.54138
   D46       -3.12002  -0.00003  -0.00679  -0.00043  -0.00723  -3.12726
   D47       -2.26534   0.00000  -0.01252  -0.00038  -0.01292  -2.27827
   D48        0.42822  -0.00003  -0.01220  -0.00051  -0.01272   0.41550
   D49        0.35325   0.00002  -0.01377   0.00012  -0.01366   0.33959
   D50        3.04681  -0.00001  -0.01345  -0.00001  -0.01345   3.03336
   D51        2.44720  -0.00007  -0.00215  -0.00015  -0.00228   2.44492
   D52       -0.23670  -0.00005  -0.00254  -0.00004  -0.00258  -0.23928
   D53       -1.88504   0.00004   0.00048   0.00022   0.00070  -1.88434
   D54        0.65628  -0.00008  -0.00161  -0.00028  -0.00195   0.65434
         Item               Value     Threshold  Converged?
 Maximum Force            0.000232     0.000450     YES
 RMS     Force            0.000064     0.000300     YES
 Maximum Displacement     0.044284     0.001800     NO 
 RMS     Displacement     0.008576     0.001200     NO 
 Predicted change in Energy=-1.139566D-06
 GradGradGradGradGradGradGradGradGradGradGradGradGradGradGradGradGradGrad

                          Input orientation:                          
 ---------------------------------------------------------------------
 Center     Atomic      Atomic             Coordinates (Angstroms)
 Number     Number       Type             X           Y           Z
 ---------------------------------------------------------------------
      1          8           0        1.557867    2.754734   -1.171811
      2          6           0        2.137545    1.733720   -0.877410
      3          7           0        3.011547    1.698151    0.196522
      4          6           0        3.746757    0.658765    0.753115
      5          6           0        4.442974    0.879485    1.924985
      6          6           0        5.630883    0.144158    2.290267
      7          6           0        6.579444    0.756193    3.039710
      8          7           0        6.507036    2.080774    3.474346
      9          6           0        5.384401    2.695983    3.349180
     10          6           0        4.173160    2.034530    2.838171
     11          6           0        2.984228    2.254472    3.469199
     12          6           0        1.970756    1.176634    3.410022
     13          6           0        1.107040    0.889789    2.420512
     14          6           0        1.258275   -0.488897    1.968913
     15          7           0        1.363508   -0.676214    0.700077
     16          8           0        2.361644   -1.709345    0.500534
     17         16           0        3.749826   -0.893827   -0.142856
     18          1           0        2.046180    0.783261   -1.412050
     19          1           0        3.094195    2.598315    0.655933
     20          1           0        5.809350   -0.832840    1.856023
     21          1           0        7.509729    0.253001    3.278984
     22          1           0        5.309115    3.720735    3.714974
     23          1           0        2.925250    3.053016    4.206770
     24          1           0        2.244186    0.348421    4.069282
     25          1           0        0.772701    1.624514    1.697428
     26          1           0        1.691953   -1.209326    2.663740
 ---------------------------------------------------------------------
                    Distance matrix (angstroms):
                    1          2          3          4          5
     1  O    0.000000
     2  C    1.210440   0.000000
     3  N    2.258736   1.385091   0.000000
     4  C    3.590218   2.530555   1.389479   0.000000
     5  C    4.629313   3.728021   2.388887   1.380838   0.000000
     6  C    5.948996   4.976375   3.695887   2.485475   1.444045
     7  C    6.851810   6.002487   4.658421   3.641719   2.412948
     8  N    6.821676   6.176624   4.807179   4.128722   2.846747
     9  C    5.923274   5.415912   4.070056   3.683977   2.492847
    10  C    4.841322   4.247324   2.905306   2.534168   1.496943
    11  C    4.880957   4.458819   3.319737   3.241117   2.530440
    12  C    4.863545   4.326690   3.417866   3.237518   2.899223
    13  C    4.072597   3.556748   3.037553   3.130765   3.372552
    14  C    4.524936   3.716814   3.316401   2.997972   3.466512
    15  N    3.913201   2.982513   2.933805   2.732189   3.661107
    16  O    4.834334   3.715326   3.482215   2.755046   3.614281
    17  S    4.378976   3.169074   2.716354   1.792572   2.810881
    18  H    2.045206   1.094331   2.087214   2.755976   4.109705
    19  H    2.392785   2.003458   1.013994   2.048691   2.526673
    20  H    6.333527   5.247956   4.121596   2.774090   2.191756
    21  H    7.841741   6.951871   5.641247   4.550233   3.410394
    22  H    6.235839   5.924279   4.663600   4.537536   3.467992
    23  H    5.557683   5.311300   4.233815   4.281943   3.497752
    24  H    5.807790   5.138111   4.172395   3.653901   3.116842
    25  H    3.182202   2.916250   2.696400   3.266405   3.752033
    26  H    5.517536   4.625994   4.035085   3.370826   3.532280
                    6          7          8          9         10
     6  C    0.000000
     7  C    1.354998   0.000000
     8  N    2.433139   1.395946   0.000000
     9  C    2.773781   2.299278   1.286257   0.000000
    10  C    2.449217   2.732208   2.419470   1.471651   0.000000
    11  C    3.584423   3.918530   3.527091   2.443393   1.363866
    12  C    3.964390   4.642618   4.625953   3.736991   2.431786
    13  C    4.586729   5.508943   5.629295   4.735038   3.299388
    14  C    4.429868   5.568814   6.034818   5.391986   3.952196
    15  N    4.627332   5.893357   6.461689   5.878524   4.451261
    16  O    4.162516   5.506008   6.355535   6.054648   4.771031
    17  S    3.245901   4.567058   5.434574   5.268101   4.200120
    18  H    5.192851   6.353690   6.742376   6.121400   4.914682
    19  H    3.889566   4.606817   4.456319   3.536689   2.498836
    20  H    1.083947   2.125837   3.405125   3.855215   3.444349
    21  H    2.125905   1.084383   2.093876   3.238844   3.807999
    22  H    3.863318   3.295181   2.045089   1.090683   2.214151
    23  H    4.410769   4.471080   3.782974   2.628756   2.113683
    24  H    3.830970   4.474456   4.639707   3.986294   2.842453
    25  H    5.113203   6.022786   6.020648   5.014390   3.610059
    26  H    4.181694   5.281305   5.887857   5.418066   4.087716
                   11         12         13         14         15
    11  C    0.000000
    12  C    1.480663   0.000000
    13  C    2.546751   1.344401   0.000000
    14  C    3.571533   2.314826   1.458626   0.000000
    15  N    4.345537   3.338502   2.340521   1.286898   0.000000
    16  O    4.991235   4.116648   3.466388   2.205234   1.450328
    17  S    4.852305   4.480496   4.091022   3.291104   2.540159
    18  H    5.183724   4.838679   3.947387   3.697309   2.656537
    19  H    2.836333   3.296711   3.159365   3.824317   3.704020
    20  H    4.484991   4.603010   5.039624   4.565449   4.596330
    21  H    4.951993   5.616983   6.491295   6.430193   6.729802
    22  H    2.759607   4.208336   5.229467   6.097462   6.632539
    23  H    1.088651   2.250927   3.343075   4.509097   5.351923
    24  H    2.130913   1.093308   2.074758   2.466713   3.630015
    25  H    2.902907   2.137501   1.083723   2.185405   2.576259
    26  H    3.783734   2.515447   2.192617   1.090816   2.061081
                   16         17         18         19         20
    16  O    0.000000
    17  S    1.733802   0.000000
    18  H    3.157622   2.706638   0.000000
    19  H    4.372266   3.641836   2.944369   0.000000
    20  H    3.806873   2.870692   5.239611   4.537081   0.000000
    21  H    6.170362   5.211628   7.220619   5.646046   2.468837
    22  H    6.964623   6.213566   6.749954   3.939978   4.943781
    23  H    6.060851   5.930998   6.123372   3.583816   5.379955
    24  H    4.121184   4.642438   5.502117   4.175582   4.359390
    25  H    3.882256   4.311839   3.463857   2.724396   5.606386
    26  H    2.319044   3.494475   4.550598   4.527218   4.212731
                   21         22         23         24         25
    21  H    0.000000
    22  H    4.130130   0.000000
    23  H    5.451452   2.523990   0.000000
    24  H    5.325375   4.570757   2.792415   0.000000
    25  H    7.054780   5.389219   3.601510   3.069099   0.000000
    26  H    6.030211   6.204390   4.697821   2.169582   3.132002
                   26
    26  H    0.000000
 Stoichiometry    C11H9N3O2S
 Framework group  C1[X(C11H9N3O2S)]
 Deg. of freedom    72
 Full point group                 C1      NOp   1
 Largest Abelian subgroup         C1      NOp   1
 Largest concise Abelian subgroup C1      NOp   1
                         Standard orientation:                         
 ---------------------------------------------------------------------
 Center     Atomic      Atomic             Coordinates (Angstroms)
 Number     Number       Type             X           Y           Z
 ---------------------------------------------------------------------
      1          8           0        2.427734    1.841606    2.244192
      2          6           0        2.126731    0.796700    1.712465
      3          7           0        0.832792    0.570928    1.272892
      4          6           0        0.260317   -0.504389    0.604597
      5          6           0       -1.043075   -0.403406    0.159978
      6          6           0       -1.910080   -1.544798   -0.015494
      7          6           0       -3.244191   -1.392026    0.165686
      8          7           0       -3.856349   -0.195321    0.542282
      9          6           0       -3.152050    0.880310    0.504336
     10          6           0       -1.764722    0.899926    0.013731
     11          6           0       -1.372429    1.906967   -0.818197
     12          6           0       -0.289010    1.611696   -1.783278
     13          6           0        1.039426    1.601687   -1.576945
     14          6           0        1.621562    0.313940   -1.938076
     15          7           0        2.400155   -0.234655   -1.072661
     16          8           0        2.113016   -1.656266   -1.077950
     17         16           0        1.280037   -1.965869    0.410795
     18          1           0        2.809272   -0.042164    1.545117
     19          1           0        0.218716    1.354884    1.463962
     20          1           0       -1.476867   -2.528040   -0.158691
     21          1           0       -3.915126   -2.241543    0.102015
     22          1           0       -3.630395    1.824877    0.766191
     23          1           0       -2.029918    2.765502   -0.943846
     24          1           0       -0.656505    0.987638   -2.602315
     25          1           0        1.518449    2.169195   -0.787688
     26          1           0        1.084722   -0.305473   -2.657804
 ---------------------------------------------------------------------
 Rotational constants (GHZ):           0.6475231           0.3718941           0.3427166
 Standard basis: 6-31G(2df,p) (6D, 7F)
 There are   576 symmetry adapted cartesian basis functions of A   symmetry.
 There are   525 symmetry adapted basis functions of A   symmetry.
   525 basis functions,   835 primitive gaussians,   576 cartesian basis functions
    64 alpha electrons       64 beta electrons
       nuclear repulsion energy      1319.4752010471 Hartrees.
 NAtoms=   26 NActive=   26 NUniq=   26 SFac= 1.00D+00 NAtFMM=   60 NAOKFM=F Big=F
 Integral buffers will be    131072 words long.
 Raffenetti 2 integral format.
 Two-electron integral symmetry is turned on.
 One-electron integrals computed using PRISM.
 PrsmSu:  requested number of processors reduced to:  12 ShMem   1 Linda.
 NBasis=   525 RedAO= T EigKep=  1.97D-04  NBF=   525
 NBsUse=   525 1.00D-06 EigRej= -1.00D+00 NBFU=   525
 Initial guess from the checkpoint file:  "OdCNC1dc2ccncc2dCCdCCdNOS1.chk"
 B after Tr=     0.000000   -0.000000    0.000000
         Rot=    0.999998   -0.001549   -0.001235   -0.000689 Ang=  -0.24 deg.
 ExpMin= 1.17D-01 ExpMax= 2.19D+04 ExpMxC= 3.30D+03 IAcc=2 IRadAn=         4 AccDes= 0.00D+00
 Harris functional with IExCor=  402 and IRadAn=       4 diagonalized for initial guess.
 HarFok:  IExCor=  402 AccDes= 0.00D+00 IRadAn=         4 IDoV= 1 UseB2=F ITyADJ=14
 ICtDFT=  3500011 ScaDFX=  1.000000  1.000000  1.000000  1.000000
 FoFCou: FMM=F IPFlag=           0 FMFlag=      100000 FMFlg1=           0
         NFxFlg=           0 DoJE=T BraDBF=F KetDBF=T FulRan=T
         wScrn=  0.000000 ICntrl=       500 IOpCl=  0 I1Cent=   200000004 NGrid=           0
         NMat0=    1 NMatS0=      1 NMatT0=    0 NMatD0=    1 NMtDS0=    0 NMtDT0=    0
 Petite list used in FoFCou.
 Requested convergence on RMS density matrix=1.00D-08 within 128 cycles.
 Requested convergence on MAX density matrix=1.00D-06.
 Requested convergence on             energy=1.00D-06.
 No special actions if energy rises.
 Integral accuracy reduced to 1.0D-05 until final iterations.
 Initial convergence to 1.0D-05 achieved.  Increase integral accuracy.
 SCF Done:  E(RB3LYP) =  -1137.29211864     A.U. after   11 cycles
            NFock= 11  Conv=0.84D-08     -V/T= 2.0058
 PrsmSu:  requested number of processors reduced to:  13 ShMem   1 Linda.
 Calling FoFJK, ICntrl=      2127 FMM=F ISym2X=0 I1Cent= 0 IOpClX= 0 NMat=1 NMatS=1 NMatT=0.
 ***** Axes restored to original set *****
 -------------------------------------------------------------------
 Center     Atomic                   Forces (Hartrees/Bohr)
 Number     Number              X              Y              Z
 -------------------------------------------------------------------
      1        8          -0.000042427   -0.000034571    0.000046660
      2        6           0.000031118    0.000026833   -0.000327611
      3        7           0.000055447    0.000078996    0.000224423
      4        6          -0.000052482    0.000106844   -0.000242376
      5        6           0.000141645    0.000018579    0.000102916
      6        6          -0.000036384   -0.000089540   -0.000062410
      7        6           0.000054849    0.000354150    0.000186882
      8        7           0.000159305   -0.000284317   -0.000070562
      9        6          -0.000243156    0.000035725   -0.000031683
     10        6           0.000251068   -0.000128041   -0.000142988
     11        6          -0.000302199    0.000089005    0.000063723
     12        6           0.000042822   -0.000105515    0.000294457
     13        6           0.000035386   -0.000030181   -0.000313301
     14        6          -0.000103862    0.000118147    0.000030196
     15        7          -0.000086390   -0.000059013    0.000087219
     16        8           0.000047069   -0.000120686   -0.000066200
     17       16           0.000035116   -0.000047227    0.000046956
     18        1          -0.000059246    0.000037438    0.000073295
     19        1           0.000047274   -0.000006714    0.000022615
     20        1           0.000003765    0.000014926    0.000013449
     21        1          -0.000009804   -0.000046836   -0.000028248
     22        1          -0.000000043   -0.000006567    0.000023190
     23        1           0.000037651    0.000052399   -0.000029831
     24        1          -0.000001683    0.000057337   -0.000026451
     25        1          -0.000015371    0.000018779    0.000127295
     26        1           0.000010532   -0.000049949   -0.000001615
 -------------------------------------------------------------------
 Cartesian Forces:  Max     0.000354150 RMS     0.000121254

 GradGradGradGradGradGradGradGradGradGradGradGradGradGradGradGradGradGrad
 Berny optimization.
 Using GEDIIS/GDIIS optimizer.
 FormGI is forming the generalized inverse of G from B-inverse, IUseBI=4.
slurmstepd: error: *** JOB 27447244 ON lewis4-r630-hpc4-node225 CANCELLED AT 2023-05-18T01:43:17 DUE TO TIME LIMIT ***
