### Starting Gaussian ###
 Entering Gaussian System, Link 0=g16
 Initial command:
 /cluster/software/gaussian/gaussian-16-A.03/avx2/g16/l1.exe "/local/scratch/cz9n3/Gau-20640.inp" -scrdir="/local/scratch/cz9n3/"
 Entering Link 1 = /cluster/software/gaussian/gaussian-16-A.03/avx2/g16/l1.exe PID=     20641.
  
 Copyright (c) 1988,1990,1992,1993,1995,1998,2003,2009,2016,
            Gaussian, Inc.  All Rights Reserved.
  
 This is part of the Gaussian(R) 16 program.  It is based on
 the Gaussian(R) 09 system (copyright 2009, Gaussian, Inc.),
 the Gaussian(R) 03 system (copyright 2003, Gaussian, Inc.),
 the Gaussian(R) 98 system (copyright 1998, Gaussian, Inc.),
 the Gaussian(R) 94 system (copyright 1995, Gaussian, Inc.),
 the Gaussian 92(TM) system (copyright 1992, Gaussian, Inc.),
 the Gaussian 90(TM) system (copyright 1990, Gaussian, Inc.),
 the Gaussian 88(TM) system (copyright 1988, Gaussian, Inc.),
 the Gaussian 86(TM) system (copyright 1986, Carnegie Mellon
 University), and the Gaussian 82(TM) system (copyright 1983,
 Carnegie Mellon University). Gaussian is a federally registered
 trademark of Gaussian, Inc.
  
 This software contains proprietary and confidential information,
 including trade secrets, belonging to Gaussian, Inc.
  
 This software is provided under written license and may be
 used, copied, transmitted, or stored only in accord with that
 written license.
  
 The following legend is applicable only to US Government
 contracts under FAR:
  
                    RESTRICTED RIGHTS LEGEND
  
 Use, reproduction and disclosure by the US Government is
 subject to restrictions as set forth in subparagraphs (a)
 and (c) of the Commercial Computer Software - Restricted
 Rights clause in FAR 52.227-19.
  
 Gaussian, Inc.
 340 Quinnipiac St., Bldg. 40, Wallingford CT 06492
  
  
 ---------------------------------------------------------------
 Warning -- This program may not be used in any manner that
 competes with the business of Gaussian, Inc. or will provide
 assistance to any competitor of Gaussian, Inc.  The licensee
 of this program is prohibited from giving any competitor of
 Gaussian, Inc. access to this program.  By using this program,
 the user acknowledges that Gaussian, Inc. is engaged in the
 business of creating and licensing software in the field of
 computational chemistry and represents and warrants to the
 licensee that it is not a competitor of Gaussian, Inc. and that
 it will not use this program in any manner prohibited above.
 ---------------------------------------------------------------
  

 Cite this work as:
 Gaussian 16, Revision A.03,
 M. J. Frisch, G. W. Trucks, H. B. Schlegel, G. E. Scuseria, 
 M. A. Robb, J. R. Cheeseman, G. Scalmani, V. Barone, 
 G. A. Petersson, H. Nakatsuji, X. Li, M. Caricato, A. V. Marenich, 
 J. Bloino, B. G. Janesko, R. Gomperts, B. Mennucci, H. P. Hratchian, 
 J. V. Ortiz, A. F. Izmaylov, J. L. Sonnenberg, D. Williams-Young, 
 F. Ding, F. Lipparini, F. Egidi, J. Goings, B. Peng, A. Petrone, 
 T. Henderson, D. Ranasinghe, V. G. Zakrzewski, J. Gao, N. Rega, 
 G. Zheng, W. Liang, M. Hada, M. Ehara, K. Toyota, R. Fukuda, 
 J. Hasegawa, M. Ishida, T. Nakajima, Y. Honda, O. Kitao, H. Nakai, 
 T. Vreven, K. Throssell, J. A. Montgomery, Jr., J. E. Peralta, 
 F. Ogliaro, M. J. Bearpark, J. J. Heyd, E. N. Brothers, K. N. Kudin, 
 V. N. Staroverov, T. A. Keith, R. Kobayashi, J. Normand, 
 K. Raghavachari, A. P. Rendell, J. C. Burant, S. S. Iyengar, 
 J. Tomasi, M. Cossi, J. M. Millam, M. Klene, C. Adamo, R. Cammi, 
 J. W. Ochterski, R. L. Martin, K. Morokuma, O. Farkas, 
 J. B. Foresman, and D. J. Fox, Gaussian, Inc., Wallingford CT, 2016.
 
 ******************************************
 Gaussian 16:  ES64L-G16RevA.03 25-Dec-2016
                16-May-2023 
 ******************************************
 %chk=OdCqOrC1dNCdCCdCCdCCdCCdCCdC2NdC21.chk
 %NProcShared=20
 Will use up to   20 processors via shared memory.
 -----------------------------
 # opt freq b3lyp/6-31g(2df,p)
 -----------------------------
 1/18=20,19=15,26=3,38=1/1,3;
 2/9=110,12=2,17=6,18=5,40=1/2;
 3/5=1,6=6,7=104,11=2,25=1,30=1,71=1,74=-5/1,2,3;
 4//1;
 5/5=2,38=5/2;
 6/7=2,8=2,9=2,10=2,28=1/1;
 7//1,2,3,16;
 1/18=20,19=15,26=3/3(2);
 2/9=110/2;
 99//99;
 2/9=110/2;
 3/5=1,6=6,7=104,11=2,25=1,30=1,71=1,74=-5/1,2,3;
 4/5=5,16=3,69=1/1;
 5/5=2,38=5/2;
 7//1,2,3,16;
 1/18=20,19=15,26=3/3(-5);
 2/9=110/2;
 6/7=2,8=2,9=2,10=2,19=2,28=1/1;
 99/9=1/99;
 -------------------
 Title Card Required
 -------------------
 Symbolic Z-matrix:
 Charge =  0 Multiplicity = 1
 O                     3.11133  -0.48882  -1.28334 
 C                     4.67284  -0.70746  -1.92275 
 O                     3.81854  -0.11102  -0.1785 
 C                     6.39094  -1.325    -3.72867 
 N                     5.73309  -0.7732   -2.115 
 C                     5.51825  -1.1742   -3.28767 
 C                     6.9267   -0.81846  -2.24736 
 C                     7.93325  -1.33232  -3.75009 
 C                     9.06601  -1.25201  -3.51522 
 C                     9.76461  -1.61266  -4.56989 
 C                     10.93486  -1.54024  -4.35814 
 C                     11.43948  -1.91266  -5.4472 
 C                     12.8475  -2.00355  -5.71303 
 C                     13.40443  -2.51574  -7.21089 
 C                     14.79395  -2.55611  -7.32894 
 C                     12.81959  -2.60765  -7.47971 
 C                     10.89417  -2.31197  -6.61509 
 N                     10.02357  -2.09301  -5.97458 
 C                     8.52984  -1.87041  -5.32384 
 H                     3.98723   0.29359   1.00475 
 H                     4.44702  -1.24497  -3.49463 
 H                     7.20311  -0.50112  -1.31931 
 H                     6.95216  -1.73748  -4.93493 
 H                     9.21074  -0.95959  -2.66007 
 H                     8.94893  -2.21355  -6.32716 
 H                     11.57509  -1.35025  -3.80251 
 H                     10.08064  -2.48641  -7.12505 
 H                     13.56929  -1.78873  -5.08482 
 H                     12.89942  -3.05116  -8.77669 
 H                     15.52437  -2.29746  -6.57255 
 H                     14.22263  -3.00668  -8.64663 
 
 Add virtual bond connecting atoms H20        and O3         Dist= 2.38D+00.
 Add virtual bond connecting atoms H31        and H29        Dist= 2.51D+00.
 Add virtual bond connecting atoms H29        and C16        Dist= 2.59D+00.
 Add virtual bond connecting atoms H31        and C15        Dist= 2.84D+00.
 Add virtual bond connecting atoms H23        and C4         Dist= 2.63D+00.
 Add virtual bond connecting atoms C2         and O1         Dist= 3.22D+00.

 GradGradGradGradGradGradGradGradGradGradGradGradGradGradGradGradGradGrad
 Berny optimization.
 Initialization pass.
                           ----------------------------
                           !    Initial Parameters    !
                           ! (Angstroms and Degrees)  !
 --------------------------                            --------------------------
 ! Name  Definition              Value          Derivative Info.                !
 --------------------------------------------------------------------------------
 ! R1    R(1,2)                  1.7015         estimate D2E/DX2                !
 ! R2    R(1,3)                  1.3651         estimate D2E/DX2                !
 ! R3    R(2,5)                  1.0795         estimate D2E/DX2                !
 ! R4    R(2,6)                  1.672          estimate D2E/DX2                !
 ! R5    R(3,20)                 1.2618         estimate D2E/DX2                !
 ! R6    R(4,6)                  0.9893         estimate D2E/DX2                !
 ! R7    R(4,7)                  1.6547         estimate D2E/DX2                !
 ! R8    R(4,8)                  1.5425         estimate D2E/DX2                !
 ! R9    R(4,23)                 1.3929         estimate D2E/DX2                !
 ! R10   R(5,6)                  1.2578         estimate D2E/DX2                !
 ! R11   R(5,7)                  1.2018         estimate D2E/DX2                !
 ! R12   R(6,7)                  1.7868         estimate D2E/DX2                !
 ! R13   R(6,21)                 1.0933         estimate D2E/DX2                !
 ! R14   R(7,22)                 1.019          estimate D2E/DX2                !
 ! R15   R(8,9)                  1.1596         estimate D2E/DX2                !
 ! R16   R(8,19)                 1.767          estimate D2E/DX2                !
 ! R17   R(9,10)                 1.3155         estimate D2E/DX2                !
 ! R18   R(9,24)                 0.9153         estimate D2E/DX2                !
 ! R19   R(10,11)                1.1915         estimate D2E/DX2                !
 ! R20   R(10,18)                1.507          estimate D2E/DX2                !
 ! R21   R(10,19)                1.4695         estimate D2E/DX2                !
 ! R22   R(11,12)                1.2567         estimate D2E/DX2                !
 ! R23   R(11,26)                0.8687         estimate D2E/DX2                !
 ! R24   R(12,13)                1.4358         estimate D2E/DX2                !
 ! R25   R(12,17)                1.3494         estimate D2E/DX2                !
 ! R26   R(12,18)                1.5217         estimate D2E/DX2                !
 ! R27   R(13,14)                1.6781         estimate D2E/DX2                !
 ! R28   R(13,28)                0.9807         estimate D2E/DX2                !
 ! R29   R(14,15)                1.3951         estimate D2E/DX2                !
 ! R30   R(14,16)                0.6502         estimate D2E/DX2                !
 ! R31   R(15,30)                1.0828         estimate D2E/DX2                !
 ! R32   R(15,31)                1.5052         estimate D2E/DX2                !
 ! R33   R(16,29)                1.373          estimate D2E/DX2                !
 ! R34   R(17,18)                1.1028         estimate D2E/DX2                !
 ! R35   R(17,27)                0.9759         estimate D2E/DX2                !
 ! R36   R(18,19)                1.6445         estimate D2E/DX2                !
 ! R37   R(18,25)                1.1374         estimate D2E/DX2                !
 ! R38   R(19,25)                1.1402         estimate D2E/DX2                !
 ! R39   R(29,31)                1.3303         estimate D2E/DX2                !
 ! A1    A(2,1,3)               82.199          estimate D2E/DX2                !
 ! A2    A(1,2,6)              143.7741         estimate D2E/DX2                !
 ! A3    A(1,3,20)             156.4806         estimate D2E/DX2                !
 ! A4    A(6,4,8)              152.7359         estimate D2E/DX2                !
 ! A5    A(6,4,23)             141.8655         estimate D2E/DX2                !
 ! A6    A(7,4,8)               71.9487         estimate D2E/DX2                !
 ! A7    A(7,4,23)             137.3473         estimate D2E/DX2                !
 ! A8    A(8,4,23)              65.3986         estimate D2E/DX2                !
 ! A9    A(2,6,4)              148.4781         estimate D2E/DX2                !
 ! A10   A(2,6,7)               82.3971         estimate D2E/DX2                !
 ! A11   A(2,6,21)              71.167          estimate D2E/DX2                !
 ! A12   A(4,6,5)              108.2704         estimate D2E/DX2                !
 ! A13   A(4,6,21)             140.3549         estimate D2E/DX2                !
 ! A14   A(5,6,21)             111.3747         estimate D2E/DX2                !
 ! A15   A(7,6,21)             153.5641         estimate D2E/DX2                !
 ! A16   A(4,7,5)               77.7921         estimate D2E/DX2                !
 ! A17   A(5,7,22)              99.0546         estimate D2E/DX2                !
 ! A18   A(6,7,22)             143.7149         estimate D2E/DX2                !
 ! A19   A(4,8,19)             110.5738         estimate D2E/DX2                !
 ! A20   A(9,8,19)              82.6269         estimate D2E/DX2                !
 ! A21   A(8,9,10)             109.7178         estimate D2E/DX2                !
 ! A22   A(8,9,24)             111.458          estimate D2E/DX2                !
 ! A23   A(10,9,24)            138.8242         estimate D2E/DX2                !
 ! A24   A(9,10,11)            111.2515         estimate D2E/DX2                !
 ! A25   A(9,10,18)            157.8173         estimate D2E/DX2                !
 ! A26   A(9,10,19)             90.7563         estimate D2E/DX2                !
 ! A27   A(11,10,18)            90.9313         estimate D2E/DX2                !
 ! A28   A(11,10,19)           157.9922         estimate D2E/DX2                !
 ! A29   A(10,11,12)           102.8478         estimate D2E/DX2                !
 ! A30   A(10,11,26)           148.2994         estimate D2E/DX2                !
 ! A31   A(12,11,26)           108.8529         estimate D2E/DX2                !
 ! A32   A(11,12,13)           124.9579         estimate D2E/DX2                !
 ! A33   A(11,12,17)           132.4898         estimate D2E/DX2                !
 ! A34   A(11,12,18)            87.8128         estimate D2E/DX2                !
 ! A35   A(13,12,17)           102.5524         estimate D2E/DX2                !
 ! A36   A(13,12,18)           147.2293         estimate D2E/DX2                !
 ! A37   A(12,13,14)           120.6666         estimate D2E/DX2                !
 ! A38   A(12,13,28)           126.1073         estimate D2E/DX2                !
 ! A39   A(14,13,28)           113.2261         estimate D2E/DX2                !
 ! A40   A(13,14,15)           114.5134         estimate D2E/DX2                !
 ! A41   A(13,14,16)            96.5264         estimate D2E/DX2                !
 ! A42   A(15,14,16)           148.9602         estimate D2E/DX2                !
 ! A43   A(14,15,30)           127.2879         estimate D2E/DX2                !
 ! A44   A(14,15,31)            72.8245         estimate D2E/DX2                !
 ! A45   A(30,15,31)           159.8876         estimate D2E/DX2                !
 ! A46   A(14,16,29)           112.576          estimate D2E/DX2                !
 ! A47   A(12,17,27)           147.361          estimate D2E/DX2                !
 ! A48   A(18,17,27)            71.3903         estimate D2E/DX2                !
 ! A49   A(10,18,12)            78.4081         estimate D2E/DX2                !
 ! A50   A(10,18,17)           137.7604         estimate D2E/DX2                !
 ! A51   A(10,18,25)            99.2283         estimate D2E/DX2                !
 ! A52   A(12,18,19)           133.7904         estimate D2E/DX2                !
 ! A53   A(17,18,25)           123.0113         estimate D2E/DX2                !
 ! A54   A(8,19,10)             76.899          estimate D2E/DX2                !
 ! A55   A(8,19,18)            134.4557         estimate D2E/DX2                !
 ! A56   A(10,19,25)           101.2686         estimate D2E/DX2                !
 ! A57   A(16,29,31)            87.4025         estimate D2E/DX2                !
 ! A58   A(15,31,29)           118.2368         estimate D2E/DX2                !
 ! A59   L(1,2,5,21,-1)        192.5527         estimate D2E/DX2                !
 ! A60   L(2,5,7,6,-1)         184.164          estimate D2E/DX2                !
 ! A61   L(4,7,22,5,-1)        176.8467         estimate D2E/DX2                !
 ! A62   L(4,8,9,19,-1)        193.2007         estimate D2E/DX2                !
 ! A63   L(12,18,25,10,-1)     177.6364         estimate D2E/DX2                !
 ! A64   L(17,18,19,11,-1)     193.1427         estimate D2E/DX2                !
 ! A65   L(8,19,25,10,-1)      178.1676         estimate D2E/DX2                !
 ! A66   L(1,2,5,21,-2)        180.0003         estimate D2E/DX2                !
 ! A67   L(2,5,7,6,-2)         180.0            estimate D2E/DX2                !
 ! A68   L(4,7,22,5,-2)        179.9994         estimate D2E/DX2                !
 ! A69   L(4,8,9,19,-2)        179.9999         estimate D2E/DX2                !
 ! A70   L(12,18,25,10,-2)     179.9984         estimate D2E/DX2                !
 ! A71   L(17,18,19,11,-2)     179.9941         estimate D2E/DX2                !
 ! A72   L(8,19,25,10,-2)      179.9957         estimate D2E/DX2                !
 ! D1    D(3,1,2,6)            179.9994         estimate D2E/DX2                !
 ! D2    D(2,1,3,20)          -180.0            estimate D2E/DX2                !
 ! D3    D(3,1,7,4)            179.9998         estimate D2E/DX2                !
 ! D4    D(3,1,7,22)             0.0003         estimate D2E/DX2                !
 ! D5    D(1,2,6,4)           -179.9997         estimate D2E/DX2                !
 ! D6    D(1,2,6,7)           -179.9996         estimate D2E/DX2                !
 ! D7    D(1,2,6,21)             0.0005         estimate D2E/DX2                !
 ! D8    D(8,4,6,2)              0.0            estimate D2E/DX2                !
 ! D9    D(8,4,6,5)             -0.0001         estimate D2E/DX2                !
 ! D10   D(8,4,6,21)           179.9996         estimate D2E/DX2                !
 ! D11   D(23,4,6,2)          -179.9996         estimate D2E/DX2                !
 ! D12   D(23,4,6,5)          -179.9997         estimate D2E/DX2                !
 ! D13   D(23,4,6,21)            0.0            estimate D2E/DX2                !
 ! D14   D(8,4,7,5)            179.9999         estimate D2E/DX2                !
 ! D15   D(23,4,7,5)           179.9997         estimate D2E/DX2                !
 ! D16   D(6,4,8,19)          -179.998          estimate D2E/DX2                !
 ! D17   D(7,4,8,19)          -179.9981         estimate D2E/DX2                !
 ! D18   D(23,4,8,19)            0.0018         estimate D2E/DX2                !
 ! D19   D(6,4,9,10)           179.9998         estimate D2E/DX2                !
 ! D20   D(6,4,9,24)            -0.0001         estimate D2E/DX2                !
 ! D21   D(7,4,9,10)           179.9999         estimate D2E/DX2                !
 ! D22   D(7,4,9,24)             0.0001         estimate D2E/DX2                !
 ! D23   D(23,4,9,10)           -0.0003         estimate D2E/DX2                !
 ! D24   D(23,4,9,24)          179.9999         estimate D2E/DX2                !
 ! D25   D(2,5,6,7)            180.0            estimate D2E/DX2                !
 ! D26   D(2,6,7,22)             0.001          estimate D2E/DX2                !
 ! D27   D(21,6,7,22)            0.0012         estimate D2E/DX2                !
 ! D28   D(19,8,9,10)           -0.0019         estimate D2E/DX2                !
 ! D29   D(19,8,9,24)          179.9981         estimate D2E/DX2                !
 ! D30   D(4,8,19,10)         -179.9984         estimate D2E/DX2                !
 ! D31   D(4,8,19,18)         -179.9952         estimate D2E/DX2                !
 ! D32   D(9,8,19,10)            0.0016         estimate D2E/DX2                !
 ! D33   D(9,8,19,18)            0.0049         estimate D2E/DX2                !
 ! D34   D(8,9,10,11)          179.9992         estimate D2E/DX2                !
 ! D35   D(8,9,10,18)           -0.0011         estimate D2E/DX2                !
 ! D36   D(8,9,10,19)            0.0022         estimate D2E/DX2                !
 ! D37   D(24,9,10,11)          -0.0008         estimate D2E/DX2                !
 ! D38   D(24,9,10,18)         179.9989         estimate D2E/DX2                !
 ! D39   D(24,9,10,19)        -179.9978         estimate D2E/DX2                !
 ! D40   D(9,10,11,12)         179.9996         estimate D2E/DX2                !
 ! D41   D(9,10,11,26)           0.0023         estimate D2E/DX2                !
 ! D42   D(18,10,11,12)         -0.0003         estimate D2E/DX2                !
 ! D43   D(18,10,11,26)       -179.9976         estimate D2E/DX2                !
 ! D44   D(19,10,11,12)         -0.0084         estimate D2E/DX2                !
 ! D45   D(19,10,11,26)        179.9942         estimate D2E/DX2                !
 ! D46   D(9,10,18,12)        -179.9995         estimate D2E/DX2                !
 ! D47   D(9,10,18,17)         179.9956         estimate D2E/DX2                !
 ! D48   D(9,10,18,25)           0.0021         estimate D2E/DX2                !
 ! D49   D(11,10,18,12)          0.0002         estimate D2E/DX2                !
 ! D50   D(11,10,18,17)         -0.0047         estimate D2E/DX2                !
 ! D51   D(11,10,18,25)       -179.9982         estimate D2E/DX2                !
 ! D52   D(9,10,19,8)           -0.0014         estimate D2E/DX2                !
 ! D53   D(9,10,19,25)        -179.9971         estimate D2E/DX2                !
 ! D54   D(11,10,19,8)        -179.9939         estimate D2E/DX2                !
 ! D55   D(11,10,19,25)          0.0104         estimate D2E/DX2                !
 ! D56   D(10,11,12,13)        179.9998         estimate D2E/DX2                !
 ! D57   D(10,11,12,17)          0.0041         estimate D2E/DX2                !
 ! D58   D(10,11,12,18)          0.0003         estimate D2E/DX2                !
 ! D59   D(26,11,12,13)         -0.0017         estimate D2E/DX2                !
 ! D60   D(26,11,12,17)       -179.9974         estimate D2E/DX2                !
 ! D61   D(26,11,12,18)        179.9988         estimate D2E/DX2                !
 ! D62   D(11,12,13,14)       -179.999          estimate D2E/DX2                !
 ! D63   D(11,12,13,28)          0.0012         estimate D2E/DX2                !
 ! D64   D(17,12,13,14)         -0.0023         estimate D2E/DX2                !
 ! D65   D(17,12,13,28)        179.9979         estimate D2E/DX2                !
 ! D66   D(18,12,13,14)          0.0001         estimate D2E/DX2                !
 ! D67   D(18,12,13,28)       -179.9998         estimate D2E/DX2                !
 ! D68   D(11,12,17,27)         -0.012          estimate D2E/DX2                !
 ! D69   D(13,12,17,27)        179.9916         estimate D2E/DX2                !
 ! D70   D(11,12,18,10)         -0.0002         estimate D2E/DX2                !
 ! D71   D(11,12,18,19)          0.0033         estimate D2E/DX2                !
 ! D72   D(13,12,18,10)       -179.9994         estimate D2E/DX2                !
 ! D73   D(13,12,18,19)       -179.9959         estimate D2E/DX2                !
 ! D74   D(12,13,14,15)       -179.9994         estimate D2E/DX2                !
 ! D75   D(12,13,14,16)          0.0015         estimate D2E/DX2                !
 ! D76   D(28,13,14,15)          0.0004         estimate D2E/DX2                !
 ! D77   D(28,13,14,16)       -179.9987         estimate D2E/DX2                !
 ! D78   D(13,14,15,30)         -0.0004         estimate D2E/DX2                !
 ! D79   D(13,14,15,31)       -179.9997         estimate D2E/DX2                !
 ! D80   D(16,14,15,30)        179.9978         estimate D2E/DX2                !
 ! D81   D(16,14,15,31)         -0.0014         estimate D2E/DX2                !
 ! D82   D(13,14,16,29)       -179.9992         estimate D2E/DX2                !
 ! D83   D(15,14,16,29)          0.0024         estimate D2E/DX2                !
 ! D84   D(14,15,31,29)         -0.0005         estimate D2E/DX2                !
 ! D85   D(30,15,31,29)       -179.9988         estimate D2E/DX2                !
 ! D86   D(14,16,29,31)         -0.0015         estimate D2E/DX2                !
 ! D87   D(27,17,18,10)       -179.9982         estimate D2E/DX2                !
 ! D88   D(27,17,18,25)         -0.0058         estimate D2E/DX2                !
 ! D89   D(27,17,19,8)         179.9932         estimate D2E/DX2                !
 ! D90   D(12,18,19,8)          -0.008          estimate D2E/DX2                !
 ! D91   D(16,29,31,15)          0.001          estimate D2E/DX2                !
 --------------------------------------------------------------------------------
 Trust Radius=3.00D-01 FncErr=1.00D-07 GrdErr=1.00D-06 EigMax=2.50D+02 EigMin=1.00D-04
 Number of steps in this run=    186 maximum allowed number of steps=    186.
 GradGradGradGradGradGradGradGradGradGradGradGradGradGradGradGradGradGrad

                          Input orientation:                          
 ---------------------------------------------------------------------
 Center     Atomic      Atomic             Coordinates (Angstroms)
 Number     Number       Type             X           Y           Z
 ---------------------------------------------------------------------
      1          8           0        3.111330   -0.488820   -1.283340
      2          6           0        4.672840   -0.707460   -1.922750
      3          8           0        3.818540   -0.111020   -0.178500
      4          6           0        6.390940   -1.325000   -3.728670
      5          7           0        5.733090   -0.773200   -2.115000
      6          6           0        5.518250   -1.174200   -3.287670
      7          6           0        6.926700   -0.818460   -2.247360
      8          6           0        7.933250   -1.332320   -3.750090
      9          6           0        9.066010   -1.252010   -3.515220
     10          6           0        9.764610   -1.612660   -4.569890
     11          6           0       10.934860   -1.540240   -4.358140
     12          6           0       11.439480   -1.912660   -5.447200
     13          6           0       12.847500   -2.003550   -5.713030
     14          6           0       13.404430   -2.515740   -7.210890
     15          6           0       14.793950   -2.556110   -7.328940
     16          6           0       12.819590   -2.607650   -7.479710
     17          6           0       10.894170   -2.311970   -6.615090
     18          7           0       10.023570   -2.093010   -5.974580
     19          6           0        8.529840   -1.870410   -5.323840
     20          1           0        3.987230    0.293590    1.004750
     21          1           0        4.447020   -1.244970   -3.494630
     22          1           0        7.203110   -0.501120   -1.319310
     23          1           0        6.952160   -1.737480   -4.934930
     24          1           0        9.210740   -0.959590   -2.660070
     25          1           0        8.948930   -2.213550   -6.327160
     26          1           0       11.575090   -1.350250   -3.802510
     27          1           0       10.080640   -2.486410   -7.125050
     28          1           0       13.569290   -1.788730   -5.084820
     29          1           0       12.899420   -3.051160   -8.776690
     30          1           0       15.524370   -2.297460   -6.572550
     31          1           0       14.222630   -3.006680   -8.646630
 ---------------------------------------------------------------------
                    Distance matrix (angstroms):
                    1          2          3          4          5
     1  O    0.000000
     2  C    1.701459   0.000000
     3  O    1.365119   2.031742   0.000000
     4  C    4.175485   2.567990   4.549142   0.000000
     5  N    2.765168   1.079542   2.802502   1.827890   0.000000
     6  C    3.206298   1.671996   3.699500   0.989348   1.257820
     7  C    3.949056   2.279820   3.800173   1.654660   1.201779
     8  C    5.481538   3.789445   5.583786   1.542476   2.797649
     9  C    6.404839   4.704513   6.322302   2.684565   3.646674
    10  C    7.505369   5.809721   7.542876   3.488846   4.794198
    11  C    8.471570   6.770343   8.375803   4.592360   5.716506
    12  C    9.419296   7.724097   9.438423   5.365300   6.705581
    13  C   10.803220   9.103359  10.758011   6.788614   8.066871
    14  C   12.049571  10.367013  12.129570   7.920401   9.373046
    15  C   13.315652  11.622447  13.325422   9.224324  10.604863
    16  C   11.710455  10.042911  11.855789   7.552684   9.075451
    17  C    9.608540   7.955970   9.815213   5.439174   7.018217
    18  N    8.506481   6.853276   8.719245   4.339349   5.920006
    19  C    6.898890   5.272221   7.194882   2.723405   4.395718
    20  H    2.571910   3.168978   1.261842   5.550038   3.730805
    21  H    2.691772   1.676520   3.560554   1.959593   1.944202
    22  H    4.091957   2.609403   3.592901   2.672717   1.693549
    23  H    5.444744   3.915287   5.923561   1.392900   3.219934
    24  H    6.270551   4.604318   5.996172   3.037549   3.525038
    25  H    7.905213   6.320766   8.279345   3.752997   5.491678
    26  H    8.872627   7.182460   8.650619   5.184737   6.108162
    27  H    9.310597   7.711867   9.649401   5.147636   6.851050
    28  H   11.203122   9.503402  11.043723   7.320034   8.441396
    29  H   12.590575  10.961115  12.846621   8.415607  10.046069
    30  H   13.613614  11.912365  13.516318   9.615242  10.865647
    31  H   13.565347  11.903590  13.723672   9.399455  10.941797
                    6          7          8          9         10
     6  C    0.000000
     7  C    1.786764   0.000000
     8  C    2.463952   1.880264   0.000000
     9  C    3.555901   2.524298   1.159637   0.000000
    10  C    4.457343   3.752150   2.025967   1.315462   0.000000
    11  C    5.533494   4.587124   3.069628   2.070312   1.191456
    12  C    6.345854   5.639276   3.938353   3.130873   1.914383
    13  C    7.764541   6.962125   5.334186   4.437888   3.311159
    14  C    8.909726   8.335369   6.581142   5.837540   4.586799
    15  C   10.211765   9.525519   7.834222   7.003887   5.813494
    16  C    8.540348   8.081141   6.277965   5.625327   4.334739
    17  C    6.423921   6.086744   4.234972   3.751650   2.438808
    18  N    5.325562   5.010714   3.145861   2.769956   1.506967
    19  C    3.701401   3.625105   1.766961   1.985196   1.469535
    20  H    4.787828   4.522539   6.389300   6.972303   8.251577
    21  H    1.093332   2.808275   3.496668   4.619041   5.437660
    22  H    2.676982   1.019011   2.670710   2.975946   4.285216
    23  H    2.255404   2.840472   1.590766   2.592223   2.838787
    24  H    3.751589   2.325314   1.720190   0.915280   2.093009
    25  H    4.699821   4.762400   2.906796   2.974100   2.028399
    26  H    6.081231   4.930398   3.642261   2.527384   1.983827
    27  H    6.104325   6.043282   4.163360   3.947669   2.718852
    28  H    8.272040   7.288114   5.809885   4.799088   3.843403
    29  H    9.387970   9.126362   7.272136   6.753891   5.439989
    30  H   10.591250   9.737281   8.156156   7.221540   6.136321
    31  H   10.384732   9.948344   8.144685   7.483379   6.199762
                   11         12         13         14         15
    11  C    0.000000
    12  C    1.256738   0.000000
    13  C    2.389262   1.435774   0.000000
    14  C    3.897250   2.708383   1.678122   0.000000
    15  C    4.974959   3.899672   2.589431   1.395110   0.000000
    16  C    3.799443   2.553196   1.867317   0.650192   1.980779
    17  C    2.385591   1.349362   2.173553   2.588031   3.972086
    18  N    1.936203   1.521663   2.837427   3.624552   4.980490
    19  C    2.612606   2.912560   4.337209   5.266786   6.612842
    20  H    8.966219  10.101051  11.353845  12.809088  13.941176
    21  H    6.551710   7.290599   8.721514   9.780626  11.112155
    22  H    4.923435   6.081016   7.308981   8.787820   9.897449
    23  H    4.029080   4.519862   5.952417   6.886034   8.239849
    24  H    2.488611   3.693740   4.861732   6.381113   7.451138
    25  H    2.876509   2.658515   3.952228   4.552338   5.940132
    26  H    0.868744   1.743474   2.386612   4.040038   4.924517
    27  H    3.046427   2.234013   3.143639   3.325028   4.718233
    28  H    2.744090   2.163971   0.980702   2.252975   2.669221
    29  H    5.066158   3.809608   3.238239   1.730156   2.435220
    30  H    5.151757   4.254505   2.826799   2.224695   1.082838
    31  H    5.599199   4.379401   3.391646   1.723898   1.505233
                   16         17         18         19         20
    16  C    0.000000
    17  C    2.131252   0.000000
    18  N    3.216831   1.102788   0.000000
    19  C    4.857289   2.729901   1.644458   0.000000
    20  H   12.586256  10.609275   9.531228   8.085125   0.000000
    21  H    9.372176   7.241651   6.161756   4.517367   4.777342
    22  H    8.598421   6.704356   5.671036   4.435248   4.046567
    23  H    6.454443   4.323473   3.262029   1.630336   6.942323
    24  H    6.242502   4.506113   3.596013   2.896358   6.502801
    25  H    4.057794   1.968895   1.137407   1.140190   9.201148
    26  H    4.080641   3.049453   2.770703   3.443626   9.131680
    27  H    2.764476   0.975869   1.217211   2.455360  10.533361
    28  H    2.639731   3.125984   3.668295   5.045776  11.542738
    29  H    1.373037   3.039728   4.128000   5.692941  13.648848
    30  H    2.869668   4.630418   5.536982   7.117942  14.044024
    31  H    1.868007   3.960861   5.060311   6.688789  14.450063
                   21         22         23         24         25
    21  H    0.000000
    22  H    3.589061   0.000000
    23  H    2.931340   3.829396   0.000000
    24  H    4.844684   2.457318   3.298679   0.000000
    25  H    5.406345   5.573048   2.480330   3.884393   0.000000
    26  H    7.135493   5.099168   4.775333   2.654795   3.743776
    27  H    6.816069   6.777033   3.891646   4.798328   1.411329
    28  H    9.275785   7.507680   6.619026   5.056070   4.803291
    29  H   10.129440   9.724360   7.201026   7.442719   4.723151
    30  H   11.545086  10.003336   8.745179   7.547140   6.580552
    31  H   11.189695  10.451847   8.261194   8.071463   5.815575
                   26         27         28         29         30
    26  H    0.000000
    27  H    3.816217   0.000000
    28  H    2.411103   4.101216   0.000000
    29  H    5.421200   3.315476   3.958833   0.000000
    30  H    4.916009   5.474957   2.508881   3.509510   0.000000
    31  H    5.763569   4.443193   3.820569   1.330330   2.549378
                   31
    31  H    0.000000
 Stoichiometry    C15H12N2O2
 Framework group  C1[X(C15H12N2O2)]
 Deg. of freedom    87
 Full point group                 C1      NOp   1
 Largest Abelian subgroup         C1      NOp   1
 Largest concise Abelian subgroup C1      NOp   1
                         Standard orientation:                         
 ---------------------------------------------------------------------
 Center     Atomic      Atomic             Coordinates (Angstroms)
 Number     Number       Type             X           Y           Z
 ---------------------------------------------------------------------
      1          8           0       -6.465773   -0.497596    0.000005
      2          6           0       -4.789736   -0.204573   -0.000002
      3          8           0       -6.516172    0.866593   -0.000002
      4          6           0       -2.305676   -0.855735    0.000008
      5          7           0       -3.792150    0.208020   -0.000003
      6          6           0       -3.290932   -0.945623    0.000008
      7          6           0       -2.717890    0.746757   -0.000005
      8          6           0       -1.004431   -0.027487    0.000001
      9          6           0       -0.194199    0.802141    0.000001
     10          6           0        1.001823    0.254446    0.000009
     11          6           0        1.856802    1.084253   -0.000006
     12          6           0        2.910693    0.399633    0.000013
     13          6           0        4.241600    0.938271    0.000001
     14          6           0        5.576512   -0.078638    0.000004
     15          6           0        6.806175    0.580346    0.000004
     16          6           0        5.243848   -0.637283   -0.000006
     17          6           0        3.132973   -0.931295   -0.000028
     18          7           0        2.033657   -0.843857    0.000030
     19          6           0        0.407668   -1.089620   -0.000045
     20          1           0       -7.062096    2.004228   -0.000005
     21          1           0       -4.065948   -1.716807    0.000011
     22          1           0       -3.025652    1.718182   -0.000004
     23          1           0       -1.136455   -1.612765    0.000012
     24          1           0       -0.569680    1.636858   -0.000005
     25          1           0        1.340320   -1.745509    0.000011
     26          1           0        2.069255    1.926618   -0.000002
     27          1           0        2.749205   -1.828536    0.000032
     28          1           0        4.480072    1.889538   -0.000007
     29          1           0        6.063467   -1.738853    0.000007
     30          1           0        6.977449    1.649553   -0.000003
     31          1           0        7.093688   -0.897174   -0.000002
 ---------------------------------------------------------------------
 Rotational constants (GHZ):           3.2055615           0.1210510           0.1166461
 Standard basis: 6-31G(2df,p) (6D, 7F)
 There are   649 symmetry adapted cartesian basis functions of A   symmetry.
 There are   592 symmetry adapted basis functions of A   symmetry.
   592 basis functions,   920 primitive gaussians,   649 cartesian basis functions
    66 alpha electrons       66 beta electrons
       nuclear repulsion energy      1316.5018814112 Hartrees.
 NAtoms=   31 NActive=   31 NUniq=   31 SFac= 1.00D+00 NAtFMM=   60 NAOKFM=F Big=F
 Integral buffers will be    131072 words long.
 Raffenetti 2 integral format.
 Two-electron integral symmetry is turned on.
 One-electron integrals computed using PRISM.
 PrsmSu:  requested number of processors reduced to:  12 ShMem   1 Linda.
 NBasis=   592 RedAO= T EigKep=  9.27D-06  NBF=   592
 NBsUse=   592 1.00D-06 EigRej= -1.00D+00 NBFU=   592
 ExpMin= 1.61D-01 ExpMax= 5.48D+03 ExpMxC= 8.25D+02 IAcc=3 IRadAn=         5 AccDes= 0.00D+00
 Harris functional with IExCor=  402 and IRadAn=       5 diagonalized for initial guess.
 HarFok:  IExCor=  402 AccDes= 0.00D+00 IRadAn=         5 IDoV= 1 UseB2=F ITyADJ=14
 ICtDFT=  3500011 ScaDFX=  1.000000  1.000000  1.000000  1.000000
 FoFCou: FMM=F IPFlag=           0 FMFlag=      100000 FMFlg1=           0
         NFxFlg=           0 DoJE=T BraDBF=F KetDBF=T FulRan=T
         wScrn=  0.000000 ICntrl=       500 IOpCl=  0 I1Cent=   200000004 NGrid=           0
         NMat0=    1 NMatS0=      1 NMatT0=    0 NMatD0=    1 NMtDS0=    0 NMtDT0=    0
 Petite list used in FoFCou.
 Requested convergence on RMS density matrix=1.00D-08 within 128 cycles.
 Requested convergence on MAX density matrix=1.00D-06.
 Requested convergence on             energy=1.00D-06.
 No special actions if energy rises.
 Integral accuracy reduced to 1.0D-05 until final iterations.
 EnCoef did     5 forward-backward iterations
 EnCoef did     2 forward-backward iterations
 EnCoef did     2 forward-backward iterations
 EnCoef did     1 forward-backward iterations
 EnCoef did     8 forward-backward iterations
 EnCoef did    11 forward-backward iterations
 EnCoef did    15 forward-backward iterations
 EnCoef did   100 forward-backward iterations
 Problem detected with inexpensive integrals.
 Switching to full accuracy and repeating last cycle.
 EnCoef did     5 forward-backward iterations
 EnCoef did   100 forward-backward iterations
 EnCoef did    31 forward-backward iterations
 EnCoef did     6 forward-backward iterations
 EnCoef did    37 forward-backward iterations
 EnCoef did   100 forward-backward iterations
 EnCoef did   100 forward-backward iterations
 EnCoef did   100 forward-backward iterations
 EnCoef did   100 forward-backward iterations
 EnCoef did   100 forward-backward iterations
 EnCoef did   100 forward-backward iterations
 Rare condition: small coef for last iteration: -0.763D-14
 EnCoef did   100 forward-backward iterations
 EnCoef did   100 forward-backward iterations
 EnCoef did   100 forward-backward iterations
 Rare condition: small coef for last iteration: -0.469D-14
 EnCoef did   100 forward-backward iterations
 Rare condition: small coef for last iteration:  0.845D-05
 EnCoef did   100 forward-backward iterations
 Restarting incremental Fock formation.
 EnCoef did   100 forward-backward iterations
 EnCoef did   100 forward-backward iterations
 EnCoef did   100 forward-backward iterations
 EnCoef did   100 forward-backward iterations
 Rare condition: small coef for last iteration:  0.521D-15
 EnCoef did   100 forward-backward iterations
 EnCoef did   100 forward-backward iterations
 EnCoef did   100 forward-backward iterations
 EnCoef did   100 forward-backward iterations
 EnCoef did   100 forward-backward iterations
 EnCoef did   100 forward-backward iterations
 EnCoef did   100 forward-backward iterations
 EnCoef did     6 forward-backward iterations
 EnCoef did    45 forward-backward iterations
 EnCoef did   100 forward-backward iterations
 Restarting incremental Fock formation.
 Rare condition: small coef for last iteration:  0.000D+00
 SCF Done:  E(RB3LYP) =  -833.506856508     A.U. after   64 cycles
            NFock= 64  Conv=0.26D-08     -V/T= 1.9835

 **********************************************************************

            Population analysis using the SCF density.

 **********************************************************************

 Orbital symmetries:
       Occupied  (A) (A) (A) (A) (A) (A) (A) (A) (A) (A) (A) (A)
                 (A) (A) (A) (A) (A) (A) (A) (A) (A) (A) (A) (A)
                 (A) (A) (A) (A) (A) (A) (A) (A) (A) (A) (A) (A)
                 (A) (A) (A) (A) (A) (A) (A) (A) (A) (A) (A) (A)
                 (A) (A) (A) (A) (A) (A) (A) (A) (A) (A) (A) (A)
                 (A) (A) (A) (A) (A) (A)
       Virtual   (A) (A) (A) (A) (A) (A) (A) (A) (A) (A) (A) (A)
                 (A) (A) (A) (A) (A) (A) (A) (A) (A) (A) (A) (A)
                 (A) (A) (A) (A) (A) (A) (A) (A) (A) (A) (A) (A)
                 (A) (A) (A) (A) (A) (A) (A) (A) (A) (A) (A) (A)
                 (A) (A) (A) (A) (A) (A) (A) (A) (A) (A) (A) (A)
                 (A) (A) (A) (A) (A) (A) (A) (A) (A) (A) (A) (A)
                 (A) (A) (A) (A) (A) (A) (A) (A) (A) (A) (A) (A)
                 (A) (A) (A) (A) (A) (A) (A) (A) (A) (A) (A) (A)
                 (A) (A) (A) (A) (A) (A) (A) (A) (A) (A) (A) (A)
                 (A) (A) (A) (A) (A) (A) (A) (A) (A) (A) (A) (A)
                 (A) (A) (A) (A) (A) (A) (A) (A) (A) (A) (A) (A)
                 (A) (A) (A) (A) (A) (A) (A) (A) (A) (A) (A) (A)
                 (A) (A) (A) (A) (A) (A) (A) (A) (A) (A) (A) (A)
                 (A) (A) (A) (A) (A) (A) (A) (A) (A) (A) (A) (A)
                 (A) (A) (A) (A) (A) (A) (A) (A) (A) (A) (A) (A)
                 (A) (A) (A) (A) (A) (A) (A) (A) (A) (A) (A) (A)
                 (A) (A) (A) (A) (A) (A) (A) (A) (A) (A) (A) (A)
                 (A) (A) (A) (A) (A) (A) (A) (A) (A) (A) (A) (A)
                 (A) (A) (A) (A) (A) (A) (A) (A) (A) (A) (A) (A)
                 (A) (A) (A) (A) (A) (A) (A) (A) (A) (A) (A) (A)
                 (A) (A) (A) (A) (A) (A) (A) (A) (A) (A) (A) (A)
                 (A) (A) (A) (A) (A) (A) (A) (A) (A) (A) (A) (A)
                 (A) (A) (A) (A) (A) (A) (A) (A) (A) (A) (A) (A)
                 (A) (A) (A) (A) (A) (A) (A) (A) (A) (A) (A) (A)
                 (A) (A) (A) (A) (A) (A) (A) (A) (A) (A) (A) (A)
                 (A) (A) (A) (A) (A) (A) (A) (A) (A) (A) (A) (A)
                 (A) (A) (A) (A) (A) (A) (A) (A) (A) (A) (A) (A)
                 (A) (A) (A) (A) (A) (A) (A) (A) (A) (A) (A) (A)
                 (A) (A) (A) (A) (A) (A) (A) (A) (A) (A) (A) (A)
                 (A) (A) (A) (A) (A) (A) (A) (A) (A) (A) (A) (A)
                 (A) (A) (A) (A) (A) (A) (A) (A) (A) (A) (A) (A)
                 (A) (A) (A) (A) (A) (A) (A) (A) (A) (A) (A) (A)
                 (A) (A) (A) (A) (A) (A) (A) (A) (A) (A) (A) (A)
                 (A) (A) (A) (A) (A) (A) (A) (A) (A) (A) (A) (A)
                 (A) (A) (A) (A) (A) (A) (A) (A) (A) (A) (A) (A)
                 (A) (A) (A) (A) (A) (A) (A) (A) (A) (A) (A) (A)
                 (A) (A) (A) (A) (A) (A) (A) (A) (A) (A) (A) (A)
                 (A) (A) (A) (A) (A) (A) (A) (A) (A) (A) (A) (A)
                 (A) (A) (A) (A) (A) (A) (A) (A) (A) (A) (A) (A)
                 (A) (A) (A) (A) (A) (A) (A) (A) (A) (A) (A) (A)
                 (A) (A) (A) (A) (A) (A) (A) (A) (A) (A) (A) (A)
                 (A) (A) (A) (A) (A) (A) (A) (A) (A) (A) (A) (A)
                 (A) (A) (A) (A) (A) (A) (A) (A) (A) (A) (A) (A)
                 (A) (A) (A) (A) (A) (A) (A) (A) (A) (A)
 The electronic state is 1-A.
 Alpha  occ. eigenvalues --  -19.20861 -19.15804 -14.46793 -14.44994 -10.45654
 Alpha  occ. eigenvalues --  -10.30898 -10.26592 -10.25056 -10.24169 -10.23340
 Alpha  occ. eigenvalues --  -10.22561 -10.22263 -10.21911 -10.21851 -10.21174
 Alpha  occ. eigenvalues --  -10.18785 -10.16938 -10.16474 -10.15901  -1.24467
 Alpha  occ. eigenvalues --   -1.24100  -1.10251  -0.99556  -0.97497  -0.93919
 Alpha  occ. eigenvalues --   -0.87331  -0.83946  -0.82993  -0.79860  -0.76800
 Alpha  occ. eigenvalues --   -0.74780  -0.71989  -0.67606  -0.65388  -0.64109
 Alpha  occ. eigenvalues --   -0.60862  -0.60617  -0.59395  -0.58791  -0.57848
 Alpha  occ. eigenvalues --   -0.55570  -0.53279  -0.52834  -0.51294  -0.49284
 Alpha  occ. eigenvalues --   -0.49027  -0.44546  -0.43491  -0.43467  -0.42283
 Alpha  occ. eigenvalues --   -0.40888  -0.40339  -0.37231  -0.36683  -0.34527
 Alpha  occ. eigenvalues --   -0.31071  -0.29062  -0.27840  -0.27782  -0.25777
 Alpha  occ. eigenvalues --   -0.22493  -0.20411  -0.18533  -0.18182  -0.15196
 Alpha  occ. eigenvalues --   -0.13214
 Alpha virt. eigenvalues --   -0.11732  -0.09598  -0.07329  -0.06967  -0.06432
 Alpha virt. eigenvalues --   -0.02819  -0.00539   0.00852   0.01242   0.03274
 Alpha virt. eigenvalues --    0.04760   0.06977   0.09648   0.09701   0.10266
 Alpha virt. eigenvalues --    0.13624   0.14530   0.16011   0.16181   0.16660
 Alpha virt. eigenvalues --    0.16922   0.18844   0.20079   0.20663   0.22331
 Alpha virt. eigenvalues --    0.22485   0.23815   0.25013   0.26843   0.27362
 Alpha virt. eigenvalues --    0.28664   0.30884   0.32748   0.35000   0.36957
 Alpha virt. eigenvalues --    0.38288   0.39317   0.40191   0.40565   0.42083
 Alpha virt. eigenvalues --    0.42221   0.43324   0.43699   0.44321   0.44991
 Alpha virt. eigenvalues --    0.46267   0.46419   0.47361   0.48069   0.48499
 Alpha virt. eigenvalues --    0.49706   0.51119   0.51136   0.51575   0.53574
 Alpha virt. eigenvalues --    0.55670   0.55827   0.56134   0.57233   0.57496
 Alpha virt. eigenvalues --    0.57516   0.59669   0.60322   0.60581   0.60836
 Alpha virt. eigenvalues --    0.61655   0.62750   0.64457   0.64478   0.64770
 Alpha virt. eigenvalues --    0.65571   0.67415   0.67444   0.68639   0.69375
 Alpha virt. eigenvalues --    0.70058   0.71457   0.71801   0.72549   0.73893
 Alpha virt. eigenvalues --    0.75371   0.75967   0.76480   0.77084   0.77187
 Alpha virt. eigenvalues --    0.77781   0.78682   0.79299   0.80054   0.80708
 Alpha virt. eigenvalues --    0.80760   0.81315   0.83000   0.83404   0.83822
 Alpha virt. eigenvalues --    0.85335   0.86669   0.87050   0.87342   0.88601
 Alpha virt. eigenvalues --    0.89085   0.89264   0.91389   0.91399   0.92337
 Alpha virt. eigenvalues --    0.92472   0.93343   0.95328   0.95412   0.95643
 Alpha virt. eigenvalues --    0.97339   0.98396   0.99732   0.99761   1.01340
 Alpha virt. eigenvalues --    1.01908   1.02101   1.03062   1.04754   1.07122
 Alpha virt. eigenvalues --    1.07553   1.08479   1.08613   1.09390   1.10470
 Alpha virt. eigenvalues --    1.12080   1.12299   1.13528   1.14106   1.15204
 Alpha virt. eigenvalues --    1.15362   1.15774   1.17627   1.17762   1.19270
 Alpha virt. eigenvalues --    1.20688   1.20801   1.22150   1.22705   1.23220
 Alpha virt. eigenvalues --    1.24380   1.25798   1.27254   1.29310   1.29665
 Alpha virt. eigenvalues --    1.31693   1.32419   1.33578   1.35316   1.36004
 Alpha virt. eigenvalues --    1.37571   1.37906   1.38841   1.39125   1.39979
 Alpha virt. eigenvalues --    1.41507   1.42658   1.43401   1.46172   1.48107
 Alpha virt. eigenvalues --    1.48513   1.49265   1.50490   1.51270   1.51908
 Alpha virt. eigenvalues --    1.54589   1.55369   1.55974   1.56664   1.58463
 Alpha virt. eigenvalues --    1.58555   1.60291   1.61503   1.64618   1.65126
 Alpha virt. eigenvalues --    1.65542   1.66892   1.67205   1.68503   1.69219
 Alpha virt. eigenvalues --    1.70823   1.71346   1.71901   1.72502   1.73765
 Alpha virt. eigenvalues --    1.75382   1.76437   1.78037   1.79227   1.81658
 Alpha virt. eigenvalues --    1.82156   1.83741   1.84812   1.86430   1.89175
 Alpha virt. eigenvalues --    1.89301   1.90325   1.91987   1.92699   1.96813
 Alpha virt. eigenvalues --    2.00491   2.01059   2.02012   2.02457   2.05604
 Alpha virt. eigenvalues --    2.07785   2.08895   2.10806   2.12792   2.14016
 Alpha virt. eigenvalues --    2.15044   2.16180   2.16654   2.19104   2.20421
 Alpha virt. eigenvalues --    2.22059   2.23298   2.26409   2.27469   2.30772
 Alpha virt. eigenvalues --    2.33068   2.35447   2.36260   2.37068   2.39727
 Alpha virt. eigenvalues --    2.40843   2.42149   2.42733   2.43911   2.44016
 Alpha virt. eigenvalues --    2.44752   2.46382   2.47060   2.49643   2.50861
 Alpha virt. eigenvalues --    2.51379   2.51888   2.55276   2.59433   2.61066
 Alpha virt. eigenvalues --    2.62078   2.65846   2.67671   2.67996   2.68963
 Alpha virt. eigenvalues --    2.72150   2.72173   2.74536   2.75597   2.79732
 Alpha virt. eigenvalues --    2.80687   2.81759   2.83025   2.84611   2.85685
 Alpha virt. eigenvalues --    2.87157   2.88075   2.90502   2.91081   2.91458
 Alpha virt. eigenvalues --    2.92228   2.92426   2.92687   2.94431   2.95073
 Alpha virt. eigenvalues --    2.97846   2.97897   3.00724   3.00749   3.02000
 Alpha virt. eigenvalues --    3.03002   3.03833   3.05922   3.06606   3.06671
 Alpha virt. eigenvalues --    3.09330   3.09454   3.09581   3.10856   3.13857
 Alpha virt. eigenvalues --    3.14326   3.14423   3.15523   3.17153   3.17406
 Alpha virt. eigenvalues --    3.18272   3.19044   3.21651   3.21807   3.23250
 Alpha virt. eigenvalues --    3.24344   3.24998   3.25951   3.28077   3.28397
 Alpha virt. eigenvalues --    3.28694   3.29095   3.31557   3.32264   3.33571
 Alpha virt. eigenvalues --    3.36389   3.36670   3.36900   3.37342   3.38863
 Alpha virt. eigenvalues --    3.40369   3.41410   3.42195   3.42912   3.43965
 Alpha virt. eigenvalues --    3.44770   3.45700   3.47847   3.48307   3.49155
 Alpha virt. eigenvalues --    3.49935   3.51330   3.51434   3.53055   3.53351
 Alpha virt. eigenvalues --    3.56469   3.58918   3.61374   3.63008   3.63510
 Alpha virt. eigenvalues --    3.64738   3.64798   3.67132   3.67913   3.69005
 Alpha virt. eigenvalues --    3.69560   3.70870   3.75539   3.75612   3.77202
 Alpha virt. eigenvalues --    3.77619   3.79270   3.80924   3.83117   3.83601
 Alpha virt. eigenvalues --    3.84696   3.84741   3.85992   3.87824   3.88182
 Alpha virt. eigenvalues --    3.90467   3.92520   3.93522   3.93833   3.95408
 Alpha virt. eigenvalues --    3.95659   3.99516   4.00927   4.01469   4.02756
 Alpha virt. eigenvalues --    4.05898   4.05937   4.06477   4.09368   4.10660
 Alpha virt. eigenvalues --    4.12400   4.13292   4.14968   4.15118   4.15424
 Alpha virt. eigenvalues --    4.16322   4.16992   4.19123   4.19152   4.19983
 Alpha virt. eigenvalues --    4.21631   4.23165   4.24174   4.24216   4.25580
 Alpha virt. eigenvalues --    4.27694   4.29007   4.29645   4.30887   4.31051
 Alpha virt. eigenvalues --    4.33867   4.35974   4.36295   4.38164   4.40299
 Alpha virt. eigenvalues --    4.40464   4.41615   4.42395   4.42628   4.44255
 Alpha virt. eigenvalues --    4.45514   4.45732   4.47486   4.48332   4.48578
 Alpha virt. eigenvalues --    4.49485   4.52368   4.53479   4.54195   4.55199
 Alpha virt. eigenvalues --    4.56459   4.58884   4.61897   4.62121   4.62738
 Alpha virt. eigenvalues --    4.64531   4.65324   4.68274   4.69204   4.69414
 Alpha virt. eigenvalues --    4.69613   4.71205   4.72767   4.73440   4.73953
 Alpha virt. eigenvalues --    4.75593   4.75893   4.76267   4.78407   4.79162
 Alpha virt. eigenvalues --    4.82078   4.83717   4.85021   4.88054   4.89692
 Alpha virt. eigenvalues --    4.90139   4.90433   4.91023   4.91324   4.95312
 Alpha virt. eigenvalues --    4.95520   4.96146   4.99562   5.01243   5.01316
 Alpha virt. eigenvalues --    5.04138   5.04964   5.05423   5.08788   5.09393
 Alpha virt. eigenvalues --    5.09681   5.11788   5.12940   5.19073   5.22689
 Alpha virt. eigenvalues --    5.22720   5.24023   5.28785   5.30990   5.31219
 Alpha virt. eigenvalues --    5.35139   5.36131   5.38408   5.39959   5.42532
 Alpha virt. eigenvalues --    5.43057   5.45072   5.45381   5.48463   5.50322
 Alpha virt. eigenvalues --    5.52520   5.53685   5.54589   5.60033   5.62452
 Alpha virt. eigenvalues --    5.65004   5.66332   5.72484   5.75562   5.76964
 Alpha virt. eigenvalues --    5.80556   5.85024   5.87313   5.89060   5.89365
 Alpha virt. eigenvalues --    5.97337   6.03162   6.06852   6.09135   6.17122
 Alpha virt. eigenvalues --    6.23859   6.24159   6.28276   6.29701   6.34242
 Alpha virt. eigenvalues --    6.36396   6.43942   6.47731   6.52198   6.60592
 Alpha virt. eigenvalues --    6.61353   6.66322   6.75660   6.84788   6.91744
 Alpha virt. eigenvalues --    7.06793   7.26019   7.28578   7.53486   7.70983
 Alpha virt. eigenvalues --    7.76495   8.37449   8.51043   8.74572   9.99717
 Alpha virt. eigenvalues --   10.02778  10.45275  10.72899  10.82066  10.98546
 Alpha virt. eigenvalues --   11.04395  11.26768  11.32092  11.41203  11.54775
 Alpha virt. eigenvalues --   11.74408  11.92495  12.11991  12.46560  12.78699
 Alpha virt. eigenvalues --   12.97224  13.27648  13.93698  14.06585  32.87673
 Alpha virt. eigenvalues --   34.90143
          Condensed to atoms (all electrons):
               1          2          3          4          5          6
     1  O    8.197623  -0.031139   0.022476  -0.001442  -0.008015  -0.018178
     2  C   -0.031139   5.928321   0.044300  -0.015158   0.574559  -0.140221
     3  O    0.022476   0.044300   8.307520  -0.000107  -0.013323   0.003211
     4  C   -0.001442  -0.015158  -0.000107   6.174631   0.059271  -0.784038
     5  N   -0.008015   0.574559  -0.013323   0.059271   5.596330  -0.261156
     6  C   -0.018178  -0.140221   0.003211  -0.784038  -0.261156   7.423859
     7  C   -0.000970  -0.219472  -0.002025   0.366746   0.593441  -0.446292
     8  C   -0.000014  -0.004529   0.000002   0.274191  -0.036812   0.008809
     9  C    0.000000   0.000097   0.000000  -0.040429   0.004833  -0.045221
    10  C   -0.000000   0.000015   0.000000  -0.044324   0.000177  -0.010754
    11  C   -0.000000  -0.000000   0.000000  -0.004220  -0.000001  -0.000151
    12  C    0.000000  -0.000000   0.000000   0.000226  -0.000000   0.000008
    13  C   -0.000000   0.000000   0.000000  -0.000002  -0.000000  -0.000000
    14  C    0.000000  -0.000000   0.000000  -0.000000  -0.000000  -0.000000
    15  C    0.000000  -0.000000   0.000000  -0.000000   0.000000  -0.000000
    16  C    0.000000  -0.000000   0.000000  -0.000000  -0.000000  -0.000000
    17  C   -0.000000   0.000000   0.000000  -0.000133  -0.000000  -0.000001
    18  N   -0.000000  -0.000000   0.000000   0.001806  -0.000004   0.000095
    19  C   -0.000000  -0.000156  -0.000000  -0.071451  -0.001549   0.022037
    20  H    0.003362  -0.012467   0.082493  -0.000052  -0.000198  -0.000422
    21  H   -0.010083   0.016444   0.000649  -0.060761  -0.097228   0.403790
    22  H   -0.000118  -0.000100   0.001480  -0.028616  -0.048734   0.082322
    23  H    0.000000   0.002709   0.000000   0.306897   0.017542  -0.287138
    24  H    0.000000  -0.000235   0.000000   0.008557  -0.001423   0.013891
    25  H   -0.000000   0.000000  -0.000000  -0.000833   0.000002  -0.000186
    26  H   -0.000000  -0.000000  -0.000000  -0.000084  -0.000000  -0.000007
    27  H   -0.000000  -0.000000  -0.000000   0.000011  -0.000000  -0.000003
    28  H    0.000000   0.000000   0.000000   0.000000  -0.000000   0.000000
    29  H    0.000000   0.000000   0.000000   0.000000   0.000000   0.000000
    30  H    0.000000   0.000000   0.000000   0.000000   0.000000   0.000000
    31  H    0.000000   0.000000   0.000000   0.000000   0.000000   0.000000
               7          8          9         10         11         12
     1  O   -0.000970  -0.000014   0.000000  -0.000000  -0.000000   0.000000
     2  C   -0.219472  -0.004529   0.000097   0.000015  -0.000000  -0.000000
     3  O   -0.002025   0.000002   0.000000   0.000000   0.000000   0.000000
     4  C    0.366746   0.274191  -0.040429  -0.044324  -0.004220   0.000226
     5  N    0.593441  -0.036812   0.004833   0.000177  -0.000001  -0.000000
     6  C   -0.446292   0.008809  -0.045221  -0.010754  -0.000151   0.000008
     7  C    5.744851   0.173403  -0.003722   0.016653   0.000354  -0.000086
     8  C    0.173403   4.952004   0.307850   0.084502  -0.095566   0.004868
     9  C   -0.003722   0.307850   6.224977  -0.365052   0.054017  -0.043924
    10  C    0.016653   0.084502  -0.365052   5.676687   0.010592   0.317875
    11  C    0.000354  -0.095566   0.054017   0.010592   5.823321   0.223996
    12  C   -0.000086   0.004868  -0.043924   0.317875   0.223996   5.868414
    13  C    0.000000   0.000459  -0.005507  -0.055721  -0.122266  -0.295918
    14  C    0.000000  -0.000005   0.000303   0.000457   0.040660   1.057873
    15  C    0.000000  -0.000000   0.000000   0.000021   0.000113   0.027544
    16  C    0.000000   0.000006  -0.000159  -0.003510  -0.018875  -0.970393
    17  C    0.000008   0.000359   0.004102  -0.164836   0.004528   0.083394
    18  N   -0.000062   0.041880   0.020324  -0.335411   0.249416  -0.540610
    19  C   -0.014692   0.142304   0.029722   0.374110  -0.086556   0.021314
    20  H   -0.000012  -0.000001   0.000000  -0.000000  -0.000000   0.000000
    21  H    0.014945   0.006029  -0.000113  -0.000022   0.000000  -0.000000
    22  H    0.242789  -0.021731  -0.011863  -0.002165  -0.000044   0.000004
    23  H    0.025720  -0.144212  -0.029585   0.076336   0.003241  -0.001440
    24  H   -0.043885   0.029321   0.248333  -0.062514  -0.019112   0.003142
    25  H   -0.000062  -0.018030   0.030033  -0.086326   0.014517   0.034183
    26  H    0.000044   0.000929  -0.019985   0.018036   0.321926  -0.054504
    27  H   -0.000002  -0.000323  -0.000350   0.035443  -0.019563   0.029675
    28  H   -0.000000   0.000013  -0.000041   0.000630  -0.008376  -0.130248
    29  H   -0.000000  -0.000000   0.000000   0.000091  -0.000043   0.011983
    30  H   -0.000000  -0.000000  -0.000000   0.000003  -0.000045  -0.001240
    31  H   -0.000000  -0.000000   0.000000   0.000003   0.000000   0.000660
              13         14         15         16         17         18
     1  O   -0.000000   0.000000   0.000000   0.000000  -0.000000  -0.000000
     2  C    0.000000  -0.000000  -0.000000  -0.000000   0.000000  -0.000000
     3  O    0.000000   0.000000   0.000000   0.000000   0.000000   0.000000
     4  C   -0.000002  -0.000000  -0.000000  -0.000000  -0.000133   0.001806
     5  N   -0.000000  -0.000000   0.000000  -0.000000  -0.000000  -0.000004
     6  C   -0.000000  -0.000000  -0.000000  -0.000000  -0.000001   0.000095
     7  C    0.000000   0.000000   0.000000   0.000000   0.000008  -0.000062
     8  C    0.000459  -0.000005  -0.000000   0.000006   0.000359   0.041880
     9  C   -0.005507   0.000303   0.000000  -0.000159   0.004102   0.020324
    10  C   -0.055721   0.000457   0.000021  -0.003510  -0.164836  -0.335411
    11  C   -0.122266   0.040660   0.000113  -0.018875   0.004528   0.249416
    12  C   -0.295918   1.057873   0.027544  -0.970393   0.083394  -0.540610
    13  C    6.433344  -2.303588  -0.052115   2.199853   0.078149   0.050800
    14  C   -2.303588  28.139426   1.491837 -23.660697  -0.361566   0.008567
    15  C   -0.052115   1.491837   5.844019  -1.252440  -0.006567   0.000046
    16  C    2.199853 -23.660697  -1.252440  30.874554   0.379750  -0.023055
    17  C    0.078149  -0.361566  -0.006567   0.379750   5.768084   0.467989
    18  N    0.050800   0.008567   0.000046  -0.023055   0.467989   7.228865
    19  C   -0.002484  -0.000686  -0.000000  -0.000202  -0.065211  -0.477409
    20  H   -0.000000   0.000000   0.000000  -0.000000  -0.000000  -0.000000
    21  H    0.000000   0.000000   0.000000   0.000000   0.000000   0.000001
    22  H   -0.000000  -0.000000  -0.000000   0.000000  -0.000000   0.000003
    23  H    0.000016   0.000000   0.000000   0.000001   0.001444  -0.012343
    24  H   -0.000345   0.000000   0.000000  -0.000001  -0.000141  -0.005296
    25  H   -0.002355   0.000037   0.000000  -0.000531  -0.084163   0.173271
    26  H    0.014050   0.002677   0.000013  -0.001607   0.009227   0.029292
    27  H    0.006721  -0.056530  -0.000195   0.000427   0.224158  -0.030352
    28  H    0.401594  -0.172818  -0.034452   0.144438   0.021928  -0.000221
    29  H    0.002079   0.674705  -0.071451  -0.592945  -0.023862   0.000583
    30  H    0.009178  -0.095088   0.310397   0.082296   0.000407  -0.000000
    31  H    0.005799  -0.145922   0.158595   0.058400  -0.000987   0.000001
              19         20         21         22         23         24
     1  O   -0.000000   0.003362  -0.010083  -0.000118   0.000000   0.000000
     2  C   -0.000156  -0.012467   0.016444  -0.000100   0.002709  -0.000235
     3  O   -0.000000   0.082493   0.000649   0.001480   0.000000   0.000000
     4  C   -0.071451  -0.000052  -0.060761  -0.028616   0.306897   0.008557
     5  N   -0.001549  -0.000198  -0.097228  -0.048734   0.017542  -0.001423
     6  C    0.022037  -0.000422   0.403790   0.082322  -0.287138   0.013891
     7  C   -0.014692  -0.000012   0.014945   0.242789   0.025720  -0.043885
     8  C    0.142304  -0.000001   0.006029  -0.021731  -0.144212   0.029321
     9  C    0.029722   0.000000  -0.000113  -0.011863  -0.029585   0.248333
    10  C    0.374110  -0.000000  -0.000022  -0.002165   0.076336  -0.062514
    11  C   -0.086556  -0.000000   0.000000  -0.000044   0.003241  -0.019112
    12  C    0.021314   0.000000  -0.000000   0.000004  -0.001440   0.003142
    13  C   -0.002484  -0.000000   0.000000  -0.000000   0.000016  -0.000345
    14  C   -0.000686   0.000000   0.000000  -0.000000   0.000000   0.000000
    15  C   -0.000000   0.000000   0.000000  -0.000000   0.000000   0.000000
    16  C   -0.000202  -0.000000   0.000000   0.000000   0.000001  -0.000001
    17  C   -0.065211  -0.000000   0.000000  -0.000000   0.001444  -0.000141
    18  N   -0.477409  -0.000000   0.000001   0.000003  -0.012343  -0.005296
    19  C    6.486321   0.000000   0.000534   0.001023  -0.035981   0.036649
    20  H    0.000000   0.660751  -0.000074  -0.000114  -0.000000   0.000000
    21  H    0.000534  -0.000074   0.547085  -0.000325  -0.009258   0.000026
    22  H    0.001023  -0.000114  -0.000325   0.677768  -0.002602   0.018761
    23  H   -0.035981  -0.000000  -0.009258  -0.002602   1.016334  -0.009013
    24  H    0.036649   0.000000   0.000026   0.018761  -0.009013   0.657781
    25  H    0.179884  -0.000000  -0.000001  -0.000001  -0.002736  -0.000434
    26  H   -0.005715  -0.000000   0.000000  -0.000009   0.000098  -0.008667
    27  H    0.017941  -0.000000  -0.000000   0.000000  -0.000159   0.000033
    28  H   -0.000039   0.000000   0.000000   0.000000  -0.000000  -0.000012
    29  H    0.000006   0.000000  -0.000000  -0.000000  -0.000000   0.000000
    30  H    0.000000   0.000000  -0.000000   0.000000  -0.000000   0.000000
    31  H    0.000000   0.000000  -0.000000   0.000000  -0.000000   0.000000
              25         26         27         28         29         30
     1  O   -0.000000  -0.000000  -0.000000   0.000000   0.000000   0.000000
     2  C    0.000000  -0.000000  -0.000000   0.000000   0.000000   0.000000
     3  O   -0.000000  -0.000000  -0.000000   0.000000   0.000000   0.000000
     4  C   -0.000833  -0.000084   0.000011   0.000000   0.000000   0.000000
     5  N    0.000002  -0.000000  -0.000000  -0.000000   0.000000   0.000000
     6  C   -0.000186  -0.000007  -0.000003   0.000000   0.000000   0.000000
     7  C   -0.000062   0.000044  -0.000002  -0.000000  -0.000000  -0.000000
     8  C   -0.018030   0.000929  -0.000323   0.000013  -0.000000  -0.000000
     9  C    0.030033  -0.019985  -0.000350  -0.000041   0.000000  -0.000000
    10  C   -0.086326   0.018036   0.035443   0.000630   0.000091   0.000003
    11  C    0.014517   0.321926  -0.019563  -0.008376  -0.000043  -0.000045
    12  C    0.034183  -0.054504   0.029675  -0.130248   0.011983  -0.001240
    13  C   -0.002355   0.014050   0.006721   0.401594   0.002079   0.009178
    14  C    0.000037   0.002677  -0.056530  -0.172818   0.674705  -0.095088
    15  C    0.000000   0.000013  -0.000195  -0.034452  -0.071451   0.310397
    16  C   -0.000531  -0.001607   0.000427   0.144438  -0.592945   0.082296
    17  C   -0.084163   0.009227   0.224158   0.021928  -0.023862   0.000407
    18  N    0.173271   0.029292  -0.030352  -0.000221   0.000583  -0.000000
    19  C    0.179884  -0.005715   0.017941  -0.000039   0.000006   0.000000
    20  H   -0.000000  -0.000000  -0.000000   0.000000   0.000000   0.000000
    21  H   -0.000001   0.000000  -0.000000   0.000000  -0.000000  -0.000000
    22  H   -0.000001  -0.000009   0.000000   0.000000  -0.000000   0.000000
    23  H   -0.002736   0.000098  -0.000159  -0.000000  -0.000000  -0.000000
    24  H   -0.000434  -0.008667   0.000033  -0.000012   0.000000   0.000000
    25  H    0.533877  -0.000824   0.000375   0.000010   0.000035   0.000000
    26  H   -0.000824   0.537783  -0.000482   0.003385  -0.000010  -0.000020
    27  H    0.000375  -0.000482   0.562948   0.000258  -0.001244   0.000008
    28  H    0.000010   0.003385   0.000258   0.651804  -0.001528   0.005988
    29  H    0.000035  -0.000010  -0.001244  -0.001528   0.915242   0.000889
    30  H    0.000000  -0.000020   0.000008   0.005988   0.000889   0.572643
    31  H    0.000001  -0.000002   0.000059  -0.000442   0.148133  -0.012007
              31
     1  O    0.000000
     2  C    0.000000
     3  O    0.000000
     4  C    0.000000
     5  N    0.000000
     6  C    0.000000
     7  C   -0.000000
     8  C   -0.000000
     9  C    0.000000
    10  C    0.000003
    11  C    0.000000
    12  C    0.000660
    13  C    0.005799
    14  C   -0.145922
    15  C    0.158595
    16  C    0.058400
    17  C   -0.000987
    18  N    0.000001
    19  C    0.000000
    20  H    0.000000
    21  H   -0.000000
    22  H    0.000000
    23  H   -0.000000
    24  H    0.000000
    25  H    0.000001
    26  H   -0.000002
    27  H    0.000059
    28  H   -0.000442
    29  H    0.148133
    30  H   -0.012007
    31  H    0.768238
 Mulliken charges:
               1
     1  O   -0.153502
     2  C   -0.142968
     3  O   -0.446677
     4  C   -0.140685
     5  N    0.622288
     6  C    0.035746
     7  C   -0.447670
     8  C    0.294294
     9  C   -0.358641
    10  C    0.519006
    11  C   -0.371864
    12  C    0.353204
    13  C   -0.361741
    14  C    1.380358
    15  C   -0.415366
    16  C   -1.215310
    17  C   -0.336058
    18  N    0.151826
    19  C   -0.549713
    20  H    0.266734
    21  H    0.188359
    22  H    0.092272
    23  H    0.084127
    24  H    0.134587
    25  H    0.230256
    26  H    0.154458
    27  H    0.231147
    28  H    0.118130
    29  H   -0.062661
    30  H    0.126594
    31  H    0.019471
 Sum of Mulliken charges =  -0.00000
 Mulliken charges with hydrogens summed into heavy atoms:
               1
     1  O   -0.153502
     2  C   -0.142968
     3  O   -0.179943
     4  C   -0.056558
     5  N    0.622288
     6  C    0.224105
     7  C   -0.355398
     8  C    0.294294
     9  C   -0.224054
    10  C    0.519006
    11  C   -0.217406
    12  C    0.353204
    13  C   -0.243611
    14  C    1.380358
    15  C   -0.269301
    16  C   -1.277971
    17  C   -0.104910
    18  N    0.382082
    19  C   -0.549713
 Electronic spatial extent (au):  <R**2>=           8512.3727
 Charge=             -0.0000 electrons
 Dipole moment (field-independent basis, Debye):
    X=             -1.6828    Y=              2.1144    Z=              0.0459  Tot=              2.7027
 Quadrupole moment (field-independent basis, Debye-Ang):
   XX=           -160.8299   YY=            -98.3565   ZZ=           -109.9952
   XY=             -2.8837   XZ=              0.7763   YZ=              0.1067
 Traceless Quadrupole moment (field-independent basis, Debye-Ang):
   XX=            -37.7694   YY=             24.7041   ZZ=             13.0653
   XY=             -2.8837   XZ=              0.7763   YZ=              0.1067
 Octapole moment (field-independent basis, Debye-Ang**2):
  XXX=           -263.9210  YYY=             22.1315  ZZZ=              0.0769  XYY=            -33.5983
  XXY=            105.4579  XXZ=              6.8471  XZZ=            -22.0200  YZZ=              0.0582
  YYZ=             -0.3648  XYZ=              0.5478
 Hexadecapole moment (field-independent basis, Debye-Ang**3):
 XXXX=         -13767.8163 YYYY=           -527.2812 ZZZZ=           -102.8578 XXXY=           -182.0678
 XXXZ=             60.5471 YYYX=            -27.1200 YYYZ=             -0.5299 ZZZX=              0.8190
 ZZZY=              0.0659 XXYY=          -1620.9139 XXZZ=          -1855.1972 YYZZ=           -119.6063
 XXYZ=              3.4192 YYXZ=             -2.5437 ZZXY=             -6.8013
 N-N= 1.316501881411D+03 E-N=-4.584310835065D+03  KE= 8.474910213150D+02
 PrsmSu:  requested number of processors reduced to:  13 ShMem   1 Linda.
 Calling FoFJK, ICntrl=      2127 FMM=F ISym2X=0 I1Cent= 0 IOpClX= 0 NMat=1 NMatS=1 NMatT=0.
 ***** Axes restored to original set *****
 -------------------------------------------------------------------
 Center     Atomic                   Forces (Hartrees/Bohr)
 Number     Number              X              Y              Z
 -------------------------------------------------------------------
      1        8          -0.031451747   -0.002810129   -0.010198232
      2        6          -0.471951501    0.023871507    0.074980796
      3        8           0.088632249    0.034599406    0.101585301
      4        6           0.949193434   -0.221575773   -0.648184614
      5        7           0.245972203    0.058234135    0.167826026
      6        6          -0.958069259    0.068170667    0.198992858
      7        6           0.216008951    0.022866940    0.066279989
      8        6          -0.342433503   -0.000814063    0.000729912
      9        6           0.117368219    0.033161482    0.096327492
     10        6          -0.222471385    0.000489313   -0.001499394
     11        6           0.063344259   -0.018467511   -0.054227012
     12        6           0.504247350   -0.038129190   -0.112308061
     13        6          -0.084665159    0.006151432    0.020451491
     14        6           6.259861903    1.030402951    3.002636340
     15        6          -0.011301643    0.012437045   -0.043786629
     16        6          -6.314100620   -1.040763066   -3.014651018
     17        6           0.331184174   -0.063104132   -0.189134834
     18        7          -0.484881928    0.026845016    0.083199894
     19        6          -0.114585258    0.012565337    0.039109123
     20        1          -0.044055270   -0.020186471   -0.059316251
     21        1          -0.012639009   -0.007165553   -0.021163541
     22        1           0.079727306    0.016834208    0.049191352
     23        1          -0.061235422   -0.001911676   -0.007382619
     24        1           0.081319695    0.060336764    0.176400117
     25        1          -0.043128326   -0.013330713   -0.040153460
     26        1           0.174287416    0.072241792    0.211712269
     27        1          -0.039177406   -0.055667799   -0.163692352
     28        1           0.077762087    0.019767626    0.052830932
     29        1          -0.026193480    0.004955702    0.009675072
     30        1           0.010107688   -0.018414074   -0.004706363
     31        1           0.063323983   -0.001591174    0.018475417
 -------------------------------------------------------------------
 Cartesian Forces:  Max     6.314100620 RMS     1.052914386

 GradGradGradGradGradGradGradGradGradGradGradGradGradGradGradGradGradGrad
 Berny optimization.
 FormGI is forming the generalized inverse of G from B-inverse, IUseBI=4.
 Internal  Forces:  Max     6.426926111 RMS     0.485085587
 Search for a local minimum.
 Step number   1 out of a maximum of  186
 All quantities printed in internal units (Hartrees-Bohrs-Radians)
 Mixed Optimization -- RFO/linear search
 Second derivative matrix not updated -- first step.
 ITU=  0
     Eigenvalues ---    0.00230   0.00230   0.00230   0.00358   0.00592
     Eigenvalues ---    0.00608   0.00777   0.00817   0.00857   0.01018
     Eigenvalues ---    0.01144   0.01458   0.01522   0.01616   0.01683
     Eigenvalues ---    0.01756   0.02330   0.02502   0.02856   0.03098
     Eigenvalues ---    0.03445   0.03974   0.04163   0.04648   0.05073
     Eigenvalues ---    0.05217   0.05999   0.06734   0.09150   0.10787
     Eigenvalues ---    0.11742   0.13191   0.13616   0.14626   0.14883
     Eigenvalues ---    0.15438   0.16000   0.16000   0.16000   0.16000
     Eigenvalues ---    0.16000   0.16000   0.16000   0.16000   0.16000
     Eigenvalues ---    0.16105   0.16120   0.17936   0.18109   0.19017
     Eigenvalues ---    0.19098   0.20651   0.21323   0.21807   0.22000
     Eigenvalues ---    0.22750   0.22800   0.24244   0.24512   0.25000
     Eigenvalues ---    0.25000   0.25000   0.27174   0.28301   0.28319
     Eigenvalues ---    0.30682   0.34430   0.35654   0.40171   0.43579
     Eigenvalues ---    0.44496   0.44640   0.49617   0.51249   0.51926
     Eigenvalues ---    0.52196   0.54724   0.66321   0.68766   0.78806
     Eigenvalues ---    0.80834   0.93227   1.11756   1.44903   1.59943
     Eigenvalues ---    3.01299  15.77566
 RFO step:  Lambda=-2.89506511D+00 EMin= 2.30000000D-03
 Linear search not attempted -- first point.
 Maximum step size (   0.300) exceeded in Quadratic search.
    -- Step size scaled by   0.614
 Iteration  1 RMS(Cart)=  0.03502362 RMS(Int)=  0.00091177
 Iteration  2 RMS(Cart)=  0.00082269 RMS(Int)=  0.00004159
 Iteration  3 RMS(Cart)=  0.00000389 RMS(Int)=  0.00004142
 Iteration  4 RMS(Cart)=  0.00000000 RMS(Int)=  0.00004142
 Variable       Old X    -DE/DX   Delta X   Delta X   Delta X     New X
                                 (Linear)    (Quad)   (Total)
    R1        3.21529   0.00150   0.00000   0.00030   0.00030   3.21559
    R2        2.57970   0.06129   0.00000   0.01103   0.01103   2.59073
    R3        2.04004   0.33418   0.00000   0.04474   0.04479   2.08483
    R4        3.15961   0.13960   0.00000   0.02557   0.02551   3.18513
    R5        2.38454  -0.06798   0.00000  -0.01346  -0.01346   2.37107
    R6        1.86960   0.88971   0.00000   0.09217   0.09224   1.96183
    R7        3.12685   0.12904   0.00000   0.02173   0.02166   3.14851
    R8        2.91486  -0.00148   0.00000  -0.00029  -0.00029   2.91457
    R9        2.63220  -0.01771   0.00000  -0.00358  -0.00358   2.62862
   R10        2.37694   0.07091   0.00000   0.01985   0.01993   2.39686
   R11        2.27103   0.18682   0.00000   0.02815   0.02815   2.29919
   R12        3.37650   0.23920   0.00000   0.03604   0.03603   3.41253
   R13        2.06610   0.01685   0.00000   0.00320   0.00320   2.06929
   R14        1.92565   0.07167   0.00000   0.01318   0.01318   1.93883
   R15        2.19140   0.28947   0.00000   0.04466   0.04470   2.23610
   R16        3.33907   0.06183   0.00000   0.01120   0.01113   3.35020
   R17        2.48586   0.17029   0.00000   0.03123   0.03131   2.51717
   R18        1.72963   0.19695   0.00000   0.03400   0.03400   1.76363
   R19        2.25153   0.31200   0.00000   0.05048   0.05048   2.30200
   R20        2.84776   0.11863   0.00000   0.02315   0.02318   2.87094
   R21        2.77702   0.09106   0.00000   0.01599   0.01595   2.79297
   R22        2.37489   0.19793   0.00000   0.03332   0.03333   2.40822
   R23        1.64169   0.27965   0.00000   0.04638   0.04638   1.68807
   R24        2.71322  -0.03311   0.00000  -0.00617  -0.00617   2.70705
   R25        2.54993   0.11877   0.00000   0.01989   0.01967   2.56959
   R26        2.87553   0.30855   0.00000   0.05359   0.05373   2.92926
   R27        3.17119   0.02677   0.00000   0.00533   0.00533   3.17652
   R28        1.85326   0.09540   0.00000   0.01720   0.01720   1.87046
   R29        2.63638  -0.51456   0.00000  -0.00976  -0.00971   2.62667
   R30        1.22868   6.42693   0.00000   0.21144   0.21148   1.44017
   R31        2.04627  -0.00087   0.00000  -0.00016  -0.00016   2.04610
   R32        2.84448   0.44379   0.00000   0.00850   0.00849   2.85297
   R33        2.59466  -0.25052   0.00000  -0.00867  -0.00869   2.58598
   R34        2.08397   0.44964   0.00000   0.06333   0.06342   2.14738
   R35        1.84412   0.12815   0.00000   0.02304   0.02304   1.86716
   R36        3.10758   0.12125   0.00000   0.02203   0.02201   3.12959
   R37        2.14939   0.03786   0.00000   0.00767   0.00767   2.15706
   R38        2.15465   0.04337   0.00000   0.00901   0.00900   2.16364
   R39        2.51396   0.63119   0.00000   0.02582   0.02577   2.53973
    A1        1.43464   0.04546   0.00000   0.00888   0.00888   1.44352
    A2        2.50933   0.04327   0.00000   0.00698   0.00700   2.51633
    A3        2.73110  -0.08413   0.00000  -0.01692  -0.01692   2.71419
    A4        2.66574  -0.13747   0.00000  -0.01954  -0.01952   2.64622
    A5        2.47602   0.03874   0.00000  -0.00010  -0.00012   2.47590
    A6        1.25574  -0.00313   0.00000  -0.00811  -0.00813   1.24761
    A7        2.39716   0.09560   0.00000   0.01153   0.01151   2.40867
    A8        1.14142   0.09873   0.00000   0.01965   0.01965   1.16107
    A9        2.59143  -0.00470   0.00000   0.00083   0.00086   2.59229
   A10        1.43810   0.11110   0.00000   0.01341   0.01333   1.45143
   A11        1.24210  -0.04221   0.00000  -0.00452  -0.00449   1.23761
   A12        1.88968  -0.10713   0.00000  -0.01105  -0.01096   1.87871
   A13        2.44966   0.04691   0.00000   0.00369   0.00363   2.45329
   A14        1.94385   0.06023   0.00000   0.00736   0.00733   1.95118
   A15        2.68020   0.06890   0.00000   0.00889   0.00884   2.68904
   A16        1.35773   0.20779   0.00000   0.02166   0.02159   1.37931
   A17        1.72883  -0.01494   0.00000   0.00203   0.00203   1.73086
   A18        2.50830  -0.05730   0.00000  -0.00031  -0.00025   2.50805
   A19        1.92988  -0.01581   0.00000  -0.00372  -0.00371   1.92617
   A20        1.44211   0.00254   0.00000   0.00163   0.00160   1.44371
   A21        1.91494  -0.08052   0.00000  -0.01339  -0.01332   1.90162
   A22        1.94531   0.08421   0.00000   0.01553   0.01549   1.96080
   A23        2.42294  -0.00369   0.00000  -0.00214  -0.00218   2.42076
   A24        1.94170   0.02555   0.00000   0.00521   0.00519   1.94690
   A25        2.75443   0.00683   0.00000   0.00029   0.00031   2.75474
   A26        1.58400   0.00469   0.00000   0.00016   0.00019   1.58418
   A27        1.58705  -0.03238   0.00000  -0.00550  -0.00550   1.58155
   A28        2.75748  -0.03024   0.00000  -0.00538  -0.00538   2.75210
   A29        1.79503   0.02565   0.00000   0.00565   0.00567   1.80070
   A30        2.58831  -0.05144   0.00000  -0.01059  -0.01060   2.57771
   A31        1.89984   0.02580   0.00000   0.00494   0.00493   1.90477
   A32        2.18093  -0.01888   0.00000  -0.00211  -0.00213   2.17880
   A33        2.31238   0.03971   0.00000   0.00129   0.00123   2.31362
   A34        1.53262  -0.06684   0.00000  -0.01131  -0.01121   1.52141
   A35        1.78988  -0.02083   0.00000   0.00082   0.00089   1.79077
[...]
 Iteration 42 RMS(Cart)=  0.00073823 RMS(Int)=  0.27096617
 Iteration 43 RMS(Cart)=  0.00070833 RMS(Int)=  0.16336297
 Iteration 44 RMS(Cart)=  0.00075752 RMS(Int)=  0.28112498
 Iteration 45 RMS(Cart)=  0.00067727 RMS(Int)=  0.12830816
 Iteration 46 RMS(Cart)=  0.00112372 RMS(Int)=  0.31664185
 Iteration 47 RMS(Cart)=  0.00058274 RMS(Int)=  0.31272198
 Iteration 48 RMS(Cart)=  0.00056465 RMS(Int)=  0.11927354
 Iteration 49 RMS(Cart)=  0.00125170 RMS(Int)=  0.32579049
 Iteration 50 RMS(Cart)=  0.00055366 RMS(Int)=  0.32237613
 Iteration 51 RMS(Cart)=  0.00053683 RMS(Int)=  0.30897637
 Iteration 52 RMS(Cart)=  0.00055519 RMS(Int)=  0.13563240
 Iteration 53 RMS(Cart)=  0.00221841 RMS(Int)=  0.30869479
 Iteration 54 RMS(Cart)=  0.00065159 RMS(Int)=  0.30579563
 Iteration 55 RMS(Cart)=  0.00062432 RMS(Int)=  0.30154057
 Iteration 56 RMS(Cart)=  0.00060267 RMS(Int)=  0.13753927
 Iteration 57 RMS(Cart)=  0.00100948 RMS(Int)=  0.30717692
 Iteration 58 RMS(Cart)=  0.00060693 RMS(Int)=  0.30108262
 Iteration 59 RMS(Cart)=  0.00059216 RMS(Int)=  0.14239789
 Iteration 60 RMS(Cart)=  0.00204190 RMS(Int)=  0.30199295
 Iteration 61 RMS(Cart)=  0.00067410 RMS(Int)=  0.29899184
 Iteration 62 RMS(Cart)=  0.00064471 RMS(Int)=  0.29412562
 Iteration 63 RMS(Cart)=  0.00062236 RMS(Int)=  0.14782238
 Iteration 64 RMS(Cart)=  0.00191277 RMS(Int)=  0.29661630
 Iteration 65 RMS(Cart)=  0.00069046 RMS(Int)=  0.29352451
 Iteration 66 RMS(Cart)=  0.00066017 RMS(Int)=  0.28794641
 Iteration 67 RMS(Cart)=  0.00063846 RMS(Int)=  0.15500075
 Iteration 68 RMS(Cart)=  0.00176701 RMS(Int)=  0.28923108
 Iteration 69 RMS(Cart)=  0.00070221 RMS(Int)=  0.28570338
 Iteration 70 RMS(Cart)=  0.00067159 RMS(Int)=  0.26627101
 Iteration 71 RMS(Cart)=  0.00069637 RMS(Int)=  0.17809916
 Iteration 72 RMS(Cart)=  0.00139824 RMS(Int)=  0.26488249
 Iteration 73 RMS(Cart)=  0.00074345 RMS(Int)=  0.21147633
 Iteration 74 RMS(Cart)=  0.00047078 RMS(Int)=  0.23294368
 Iteration 75 RMS(Cart)=  0.00089254 RMS(Int)=  0.20966312
 Iteration 76 RMS(Cart)=  0.00102184 RMS(Int)=  0.23333598
 Iteration 77 RMS(Cart)=  0.00089784 RMS(Int)=  0.20781007
 Iteration 78 RMS(Cart)=  0.00103038 RMS(Int)=  0.23578865
 Iteration 79 RMS(Cart)=  0.00089260 RMS(Int)=  0.20152664
 Iteration 80 RMS(Cart)=  0.00107902 RMS(Int)=  0.24254340
 Iteration 81 RMS(Cart)=  0.00087051 RMS(Int)=  0.18361620
 Iteration 82 RMS(Cart)=  0.00061344 RMS(Int)=  0.26087329
 Iteration 83 RMS(Cart)=  0.00074768 RMS(Int)=  0.17705111
 Iteration 84 RMS(Cart)=  0.00138675 RMS(Int)=  0.26722286
 Iteration 85 RMS(Cart)=  0.00076309 RMS(Int)=  0.26241018
 Iteration 86 RMS(Cart)=  0.00073382 RMS(Int)=  0.17903141
 Iteration 87 RMS(Cart)=  0.00136521 RMS(Int)=  0.26501631
 Iteration 88 RMS(Cart)=  0.00076350 RMS(Int)=  0.25900755
 Iteration 89 RMS(Cart)=  0.00073817 RMS(Int)=  0.18404435
 Iteration 90 RMS(Cart)=  0.00130693 RMS(Int)=  0.25959940
 Iteration 91 RMS(Cart)=  0.00077161 RMS(Int)=  0.24684198
 Iteration 92 RMS(Cart)=  0.00077746 RMS(Int)=  0.19728483
 Iteration 93 RMS(Cart)=  0.00117107 RMS(Int)=  0.24484122
 Iteration 94 RMS(Cart)=  0.00080991 RMS(Int)=  0.19632074
 Iteration 95 RMS(Cart)=  0.00116075 RMS(Int)=  0.24752099
 Iteration 96 RMS(Cart)=  0.00081893 RMS(Int)=  0.21842624
 Iteration 97 RMS(Cart)=  0.00044755 RMS(Int)=  0.22591840
 Iteration 98 RMS(Cart)=  0.00092941 RMS(Int)=  0.21716605
 Iteration 99 RMS(Cart)=  0.00096968 RMS(Int)=  0.22497834
 Iteration100 RMS(Cart)=  0.00093750 RMS(Int)=  0.21786874
 New curvilinear step not converged.
 ITry= 1 IFail=1 DXMaxC= 3.99D-01 DCOld= 1.00D+10 DXMaxT= 8.49D-01 DXLimC= 3.00D+00 Rises=F
 SLEqS3 Cycle:   931 Max:0.368696E-04 RMS:0.553571E-05 Conv:0.936623E-06
 SLEqS3 Cycle:   931 Max:0.368696E-04 RMS:0.553571E-05 Conv:0.936623E-06
 Iteration  1 RMS(Cart)=  0.01516002 RMS(Int)=  0.44457305
 Iteration  2 RMS(Cart)=  0.04501935 RMS(Int)=  0.40892659
 Iteration  3 RMS(Cart)=  0.00151260 RMS(Int)=  0.40645248
 Iteration  4 RMS(Cart)=  0.00131762 RMS(Int)=  0.40410582
 Iteration  5 RMS(Cart)=  0.00117642 RMS(Int)=  0.40182856
 Iteration  6 RMS(Cart)=  0.00106325 RMS(Int)=  0.39958802
 Iteration  7 RMS(Cart)=  0.00097115 RMS(Int)=  0.39736005
 Iteration  8 RMS(Cart)=  0.00089347 RMS(Int)=  0.39512346
 Iteration  9 RMS(Cart)=  0.00082512 RMS(Int)=  0.39285354
 Iteration 10 RMS(Cart)=  0.00076495 RMS(Int)=  0.39051427
 Iteration 11 RMS(Cart)=  0.00071152 RMS(Int)=  0.38803904
 Iteration 12 RMS(Cart)=  0.00066383 RMS(Int)=  0.38526344
 Iteration 13 RMS(Cart)=  0.00062133 RMS(Int)=  0.38149080
 Iteration 14 RMS(Cart)=  0.00058564 RMS(Int)=  0.04895926
 Iteration 15 RMS(Cart)=  0.00287391 RMS(Int)=  0.39865957
 Iteration 16 RMS(Cart)=  0.00056518 RMS(Int)=  0.39642714
 Iteration 17 RMS(Cart)=  0.00052850 RMS(Int)=  0.39415424
 Iteration 18 RMS(Cart)=  0.00049683 RMS(Int)=  0.39180176
 Iteration 19 RMS(Cart)=  0.00046897 RMS(Int)=  0.38929429
 Iteration 20 RMS(Cart)=  0.00044471 RMS(Int)=  0.38643368
 Iteration 21 RMS(Cart)=  0.00042397 RMS(Int)=  0.38224473
 Iteration 22 RMS(Cart)=  0.00040891 RMS(Int)=  0.05891525
 Iteration 23 RMS(Cart)=  0.00254694 RMS(Int)=  0.38756176
 Iteration 24 RMS(Cart)=  0.00044839 RMS(Int)=  0.38526767
 Iteration 25 RMS(Cart)=  0.00043003 RMS(Int)=  0.38287483
 Iteration 26 RMS(Cart)=  0.00041384 RMS(Int)=  0.38028541
 Iteration 27 RMS(Cart)=  0.00040003 RMS(Int)=  0.37720549
 Iteration 28 RMS(Cart)=  0.00038907 RMS(Int)=  0.37139807
 Iteration 29 RMS(Cart)=  0.00038873 RMS(Int)=  0.07290988
 Iteration 30 RMS(Cart)=  0.00216780 RMS(Int)=  0.37267307
 Iteration 31 RMS(Cart)=  0.00045962 RMS(Int)=  0.37018802
 Iteration 32 RMS(Cart)=  0.00044481 RMS(Int)=  0.36739647
 Iteration 33 RMS(Cart)=  0.00043129 RMS(Int)=  0.36360549
 Iteration 34 RMS(Cart)=  0.00042292 RMS(Int)=  0.06052494
 Iteration 35 RMS(Cart)=  0.00245362 RMS(Int)=  0.38576802
 Iteration 36 RMS(Cart)=  0.00042877 RMS(Int)=  0.38346920
 Iteration 37 RMS(Cart)=  0.00041595 RMS(Int)=  0.38106646
 Iteration 38 RMS(Cart)=  0.00040515 RMS(Int)=  0.37845485
 Iteration 39 RMS(Cart)=  0.00039529 RMS(Int)=  0.37530958
 Iteration 40 RMS(Cart)=  0.00038718 RMS(Int)=  0.36875870
 Iteration 41 RMS(Cart)=  0.00039366 RMS(Int)=  0.07576129
 Iteration 42 RMS(Cart)=  0.00207157 RMS(Int)=  0.36965068
 Iteration 43 RMS(Cart)=  0.00047670 RMS(Int)=  0.36710273
 Iteration 44 RMS(Cart)=  0.00046206 RMS(Int)=  0.36414967
 Iteration 45 RMS(Cart)=  0.00044846 RMS(Int)=  0.35949906
 Iteration 46 RMS(Cart)=  0.00044247 RMS(Int)=  0.08262370
 Iteration 47 RMS(Cart)=  0.00190788 RMS(Int)=  0.36258515
 Iteration 48 RMS(Cart)=  0.00050991 RMS(Int)=  0.35995017
 Iteration 49 RMS(Cart)=  0.00049209 RMS(Int)=  0.35675373
 Iteration 50 RMS(Cart)=  0.00047730 RMS(Int)=  0.34968360
 Iteration 51 RMS(Cart)=  0.00047684 RMS(Int)=  0.09440130
 Iteration 52 RMS(Cart)=  0.00166278 RMS(Int)=  0.35035586
 Iteration 53 RMS(Cart)=  0.00054037 RMS(Int)=  0.34722227
 Iteration 54 RMS(Cart)=  0.00052124 RMS(Int)=  0.34107579
 Iteration 55 RMS(Cart)=  0.00051301 RMS(Int)=  0.10245808
 Iteration 56 RMS(Cart)=  0.00150785 RMS(Int)=  0.34211647
 Iteration 57 RMS(Cart)=  0.00056631 RMS(Int)=  0.33859502
 Iteration 58 RMS(Cart)=  0.00054545 RMS(Int)=  0.31742688
 Iteration 59 RMS(Cart)=  0.00057704 RMS(Int)=  0.12687237
 Iteration 60 RMS(Cart)=  0.00242934 RMS(Int)=  0.31697453
 Iteration 61 RMS(Cart)=  0.00068651 RMS(Int)=  0.31408815
 Iteration 62 RMS(Cart)=  0.00065561 RMS(Int)=  0.30995076
 Iteration 63 RMS(Cart)=  0.00062725 RMS(Int)=  0.12681040
 Iteration 64 RMS(Cart)=  0.00112727 RMS(Int)=  0.31751312
 Iteration 65 RMS(Cart)=  0.00063628 RMS(Int)=  0.31244243
 Iteration 66 RMS(Cart)=  0.00061250 RMS(Int)=  0.12955294
 Iteration 67 RMS(Cart)=  0.00233461 RMS(Int)=  0.31455871
 Iteration 68 RMS(Cart)=  0.00071081 RMS(Int)=  0.31177760
 Iteration 69 RMS(Cart)=  0.00067528 RMS(Int)=  0.30811832
 Iteration 70 RMS(Cart)=  0.00064329 RMS(Int)=  0.23885913
 Iteration 71 RMS(Cart)=  0.00039709 RMS(Int)=  0.20512627
 Iteration 72 RMS(Cart)=  0.00108538 RMS(Int)=  0.23784147
 Iteration 73 RMS(Cart)=  0.00086856 RMS(Int)=  0.19837879
 Iteration 74 RMS(Cart)=  0.00113418 RMS(Int)=  0.24528657
 Iteration 75 RMS(Cart)=  0.00085107 RMS(Int)=  0.22977090
 Iteration 76 RMS(Cart)=  0.00087591 RMS(Int)=  0.21394048
 Iteration 77 RMS(Cart)=  0.00103699 RMS(Int)=  0.22483372
 Iteration 78 RMS(Cart)=  0.00091379 RMS(Int)=  0.21835750
 Iteration 79 RMS(Cart)=  0.00099905 RMS(Int)=  0.22228689
 Iteration 80 RMS(Cart)=  0.00093441 RMS(Int)=  0.22054090
 Iteration 81 RMS(Cart)=  0.00098092 RMS(Int)=  0.22078390
 Iteration 82 RMS(Cart)=  0.00094669 RMS(Int)=  0.22181116
 Iteration 83 RMS(Cart)=  0.00097081 RMS(Int)=  0.21981312
 Iteration 84 RMS(Cart)=  0.00095442 RMS(Int)=  0.22265238
 Iteration 85 RMS(Cart)=  0.00096456 RMS(Int)=  0.21909794
 Iteration 86 RMS(Cart)=  0.00095975 RMS(Int)=  0.22331588
 Iteration 87 RMS(Cart)=  0.00096014 RMS(Int)=  0.21845927
 Iteration 88 RMS(Cart)=  0.00096406 RMS(Int)=  0.22396311
 Iteration 89 RMS(Cart)=  0.00095639 RMS(Int)=  0.21775877
 Iteration 90 RMS(Cart)=  0.00096839 RMS(Int)=  0.22472321
 Iteration 91 RMS(Cart)=  0.00095249 RMS(Int)=  0.21686194
 Iteration 92 RMS(Cart)=  0.00097366 RMS(Int)=  0.22572814
 Iteration 93 RMS(Cart)=  0.00094777 RMS(Int)=  0.21560107
 Iteration 94 RMS(Cart)=  0.00098103 RMS(Int)=  0.22714718
 Iteration 95 RMS(Cart)=  0.00094152 RMS(Int)=  0.21371213
 Iteration 96 RMS(Cart)=  0.00099242 RMS(Int)=  0.22924718
 Iteration 97 RMS(Cart)=  0.00093280 RMS(Int)=  0.21065582
 Iteration 98 RMS(Cart)=  0.00101209 RMS(Int)=  0.23256936
 Iteration 99 RMS(Cart)=  0.00091990 RMS(Int)=  0.20472065
 Iteration100 RMS(Cart)=  0.00105540 RMS(Int)=  0.23882721
 New curvilinear step not converged.
 ITry= 2 IFail=1 DXMaxC= 3.59D-01 DCOld= 1.00D+10 DXMaxT= 8.49D-01 DXLimC= 3.00D+00 Rises=F
 SLEqS3 Cycle:   931 Max:0.235779E-04 RMS:0.438144E-05 Conv:0.833504E-06
 SLEqS3 Cycle:   931 Max:0.235779E-04 RMS:0.438144E-05 Conv:0.833504E-06
 Iteration  1 RMS(Cart)=  0.01395289 RMS(Int)=  0.44403483
 Iteration  2 RMS(Cart)=  0.00500244 RMS(Int)=  0.44088034
 Iteration  3 RMS(Cart)=  0.00412265 RMS(Int)=  0.43806700
 Iteration  4 RMS(Cart)=  0.00357945 RMS(Int)=  0.43541940
 Iteration  5 RMS(Cart)=  0.00318270 RMS(Int)=  0.43286001
 Iteration  6 RMS(Cart)=  0.00286807 RMS(Int)=  0.43033915
 Iteration  7 RMS(Cart)=  0.00261411 RMS(Int)=  0.42782655
 Iteration  8 RMS(Cart)=  0.00239396 RMS(Int)=  0.42528541
 Iteration  9 RMS(Cart)=  0.00220015 RMS(Int)=  0.42265532
 Iteration 10 RMS(Cart)=  0.00202753 RMS(Int)=  0.41980607
 Iteration 11 RMS(Cart)=  0.00187329 RMS(Int)=  0.41628890
 Iteration 12 RMS(Cart)=  0.00173413 RMS(Int)=  0.40342721
 New curvilinear step failed, DQL= 6.25D+00 SP=-8.31D-01.
 ITry= 3 IFail=1 DXMaxC= 1.93D-01 DCOld= 1.00D+10 DXMaxT= 8.49D-01 DXLimC= 3.00D+00 Rises=F
 SLEqS3 Cycle:   931 Max:0.224463E-04 RMS:0.409676E-05 Conv:0.728428E-06
 SLEqS3 Cycle:   931 Max:0.224463E-04 RMS:0.409676E-05 Conv:0.728428E-06
 Iteration  1 RMS(Cart)=  0.01221767 RMS(Int)=  0.44356270
 Iteration  2 RMS(Cart)=  0.00385175 RMS(Int)=  0.44082936
 Iteration  3 RMS(Cart)=  0.00342538 RMS(Int)=  0.43820798
 Iteration  4 RMS(Cart)=  0.00307793 RMS(Int)=  0.43566269
 Iteration  5 RMS(Cart)=  0.00278711 RMS(Int)=  0.43316504
 Iteration  6 RMS(Cart)=  0.00253849 RMS(Int)=  0.43068862
 Iteration  7 RMS(Cart)=  0.00232266 RMS(Int)=  0.42820389
 Iteration  8 RMS(Cart)=  0.00213301 RMS(Int)=  0.42566976
 Iteration  9 RMS(Cart)=  0.00196468 RMS(Int)=  0.42301281
 Iteration 10 RMS(Cart)=  0.00181434 RMS(Int)=  0.42005310
 Iteration 11 RMS(Cart)=  0.00167973 RMS(Int)=  0.41599626
 New curvilinear step failed, DQL= 6.28D+00 SP=-8.41D-01.
 ITry= 4 IFail=1 DXMaxC= 1.59D-01 DCOld= 1.00D+10 DXMaxT= 8.49D-01 DXLimC= 3.00D+00 Rises=F
 SLEqS3 Cycle:   931 Max:0.110330E-04 RMS:0.189165E-05 Conv:0.623353E-06
 SLEqS3 Cycle:   931 Max:0.110330E-04 RMS:0.189165E-05 Conv:0.623353E-06
 Iteration  1 RMS(Cart)=  0.01048668 RMS(Int)=  0.44315593
 Iteration  2 RMS(Cart)=  0.00321821 RMS(Int)=  0.44056311
 Iteration  3 RMS(Cart)=  0.00288961 RMS(Int)=  0.43804882
 Iteration  4 RMS(Cart)=  0.00261494 RMS(Int)=  0.43558669
 Iteration  5 RMS(Cart)=  0.00238077 RMS(Int)=  0.43315382
 Iteration  6 RMS(Cart)=  0.00217738 RMS(Int)=  0.43072693
 Iteration  7 RMS(Cart)=  0.00199891 RMS(Int)=  0.42827764
 Iteration  8 RMS(Cart)=  0.00184051 RMS(Int)=  0.42576332
 Iteration  9 RMS(Cart)=  0.00169915 RMS(Int)=  0.42310212
 Iteration 10 RMS(Cart)=  0.00157186 RMS(Int)=  0.42007764
 Iteration 11 RMS(Cart)=  0.00145655 RMS(Int)=  0.41554850
 New curvilinear step failed, DQL= 6.28D+00 SP=-8.74D-01.
 ITry= 5 IFail=1 DXMaxC= 1.35D-01 DCOld= 1.00D+10 DXMaxT= 8.49D-01 DXLimC= 3.00D+00 Rises=F
 SLEqS3 Cycle:   931 Max:0.189378E-04 RMS:0.343095E-05 Conv:0.518277E-06
 SLEqS3 Cycle:   931 Max:0.189378E-04 RMS:0.343095E-05 Conv:0.518277E-06
 Iteration  1 RMS(Cart)=  0.00875995 RMS(Int)=  0.44281333
 Iteration  2 RMS(Cart)=  0.00263542 RMS(Int)=  0.44033717
 Iteration  3 RMS(Cart)=  0.00238621 RMS(Int)=  0.43791227
 Iteration  4 RMS(Cart)=  0.00217331 RMS(Int)=  0.43551852
 Iteration  5 RMS(Cart)=  0.00198834 RMS(Int)=  0.43313646
 Iteration  6 RMS(Cart)=  0.00182580 RMS(Int)=  0.43074406
 Iteration  7 RMS(Cart)=  0.00168149 RMS(Int)=  0.42831126
 Iteration  8 RMS(Cart)=  0.00155230 RMS(Int)=  0.42578818
 Iteration  9 RMS(Cart)=  0.00143580 RMS(Int)=  0.42307010
 Iteration 10 RMS(Cart)=  0.00133103 RMS(Int)=  0.41982862
 Iteration 11 RMS(Cart)=  0.00123538 RMS(Int)=  0.41312941
 New curvilinear step failed, DQL= 6.27D+00 SP=-9.06D-01.
 ITry= 6 IFail=1 DXMaxC= 1.12D-01 DCOld= 1.00D+10 DXMaxT= 8.49D-01 DXLimC= 3.00D+00 Rises=F
 SLEqS3 Cycle:   931 Max:0.181043E-04 RMS:0.318375E-05 Conv:0.413202E-06
 SLEqS3 Cycle:   931 Max:0.181043E-04 RMS:0.318375E-05 Conv:0.413202E-06
 Iteration  1 RMS(Cart)=  0.00704421 RMS(Int)=  0.44253623
 Iteration  2 RMS(Cart)=  0.00210083 RMS(Int)=  0.44015306
 Iteration  3 RMS(Cart)=  0.00191384 RMS(Int)=  0.43779752
 Iteration  4 RMS(Cart)=  0.00175448 RMS(Int)=  0.43545275
 Iteration  5 RMS(Cart)=  0.00161273 RMS(Int)=  0.43310014
 Iteration  6 RMS(Cart)=  0.00148634 RMS(Int)=  0.43071510
 Iteration  7 RMS(Cart)=  0.00137348 RMS(Int)=  0.42825901
 Iteration  8 RMS(Cart)=  0.00127095 RMS(Int)=  0.42565743
 Iteration  9 RMS(Cart)=  0.00117820 RMS(Int)=  0.42271692
 Iteration 10 RMS(Cart)=  0.00109283 RMS(Int)=  0.41851359
 Iteration 11 RMS(Cart)=  0.00101662 RMS(Int)=  0.02207366
 Iteration 12 RMS(Cart)=  0.00110131 RMS(Int)=  0.42477898
 Iteration 13 RMS(Cart)=  0.00094215 RMS(Int)=  0.42212301
 Iteration 14 RMS(Cart)=  0.00087480 RMS(Int)=  0.41899459
 Iteration 15 RMS(Cart)=  0.00081354 RMS(Int)=  0.41338844
 Iteration 16 RMS(Cart)=  0.00075743 RMS(Int)=  0.02966875
 Iteration 17 RMS(Cart)=  0.00157181 RMS(Int)=  0.41492852
 Iteration 18 RMS(Cart)=  0.00070824 RMS(Int)=  0.41249289
 Iteration 19 RMS(Cart)=  0.00065786 RMS(Int)=  0.40987594
 Iteration 20 RMS(Cart)=  0.00061116 RMS(Int)=  0.40682562
 Iteration 21 RMS(Cart)=  0.00056972 RMS(Int)=  0.40179190
 Iteration 22 RMS(Cart)=  0.00053127 RMS(Int)=  0.03943222
 Iteration 23 RMS(Cart)=  0.00146430 RMS(Int)=  0.40411769
 Iteration 24 RMS(Cart)=  0.00051539 RMS(Int)=  0.40164613
 Iteration 25 RMS(Cart)=  0.00047956 RMS(Int)=  0.39894471
 Iteration 26 RMS(Cart)=  0.00044655 RMS(Int)=  0.39563205
 Iteration 27 RMS(Cart)=  0.00041673 RMS(Int)=  0.38729378
 Iteration 28 RMS(Cart)=  0.00039169 RMS(Int)=  0.05511396
 Iteration 29 RMS(Cart)=  0.00258592 RMS(Int)=  0.38778584
 Iteration 30 RMS(Cart)=  0.00046310 RMS(Int)=  0.38550282
 Iteration 31 RMS(Cart)=  0.00042915 RMS(Int)=  0.38315978
 Iteration 32 RMS(Cart)=  0.00039905 RMS(Int)=  0.38070986
 Iteration 33 RMS(Cart)=  0.00037118 RMS(Int)=  0.37805215
 Iteration 34 RMS(Cart)=  0.00034565 RMS(Int)=  0.37487512
 Iteration 35 RMS(Cart)=  0.00032309 RMS(Int)=  0.36867837
 Iteration 36 RMS(Cart)=  0.00030523 RMS(Int)=  0.07279184
 Iteration 37 RMS(Cart)=  0.00213493 RMS(Int)=  0.36981422
 Iteration 38 RMS(Cart)=  0.00040943 RMS(Int)=  0.36745864
 Iteration 39 RMS(Cart)=  0.00037980 RMS(Int)=  0.36498603
 Iteration 40 RMS(Cart)=  0.00035348 RMS(Int)=  0.36227988
 Iteration 41 RMS(Cart)=  0.00032859 RMS(Int)=  0.35895529
 Iteration 42 RMS(Cart)=  0.00030707 RMS(Int)=  0.35054176
 Iteration 43 RMS(Cart)=  0.00029265 RMS(Int)=  0.09141999
 Iteration 44 RMS(Cart)=  0.00173211 RMS(Int)=  0.35093617
 Iteration 45 RMS(Cart)=  0.00039059 RMS(Int)=  0.34842472
 Iteration 46 RMS(Cart)=  0.00036247 RMS(Int)=  0.34563326
 Iteration 47 RMS(Cart)=  0.00033705 RMS(Int)=  0.34200941
 Iteration 48 RMS(Cart)=  0.00031475 RMS(Int)=  0.31099138
 Iteration 49 RMS(Cart)=  0.00032076 RMS(Int)=  0.13142708
 Iteration 50 RMS(Cart)=  0.00110679 RMS(Int)=  0.31033170
 Iteration 51 RMS(Cart)=  0.00037620 RMS(Int)=  0.30674219
 Iteration 52 RMS(Cart)=  0.00035054 RMS(Int)=  0.28394800
 Iteration 53 RMS(Cart)=  0.00034659 RMS(Int)=  0.15836713
 Iteration 54 RMS(Cart)=  0.00082728 RMS(Int)=  0.28287943
 Iteration 55 RMS(Cart)=  0.00038145 RMS(Int)=  0.27442872
 Iteration 56 RMS(Cart)=  0.00036259 RMS(Int)=  0.16732402
 Iteration 57 RMS(Cart)=  0.00074999 RMS(Int)=  0.27410753
 Iteration 58 RMS(Cart)=  0.00039033 RMS(Int)=  0.26376713
 Iteration 59 RMS(Cart)=  0.00037445 RMS(Int)=  0.17818334
 Iteration 60 RMS(Cart)=  0.00067621 RMS(Int)=  0.26280610
 Iteration 61 RMS(Cart)=  0.00039698 RMS(Int)=  0.15247369
 Iteration 62 RMS(Cart)=  0.00041503 RMS(Int)=  0.28994290
 Iteration 63 RMS(Cart)=  0.00036771 RMS(Int)=  0.23808119
 Iteration 64 RMS(Cart)=  0.00041411 RMS(Int)=  0.20429984
 Iteration 65 RMS(Cart)=  0.00055001 RMS(Int)=  0.23308942
 Iteration 66 RMS(Cart)=  0.00043472 RMS(Int)=  0.20842390
 Iteration 67 RMS(Cart)=  0.00052596 RMS(Int)=  0.23176568
 Iteration 68 RMS(Cart)=  0.00044353 RMS(Int)=  0.20859244
 Iteration 69 RMS(Cart)=  0.00051963 RMS(Int)=  0.23261426
 Iteration 70 RMS(Cart)=  0.00044663 RMS(Int)=  0.20563176
 Iteration 71 RMS(Cart)=  0.00052563 RMS(Int)=  0.23615710
 Iteration 72 RMS(Cart)=  0.00044413 RMS(Int)=  0.19345381
 Iteration 73 RMS(Cart)=  0.00057326 RMS(Int)=  0.24877693
 Iteration 74 RMS(Cart)=  0.00042935 RMS(Int)=  0.23792578
 Iteration 75 RMS(Cart)=  0.00041898 RMS(Int)=  0.20404381
 Iteration 76 RMS(Cart)=  0.00054467 RMS(Int)=  0.23547439
 Iteration 77 RMS(Cart)=  0.00043307 RMS(Int)=  0.20524519
 Iteration 78 RMS(Cart)=  0.00053245 RMS(Int)=  0.23585692
 Iteration 79 RMS(Cart)=  0.00043908 RMS(Int)=  0.20226894
 Iteration 80 RMS(Cart)=  0.00053767 RMS(Int)=  0.23956899
 Iteration 81 RMS(Cart)=  0.00043840 RMS(Int)=  0.17983668
 Iteration 82 RMS(Cart)=  0.00064475 RMS(Int)=  0.26249772
 Iteration 83 RMS(Cart)=  0.00041692 RMS(Int)=  0.25676789
 Iteration 84 RMS(Cart)=  0.00039438 RMS(Int)=  0.18396363
 Iteration 85 RMS(Cart)=  0.00063072 RMS(Int)=  0.25759388
 Iteration 86 RMS(Cart)=  0.00041007 RMS(Int)=  0.21315550
 Iteration 87 RMS(Cart)=  0.00047805 RMS(Int)=  0.22920635
 Iteration 88 RMS(Cart)=  0.00047391 RMS(Int)=  0.14563463
 Iteration 89 RMS(Cart)=  0.00043210 RMS(Int)=  0.29682257
 Iteration 90 RMS(Cart)=  0.00037609 RMS(Int)=  0.27876740
 Iteration 91 RMS(Cart)=  0.00036667 RMS(Int)=  0.16347908
 Iteration 92 RMS(Cart)=  0.00076113 RMS(Int)=  0.27757783
 Iteration 93 RMS(Cart)=  0.00039493 RMS(Int)=  0.25679412
 Iteration 94 RMS(Cart)=  0.00039315 RMS(Int)=  0.18546832
 Iteration 95 RMS(Cart)=  0.00062233 RMS(Int)=  0.25449371
 Iteration 96 RMS(Cart)=  0.00041270 RMS(Int)=  0.18470463
 Iteration 97 RMS(Cart)=  0.00061320 RMS(Int)=  0.25713990
 Iteration 98 RMS(Cart)=  0.00042293 RMS(Int)=  0.23680885
 Iteration 99 RMS(Cart)=  0.00042889 RMS(Int)=  0.20543578
 Iteration100 RMS(Cart)=  0.00053470 RMS(Int)=  0.23211598
 New curvilinear step not converged.
 ITry= 7 IFail=1 DXMaxC= 1.57D-01 DCOld= 1.00D+10 DXMaxT= 8.49D-01 DXLimC= 3.00D+00 Rises=F
 SLEqS3 Cycle:   931 Max:0.132209E-04 RMS:0.274338E-05 Conv:0.308126E-06
slurmstepd: error: *** JOB 27447136 ON lewis4-r630-hpc4-node303 CANCELLED AT 2023-05-17T00:12:42 DUE TO TIME LIMIT ***
