### Starting Gaussian ###
 Entering Gaussian System, Link 0=g16
 Initial command:
 /cluster/software/gaussian/gaussian-16-A.03/avx2/g16/l1.exe "/local/scratch/linjian/Gau-17380.inp" -scrdir="/local/scratch/linjian/"
 Entering Link 1 = /cluster/software/gaussian/gaussian-16-A.03/avx2/g16/l1.exe PID=     17382.
  
 Copyright (c) 1988,1990,1992,1993,1995,1998,2003,2009,2016,
            Gaussian, Inc.  All Rights Reserved.
  
 This is part of the Gaussian(R) 16 program.  It is based on
 the Gaussian(R) 09 system (copyright 2009, Gaussian, Inc.),
 the Gaussian(R) 03 system (copyright 2003, Gaussian, Inc.),
 the Gaussian(R) 98 system (copyright 1998, Gaussian, Inc.),
 the Gaussian(R) 94 system (copyright 1995, Gaussian, Inc.),
 the Gaussian 92(TM) system (copyright 1992, Gaussian, Inc.),
 the Gaussian 90(TM) system (copyright 1990, Gaussian, Inc.),
 the Gaussian 88(TM) system (copyright 1988, Gaussian, Inc.),
 the Gaussian 86(TM) system (copyright 1986, Carnegie Mellon
 University), and the Gaussian 82(TM) system (copyright 1983,
 Carnegie Mellon University). Gaussian is a federally registered
 trademark of Gaussian, Inc.
  
 This software contains proprietary and confidential information,
 including trade secrets, belonging to Gaussian, Inc.
  
 This software is provided under written license and may be
 used, copied, transmitted, or stored only in accord with that
 written license.
  
 The following legend is applicable only to US Government
 contracts under FAR:
  
                    RESTRICTED RIGHTS LEGEND
  
 Use, reproduction and disclosure by the US Government is
 subject to restrictions as set forth in subparagraphs (a)
 and (c) of the Commercial Computer Software - Restricted
 Rights clause in FAR 52.227-19.
  
 Gaussian, Inc.
 340 Quinnipiac St., Bldg. 40, Wallingford CT 06492
  
  
 ---------------------------------------------------------------
 Warning -- This program may not be used in any manner that
 competes with the business of Gaussian, Inc. or will provide
 assistance to any competitor of Gaussian, Inc.  The licensee
 of this program is prohibited from giving any competitor of
 Gaussian, Inc. access to this program.  By using this program,
 the user acknowledges that Gaussian, Inc. is engaged in the
 business of creating and licensing software in the field of
 computational chemistry and represents and warrants to the
 licensee that it is not a competitor of Gaussian, Inc. and that
 it will not use this program in any manner prohibited above.
 ---------------------------------------------------------------
  

 Cite this work as:
 Gaussian 16, Revision A.03,
 M. J. Frisch, G. W. Trucks, H. B. Schlegel, G. E. Scuseria, 
 M. A. Robb, J. R. Cheeseman, G. Scalmani, V. Barone, 
 G. A. Petersson, H. Nakatsuji, X. Li, M. Caricato, A. V. Marenich, 
 J. Bloino, B. G. Janesko, R. Gomperts, B. Mennucci, H. P. Hratchian, 
 J. V. Ortiz, A. F. Izmaylov, J. L. Sonnenberg, D. Williams-Young, 
 F. Ding, F. Lipparini, F. Egidi, J. Goings, B. Peng, A. Petrone, 
 T. Henderson, D. Ranasinghe, V. G. Zakrzewski, J. Gao, N. Rega, 
 G. Zheng, W. Liang, M. Hada, M. Ehara, K. Toyota, R. Fukuda, 
 J. Hasegawa, M. Ishida, T. Nakajima, Y. Honda, O. Kitao, H. Nakai, 
 T. Vreven, K. Throssell, J. A. Montgomery, Jr., J. E. Peralta, 
 F. Ogliaro, M. J. Bearpark, J. J. Heyd, E. N. Brothers, K. N. Kudin, 
 V. N. Staroverov, T. A. Keith, R. Kobayashi, J. Normand, 
 K. Raghavachari, A. P. Rendell, J. C. Burant, S. S. Iyengar, 
 J. Tomasi, M. Cossi, J. M. Millam, M. Klene, C. Adamo, R. Cammi, 
 J. W. Ochterski, R. L. Martin, K. Morokuma, O. Farkas, 
 J. B. Foresman, and D. J. Fox, Gaussian, Inc., Wallingford CT, 2016.
 
 ******************************************
 Gaussian 16:  ES64L-G16RevA.03 25-Dec-2016
                16-May-2023 
 ******************************************
 %chk=OdNNd[SH]Nn1c2cccc-2cccc1dO.chk
 %NProcShared=20
 Will use up to   20 processors via shared memory.
 -----------------------------
 # opt freq b3lyp/6-31g(2df,p)
 -----------------------------
 1/18=20,19=15,26=3,38=1/1,3;
 2/9=110,12=2,17=6,18=5,40=1/2;
 3/5=1,6=6,7=104,11=2,25=1,30=1,71=1,74=-5/1,2,3;
 4//1;
 5/5=2,38=5/2;
 6/7=2,8=2,9=2,10=2,28=1/1;
 7//1,2,3,16;
 1/18=20,19=15,26=3/3(2);
 2/9=110/2;
 99//99;
 2/9=110/2;
 3/5=1,6=6,7=104,11=2,25=1,30=1,71=1,74=-5/1,2,3;
 4/5=5,16=3,69=1/1;
 5/5=2,38=5/2;
 7//1,2,3,16;
 1/18=20,19=15,26=3/3(-5);
 2/9=110/2;
 6/7=2,8=2,9=2,10=2,19=2,28=1/1;
 99/9=1/99;
 -------------------
 Title Card Required
 -------------------
 Symbolic Z-matrix:
 Charge =  0 Multiplicity = 1
 O                     1.25282  -0.08238  -0.19618 
 N                     2.48826  -0.04653  -0.132 
 N                     3.12213  -0.68038  -1.27003 
 S                     4.61016  -0.41189  -1.16578 
 N                     5.25778  -1.20899  -2.46157 
 N                     6.71865  -1.41913  -2.58933 
 C                     7.06952  -2.09004  -3.85009 
 C                     6.59908  -1.9025   -5.12403 
 C                     7.2449   -2.83884  -6.0707 
 C                     8.10049  -3.63351  -5.41073 
 C                     8.04697  -3.21664  -4.03237 
 C                     8.71132  -3.82088  -3.03836 
 C                     8.15093  -3.4953   -1.78054 
 C                     8.43214  -2.54849  -0.86755 
 C                     7.53439  -1.37178  -1.26495 
 O                     7.56759  -0.40099  -0.49659 
 H                     4.92139  -1.20961  -0.16491 
 H                     4.6919   -1.62751  -3.20063 
 H                     5.88949  -1.17122  -5.49116 
 H                     7.06547  -2.89874  -7.13701 
 H                     8.70429  -4.44695  -5.78141 
 H                     9.38554  -4.67141  -3.1305 
 H                     7.07348  -3.51268  -1.85981 
 H                     9.23782  -2.70519  -0.14553 
 

 GradGradGradGradGradGradGradGradGradGradGradGradGradGradGradGradGradGrad
 Berny optimization.
 Initialization pass.
                           ----------------------------
                           !    Initial Parameters    !
                           ! (Angstroms and Degrees)  !
 --------------------------                            --------------------------
 ! Name  Definition              Value          Derivative Info.                !
 --------------------------------------------------------------------------------
 ! R1    R(1,2)                  1.2376         estimate D2E/DX2                !
 ! R2    R(2,3)                  1.4487         estimate D2E/DX2                !
 ! R3    R(3,4)                  1.5156         estimate D2E/DX2                !
 ! R4    R(4,5)                  1.6534         estimate D2E/DX2                !
 ! R5    R(4,17)                 1.3172         estimate D2E/DX2                !
 ! R6    R(5,6)                  1.4814         estimate D2E/DX2                !
 ! R7    R(5,18)                 1.0206         estimate D2E/DX2                !
 ! R8    R(6,7)                  1.4706         estimate D2E/DX2                !
 ! R9    R(6,15)                 1.5562         estimate D2E/DX2                !
 ! R10   R(7,8)                  1.3709         estimate D2E/DX2                !
 ! R11   R(7,11)                 1.5026         estimate D2E/DX2                !
 ! R12   R(8,9)                  1.4799         estimate D2E/DX2                !
 ! R13   R(8,19)                 1.0831         estimate D2E/DX2                !
 ! R14   R(9,10)                 1.3413         estimate D2E/DX2                !
 ! R15   R(9,20)                 1.083          estimate D2E/DX2                !
 ! R16   R(10,11)                1.441          estimate D2E/DX2                !
 ! R17   R(10,21)                1.0787         estimate D2E/DX2                !
 ! R18   R(11,12)                1.3396         estimate D2E/DX2                !
 ! R19   R(12,13)                1.415          estimate D2E/DX2                !
 ! R20   R(12,22)                1.0892         estimate D2E/DX2                !
 ! R21   R(13,14)                1.345          estimate D2E/DX2                !
 ! R22   R(13,23)                1.0805         estimate D2E/DX2                !
 ! R23   R(14,15)                1.5325         estimate D2E/DX2                !
 ! R24   R(14,24)                1.0932         estimate D2E/DX2                !
 ! R25   R(15,16)                1.2385         estimate D2E/DX2                !
 ! A1    A(1,2,3)              112.5424         estimate D2E/DX2                !
 ! A2    A(2,3,4)              107.3397         estimate D2E/DX2                !
 ! A3    A(3,4,5)              104.196          estimate D2E/DX2                !
 ! A4    A(3,4,17)             100.1928         estimate D2E/DX2                !
 ! A5    A(5,4,17)             102.18           estimate D2E/DX2                !
 ! A6    A(4,5,6)              121.4811         estimate D2E/DX2                !
 ! A7    A(4,5,18)             123.2324         estimate D2E/DX2                !
 ! A8    A(6,5,18)             115.2236         estimate D2E/DX2                !
 ! A9    A(5,6,7)              111.9577         estimate D2E/DX2                !
 ! A10   A(5,6,15)             116.0537         estimate D2E/DX2                !
 ! A11   A(7,6,15)             128.2006         estimate D2E/DX2                !
 ! A12   A(6,7,8)              130.7205         estimate D2E/DX2                !
 ! A13   A(6,7,11)             126.9588         estimate D2E/DX2                !
 ! A14   A(8,7,11)             102.3019         estimate D2E/DX2                !
 ! A15   A(7,8,9)              110.9859         estimate D2E/DX2                !
 ! A16   A(7,8,19)             129.2108         estimate D2E/DX2                !
 ! A17   A(9,8,19)             119.754          estimate D2E/DX2                !
 ! A18   A(8,9,10)             109.7843         estimate D2E/DX2                !
 ! A19   A(8,9,20)             126.3387         estimate D2E/DX2                !
 ! A20   A(10,9,20)            123.8754         estimate D2E/DX2                !
 ! A21   A(9,10,11)            105.9953         estimate D2E/DX2                !
 ! A22   A(9,10,21)            129.3994         estimate D2E/DX2                !
 ! A23   A(11,10,21)           124.5843         estimate D2E/DX2                !
 ! A24   A(7,11,10)            110.9216         estimate D2E/DX2                !
 ! A25   A(7,11,12)            124.8044         estimate D2E/DX2                !
 ! A26   A(10,11,12)           124.1148         estimate D2E/DX2                !
 ! A27   A(11,12,13)           111.064          estimate D2E/DX2                !
 ! A28   A(11,12,22)           126.6132         estimate D2E/DX2                !
 ! A29   A(13,12,22)           120.0003         estimate D2E/DX2                !
 ! A30   A(12,13,14)           133.0451         estimate D2E/DX2                !
 ! A31   A(12,13,23)           109.0266         estimate D2E/DX2                !
 ! A32   A(14,13,23)           105.6408         estimate D2E/DX2                !
 ! A33   A(13,14,15)           104.0053         estimate D2E/DX2                !
 ! A34   A(13,14,24)           120.1008         estimate D2E/DX2                !
 ! A35   A(15,14,24)           135.4877         estimate D2E/DX2                !
 ! A36   A(6,15,14)            120.2922         estimate D2E/DX2                !
 ! A37   A(6,15,16)            124.4638         estimate D2E/DX2                !
 ! A38   A(14,15,16)           115.1684         estimate D2E/DX2                !
 ! D1    D(1,2,3,4)            172.7045         estimate D2E/DX2                !
 ! D2    D(2,3,4,5)            178.0403         estimate D2E/DX2                !
 ! D3    D(2,3,4,17)            72.5782         estimate D2E/DX2                !
 ! D4    D(3,4,5,6)           -168.1085         estimate D2E/DX2                !
 ! D5    D(3,4,5,18)             8.8681         estimate D2E/DX2                !
 ! D6    D(17,4,5,6)           -64.1429         estimate D2E/DX2                !
 ! D7    D(17,4,5,18)          112.8337         estimate D2E/DX2                !
 ! D8    D(4,5,6,7)           -177.1467         estimate D2E/DX2                !
 ! D9    D(4,5,6,15)            22.917          estimate D2E/DX2                !
 ! D10   D(18,5,6,7)             5.6486         estimate D2E/DX2                !
 ! D11   D(18,5,6,15)         -154.2877         estimate D2E/DX2                !
 ! D12   D(5,6,7,8)             42.0947         estimate D2E/DX2                !
 ! D13   D(5,6,7,11)          -136.0405         estimate D2E/DX2                !
 ! D14   D(15,6,7,8)          -160.9963         estimate D2E/DX2                !
 ! D15   D(15,6,7,11)           20.8685         estimate D2E/DX2                !
 ! D16   D(5,6,15,14)          124.7981         estimate D2E/DX2                !
 ! D17   D(5,6,15,16)          -58.5196         estimate D2E/DX2                !
 ! D18   D(7,6,15,14)          -31.318          estimate D2E/DX2                !
 ! D19   D(7,6,15,16)          145.3644         estimate D2E/DX2                !
 ! D20   D(6,7,8,9)           -179.1123         estimate D2E/DX2                !
 ! D21   D(6,7,8,19)             3.4899         estimate D2E/DX2                !
 ! D22   D(11,7,8,9)            -0.6374         estimate D2E/DX2                !
 ! D23   D(11,7,8,19)         -178.0351         estimate D2E/DX2                !
 ! D24   D(6,7,11,10)          178.5887         estimate D2E/DX2                !
 ! D25   D(6,7,11,12)            3.026          estimate D2E/DX2                !
 ! D26   D(8,7,11,10)            0.0352         estimate D2E/DX2                !
 ! D27   D(8,7,11,12)         -175.5276         estimate D2E/DX2                !
 ! D28   D(7,8,9,10)             1.1026         estimate D2E/DX2                !
 ! D29   D(7,8,9,20)          -179.3513         estimate D2E/DX2                !
 ! D30   D(19,8,9,10)          178.7803         estimate D2E/DX2                !
 ! D31   D(19,8,9,20)           -1.6736         estimate D2E/DX2                !
 ! D32   D(8,9,10,11)           -0.9999         estimate D2E/DX2                !
 ! D33   D(8,9,10,21)          177.3685         estimate D2E/DX2                !
 ! D34   D(20,9,10,11)         179.4406         estimate D2E/DX2                !
 ! D35   D(20,9,10,21)          -2.1911         estimate D2E/DX2                !
 ! D36   D(9,10,11,7)            0.6243         estimate D2E/DX2                !
 ! D37   D(9,10,11,12)         176.2236         estimate D2E/DX2                !
 ! D38   D(21,10,11,7)        -177.8442         estimate D2E/DX2                !
 ! D39   D(21,10,11,12)         -2.2449         estimate D2E/DX2                !
 ! D40   D(7,11,12,13)          14.1105         estimate D2E/DX2                !
 ! D41   D(7,11,12,22)         176.6065         estimate D2E/DX2                !
 ! D42   D(10,11,12,13)       -160.882          estimate D2E/DX2                !
 ! D43   D(10,11,12,22)          1.6141         estimate D2E/DX2                !
 ! D44   D(11,12,13,14)        -93.7432         estimate D2E/DX2                !
 ! D45   D(11,12,13,23)         41.6802         estimate D2E/DX2                !
 ! D46   D(22,12,13,14)        102.4438         estimate D2E/DX2                !
 ! D47   D(22,12,13,23)       -122.1328         estimate D2E/DX2                !
 ! D48   D(12,13,14,15)         91.0486         estimate D2E/DX2                !
 ! D49   D(12,13,14,24)        -82.7247         estimate D2E/DX2                !
 ! D50   D(23,13,14,15)        -45.3978         estimate D2E/DX2                !
 ! D51   D(23,13,14,24)        140.8288         estimate D2E/DX2                !
 ! D52   D(13,14,15,6)          -7.422          estimate D2E/DX2                !
 ! D53   D(13,14,15,16)        175.6            estimate D2E/DX2                !
 ! D54   D(24,14,15,6)         164.886          estimate D2E/DX2                !
 ! D55   D(24,14,15,16)        -12.092          estimate D2E/DX2                !
 --------------------------------------------------------------------------------
 Trust Radius=3.00D-01 FncErr=1.00D-07 GrdErr=1.00D-06 EigMax=2.50D+02 EigMin=1.00D-04
 Number of steps in this run=    128 maximum allowed number of steps=    144.
 GradGradGradGradGradGradGradGradGradGradGradGradGradGradGradGradGradGrad

                          Input orientation:                          
 ---------------------------------------------------------------------
 Center     Atomic      Atomic             Coordinates (Angstroms)
 Number     Number       Type             X           Y           Z
 ---------------------------------------------------------------------
      1          8           0        1.252820   -0.082380   -0.196180
      2          7           0        2.488260   -0.046530   -0.132000
      3          7           0        3.122130   -0.680380   -1.270030
      4         16           0        4.610160   -0.411890   -1.165780
      5          7           0        5.257780   -1.208990   -2.461570
      6          7           0        6.718650   -1.419130   -2.589330
      7          6           0        7.069520   -2.090040   -3.850090
      8          6           0        6.599080   -1.902500   -5.124030
      9          6           0        7.244900   -2.838840   -6.070700
     10          6           0        8.100490   -3.633510   -5.410730
     11          6           0        8.046970   -3.216640   -4.032370
     12          6           0        8.711320   -3.820880   -3.038360
     13          6           0        8.150930   -3.495300   -1.780540
     14          6           0        8.432140   -2.548490   -0.867550
     15          6           0        7.534390   -1.371780   -1.264950
     16          8           0        7.567590   -0.400990   -0.496590
     17          1           0        4.921390   -1.209610   -0.164910
     18          1           0        4.691900   -1.627510   -3.200630
     19          1           0        5.889490   -1.171220   -5.491160
     20          1           0        7.065470   -2.898740   -7.137010
     21          1           0        8.704290   -4.446950   -5.781410
     22          1           0        9.385540   -4.671410   -3.130500
     23          1           0        7.073480   -3.512680   -1.859810
     24          1           0        9.237820   -2.705190   -0.145530
 ---------------------------------------------------------------------
                    Distance matrix (angstroms):
                    1          2          3          4          5
     1  O    0.000000
     2  N    1.237625   0.000000
     3  N    2.237203   1.448678   0.000000
     4  S    3.510047   2.388441   1.515648   0.000000
     5  N    4.737188   3.801112   2.502039   1.653436   0.000000
     6  N    6.114684   5.081211   3.901443   2.736194   1.481426
     7  C    7.156518   6.244043   4.921965   4.008760   2.446761
     8  C    7.495268   6.727840   5.332549   4.673913   3.060839
     9  C    8.832501   8.104985   6.686001   6.073729   4.430674
    10  C    9.310888   8.498738   7.116912   6.370309   4.759920
    11  C    8.408354   7.494114   6.190088   5.281631   3.778578
    12  C    8.813830   7.837035   6.650472   5.652193   4.368248
    13  C    7.857617   6.832096   5.785605   4.735230   3.749844
    14  C    7.620700   6.490805   5.643406   4.388796   3.796277
    15  C    6.500996   5.338847   4.466105   3.079342   2.577082
    16  O    6.329935   5.104719   4.520883   3.032215   3.138349
    17  H    3.837972   2.697028   2.176858   1.317180   2.321165
    18  H    4.820935   4.095365   2.662414   2.371714   1.020583
    19  H    7.121874   6.446231   5.071207   4.574077   3.094980
    20  H    9.481240   8.840595   7.408948   6.918711   5.289871
    21  H   10.284390   9.482540   8.105560   7.372086   5.777902
    22  H    9.788287   8.829099   7.656368   6.693870   5.429017
    23  H    6.958068   6.001980   4.897237   4.020513   2.994306
    24  H    8.404875   7.254324   6.539573   5.264539   4.841836
                    6          7          8          9         10
     6  N    0.000000
     7  C    1.470628   0.000000
     8  C    2.583147   1.370915   0.000000
     9  C    3.796374   2.350015   1.479865   0.000000
    10  C    3.843600   2.425035   2.309291   1.341303   0.000000
    11  C    2.660421   1.502618   2.239435   2.222800   1.441014
    12  C    3.152898   2.519964   3.534368   3.508543   2.456901
    13  C    2.648783   2.725296   4.015492   4.433656   3.633170
    14  C    2.678811   3.310960   4.679213   5.344774   4.682707
    15  C    1.556167   2.723041   4.006116   5.033021   4.756404
    16  O    2.477270   3.787734   4.960418   6.092450   5.906093
    17  H    3.025203   4.355476   5.280872   6.552209   6.595498
    18  H    2.127164   2.507750   2.722576   4.027708   4.530680
    19  H    3.028132   2.220318   1.083085   2.225749   3.310266
    20  H    4.794885   3.384945   2.293927   1.082959   2.142708
    21  H    4.826990   3.457961   3.367237   2.190782   1.078732
    22  H    4.240577   3.541925   4.405154   4.072521   2.815677
    23  H    2.245229   2.446454   3.670540   4.267908   3.698430
    24  H    3.737957   4.336323   5.691460   6.252778   5.466043
                   11         12         13         14         15
    11  C    0.000000
    12  C    1.339598   0.000000
    13  C    2.271387   1.414974   0.000000
    14  C    3.257432   2.531666   1.345020   0.000000
    15  C    3.365243   3.244725   2.270527   1.532491   0.000000
    16  O    4.545265   4.411843   3.400525   2.344529   1.238512
    17  H    5.362338   5.425773   4.273707   3.822521   2.839746
    18  H    3.804421   4.581805   4.179735   4.503428   3.448479
    19  H    3.311575   4.582538   4.927896   5.453413   4.539468
    20  H    3.271573   4.511995   5.497807   6.426242   6.085440
    21  H    2.237157   2.813598   4.149555   5.274868   5.587821
    22  H    2.172900   1.089249   2.174831   3.246029   4.218364
    23  H    2.399029   2.041197   1.080502   1.939123   2.269306
    24  H    4.097222   3.144906   2.116332   1.093155   2.435725
                   16         17         18         19         20
    16  O    0.000000
    17  H    2.786800   0.000000
    18  H    4.133494   3.072931   0.000000
    19  H    5.324942   5.413652   2.624681   0.000000
    20  H    7.112388   7.487351   4.769166   2.660090   0.000000
    21  H    6.752126   7.505716   5.541565   4.328712   2.630653
    22  H    5.336564   6.380237   5.594685   5.481461   4.957540
    23  H    3.432947   3.578870   3.320179   4.480064   5.312798
    24  H    2.867446   4.568228   5.582152   6.491544   7.323753
                   21         22         23         24
    21  H    0.000000
    22  H    2.746235   0.000000
    23  H    4.348718   2.881480   0.000000
    24  H    5.922966   3.577414   2.876658   0.000000
 Stoichiometry    C9H8N4O2S
 Framework group  C1[X(C9H8N4O2S)]
 Deg. of freedom    66
 Full point group                 C1      NOp   1
 Largest Abelian subgroup         C1      NOp   1
 Largest concise Abelian subgroup C1      NOp   1
                         Standard orientation:                         
 ---------------------------------------------------------------------
 Center     Atomic      Atomic             Coordinates (Angstroms)
 Number     Number       Type             X           Y           Z
 ---------------------------------------------------------------------
      1          8           0       -5.382699   -1.032416    0.753032
      2          7           0       -4.515913   -0.270674    0.305654
      3          7           0       -3.184894   -0.837257    0.383380
      4         16           0       -2.250499    0.101825   -0.352976
      5          7           0       -0.757909   -0.585698   -0.170388
      6          7           0        0.480188    0.148815   -0.520002
      7          6           0        1.681131   -0.680652   -0.339817
      8          6           0        1.916215   -1.994199   -0.654042
      9          6           0        3.284786   -2.396614   -0.260247
     10          6           0        3.912269   -1.363404    0.320993
     11          6           0        2.978193   -0.266415    0.295715
     12          6           0        3.209290    0.930115    0.851981
     13          6           0        2.001125    1.637603    1.056801
     14          6           0        1.332535    2.544628    0.322382
     15          6           0        0.375053    1.701412   -0.526584
     16          8           0       -0.412180    2.347585   -1.231310
     17          1           0       -2.202543    1.101646    0.503189
     18          1           0       -0.614903   -1.514834    0.226908
     19          1           0        1.271350   -2.703686   -1.157877
     20          1           0        3.732371   -3.372577   -0.401544
     21          1           0        4.897707   -1.318587    0.757531
     22          1           0        4.117632    1.243501    1.364979
     23          1           0        1.251423    0.954169    1.428755
     24          1           0        1.620097    3.598670    0.358308
 ---------------------------------------------------------------------
 Rotational constants (GHZ):           0.9206500           0.2642778           0.2210317
 Standard basis: 6-31G(2df,p) (6D, 7F)
 There are   540 symmetry adapted cartesian basis functions of A   symmetry.
 There are   492 symmetry adapted basis functions of A   symmetry.
   492 basis functions,   784 primitive gaussians,   540 cartesian basis functions
    61 alpha electrons       61 beta electrons
       nuclear repulsion energy      1148.7130071954 Hartrees.
 NAtoms=   24 NActive=   24 NUniq=   24 SFac= 1.00D+00 NAtFMM=   60 NAOKFM=F Big=F
 Integral buffers will be    131072 words long.
 Raffenetti 2 integral format.
 Two-electron integral symmetry is turned on.
 One-electron integrals computed using PRISM.
 PrsmSu:  requested number of processors reduced to:  12 ShMem   1 Linda.
 NBasis=   492 RedAO= T EigKep=  2.10D-04  NBF=   492
 NBsUse=   492 1.00D-06 EigRej= -1.00D+00 NBFU=   492
 ExpMin= 1.17D-01 ExpMax= 2.19D+04 ExpMxC= 3.30D+03 IAcc=3 IRadAn=         5 AccDes= 0.00D+00
 Harris functional with IExCor=  402 and IRadAn=       5 diagonalized for initial guess.
 HarFok:  IExCor=  402 AccDes= 0.00D+00 IRadAn=         5 IDoV= 1 UseB2=F ITyADJ=14
 ICtDFT=  3500011 ScaDFX=  1.000000  1.000000  1.000000  1.000000
 FoFCou: FMM=F IPFlag=           0 FMFlag=      100000 FMFlg1=           0
         NFxFlg=           0 DoJE=T BraDBF=F KetDBF=T FulRan=T
         wScrn=  0.000000 ICntrl=       500 IOpCl=  0 I1Cent=   200000004 NGrid=           0
         NMat0=    1 NMatS0=      1 NMatT0=    0 NMatD0=    1 NMtDS0=    0 NMtDT0=    0
 Petite list used in FoFCou.
 Requested convergence on RMS density matrix=1.00D-08 within 128 cycles.
 Requested convergence on MAX density matrix=1.00D-06.
 Requested convergence on             energy=1.00D-06.
 No special actions if energy rises.
 Integral accuracy reduced to 1.0D-05 until final iterations.
 EnCoef did     5 forward-backward iterations
 EnCoef did     5 forward-backward iterations
 Initial convergence to 1.0D-05 achieved.  Increase integral accuracy.
 SCF Done:  E(RB3LYP) =  -1114.98728848     A.U. after   21 cycles
            NFock= 21  Conv=0.52D-08     -V/T= 2.0058

 **********************************************************************

            Population analysis using the SCF density.

 **********************************************************************

 Orbital symmetries:
       Occupied  (A) (A) (A) (A) (A) (A) (A) (A) (A) (A) (A) (A)
                 (A) (A) (A) (A) (A) (A) (A) (A) (A) (A) (A) (A)
                 (A) (A) (A) (A) (A) (A) (A) (A) (A) (A) (A) (A)
                 (A) (A) (A) (A) (A) (A) (A) (A) (A) (A) (A) (A)
                 (A) (A) (A) (A) (A) (A) (A) (A) (A) (A) (A) (A)
                 (A)
       Virtual   (A) (A) (A) (A) (A) (A) (A) (A) (A) (A) (A) (A)
                 (A) (A) (A) (A) (A) (A) (A) (A) (A) (A) (A) (A)
                 (A) (A) (A) (A) (A) (A) (A) (A) (A) (A) (A) (A)
                 (A) (A) (A) (A) (A) (A) (A) (A) (A) (A) (A) (A)
                 (A) (A) (A) (A) (A) (A) (A) (A) (A) (A) (A) (A)
                 (A) (A) (A) (A) (A) (A) (A) (A) (A) (A) (A) (A)
                 (A) (A) (A) (A) (A) (A) (A) (A) (A) (A) (A) (A)
                 (A) (A) (A) (A) (A) (A) (A) (A) (A) (A) (A) (A)
                 (A) (A) (A) (A) (A) (A) (A) (A) (A) (A) (A) (A)
                 (A) (A) (A) (A) (A) (A) (A) (A) (A) (A) (A) (A)
                 (A) (A) (A) (A) (A) (A) (A) (A) (A) (A) (A) (A)
                 (A) (A) (A) (A) (A) (A) (A) (A) (A) (A) (A) (A)
                 (A) (A) (A) (A) (A) (A) (A) (A) (A) (A) (A) (A)
                 (A) (A) (A) (A) (A) (A) (A) (A) (A) (A) (A) (A)
                 (A) (A) (A) (A) (A) (A) (A) (A) (A) (A) (A) (A)
                 (A) (A) (A) (A) (A) (A) (A) (A) (A) (A) (A) (A)
                 (A) (A) (A) (A) (A) (A) (A) (A) (A) (A) (A) (A)
                 (A) (A) (A) (A) (A) (A) (A) (A) (A) (A) (A) (A)
                 (A) (A) (A) (A) (A) (A) (A) (A) (A) (A) (A) (A)
                 (A) (A) (A) (A) (A) (A) (A) (A) (A) (A) (A) (A)
                 (A) (A) (A) (A) (A) (A) (A) (A) (A) (A) (A) (A)
                 (A) (A) (A) (A) (A) (A) (A) (A) (A) (A) (A) (A)
                 (A) (A) (A) (A) (A) (A) (A) (A) (A) (A) (A) (A)
                 (A) (A) (A) (A) (A) (A) (A) (A) (A) (A) (A) (A)
                 (A) (A) (A) (A) (A) (A) (A) (A) (A) (A) (A) (A)
                 (A) (A) (A) (A) (A) (A) (A) (A) (A) (A) (A) (A)
                 (A) (A) (A) (A) (A) (A) (A) (A) (A) (A) (A) (A)
                 (A) (A) (A) (A) (A) (A) (A) (A) (A) (A) (A) (A)
                 (A) (A) (A) (A) (A) (A) (A) (A) (A) (A) (A) (A)
                 (A) (A) (A) (A) (A) (A) (A) (A) (A) (A) (A) (A)
                 (A) (A) (A) (A) (A) (A) (A) (A) (A) (A) (A) (A)
                 (A) (A) (A) (A) (A) (A) (A) (A) (A) (A) (A) (A)
                 (A) (A) (A) (A) (A) (A) (A) (A) (A) (A) (A) (A)
                 (A) (A) (A) (A) (A) (A) (A) (A) (A) (A) (A) (A)
                 (A) (A) (A) (A) (A) (A) (A) (A) (A) (A) (A) (A)
                 (A) (A) (A) (A) (A) (A) (A) (A) (A) (A) (A)
 The electronic state is 1-A.
 Alpha  occ. eigenvalues --  -89.01409 -19.15902 -19.15372 -14.44789 -14.44686
 Alpha  occ. eigenvalues --  -14.41735 -14.32731 -10.34362 -10.26529 -10.24108
 Alpha  occ. eigenvalues --  -10.23834 -10.23450 -10.23370 -10.21430 -10.21092
 Alpha  occ. eigenvalues --  -10.19958  -8.06537  -6.03020  -6.02803  -6.02187
 Alpha  occ. eigenvalues --   -1.10902  -1.06389  -1.02499  -0.96502  -0.90753
 Alpha  occ. eigenvalues --   -0.86350  -0.84356  -0.78161  -0.73733  -0.72798
 Alpha  occ. eigenvalues --   -0.67415  -0.63507  -0.61755  -0.60141  -0.57605
 Alpha  occ. eigenvalues --   -0.55850  -0.55303  -0.53689  -0.51443  -0.49240
 Alpha  occ. eigenvalues --   -0.48687  -0.46993  -0.46300  -0.45979  -0.44854
 Alpha  occ. eigenvalues --   -0.42667  -0.42243  -0.41198  -0.40303  -0.39902
 Alpha  occ. eigenvalues --   -0.39603  -0.38399  -0.36057  -0.31147  -0.29430
 Alpha  occ. eigenvalues --   -0.28427  -0.26900  -0.24575  -0.23260  -0.21665
 Alpha  occ. eigenvalues --   -0.21442
 Alpha virt. eigenvalues --   -0.12479  -0.08294  -0.04962  -0.02818   0.00033
 Alpha virt. eigenvalues --    0.00109   0.03776   0.04941   0.06349   0.07902
 Alpha virt. eigenvalues --    0.09770   0.10229   0.10425   0.12681   0.13518
 Alpha virt. eigenvalues --    0.13972   0.15289   0.15434   0.18093   0.19444
 Alpha virt. eigenvalues --    0.21197   0.22902   0.24980   0.25638   0.27796
 Alpha virt. eigenvalues --    0.28815   0.29896   0.31419   0.32709   0.32979
 Alpha virt. eigenvalues --    0.33454   0.35437   0.36813   0.37482   0.37821
 Alpha virt. eigenvalues --    0.38138   0.41628   0.42305   0.43018   0.43520
 Alpha virt. eigenvalues --    0.45851   0.46047   0.46749   0.48220   0.48340
 Alpha virt. eigenvalues --    0.49304   0.50311   0.51424   0.52150   0.52694
 Alpha virt. eigenvalues --    0.53854   0.54300   0.54953   0.55671   0.56948
 Alpha virt. eigenvalues --    0.57688   0.58778   0.60011   0.60601   0.61980
 Alpha virt. eigenvalues --    0.63778   0.64561   0.66523   0.66628   0.68139
 Alpha virt. eigenvalues --    0.68732   0.69168   0.69796   0.70390   0.71589
 Alpha virt. eigenvalues --    0.72171   0.72426   0.73903   0.74072   0.74946
 Alpha virt. eigenvalues --    0.75667   0.76654   0.77252   0.78803   0.79127
 Alpha virt. eigenvalues --    0.79817   0.80124   0.82538   0.83459   0.84086
 Alpha virt. eigenvalues --    0.84175   0.84913   0.86785   0.87943   0.89505
 Alpha virt. eigenvalues --    0.90717   0.92191   0.92307   0.92795   0.95057
 Alpha virt. eigenvalues --    0.95392   0.95825   0.96259   0.96471   0.97537
 Alpha virt. eigenvalues --    0.98273   0.99147   1.01063   1.01603   1.03217
 Alpha virt. eigenvalues --    1.04244   1.06227   1.07174   1.08758   1.09563
 Alpha virt. eigenvalues --    1.09835   1.11668   1.12585   1.14195   1.15096
 Alpha virt. eigenvalues --    1.15551   1.16776   1.18577   1.19137   1.20195
 Alpha virt. eigenvalues --    1.22931   1.24297   1.24601   1.26758   1.27908
 Alpha virt. eigenvalues --    1.28613   1.29483   1.30487   1.31604   1.32698
 Alpha virt. eigenvalues --    1.34537   1.36362   1.37460   1.38040   1.38180
 Alpha virt. eigenvalues --    1.41116   1.41641   1.42678   1.44285   1.45934
 Alpha virt. eigenvalues --    1.47414   1.48833   1.50566   1.51711   1.52995
 Alpha virt. eigenvalues --    1.54025   1.55485   1.55847   1.56206   1.57158
 Alpha virt. eigenvalues --    1.59151   1.59541   1.60196   1.62672   1.63893
 Alpha virt. eigenvalues --    1.66333   1.67500   1.68625   1.69121   1.71060
 Alpha virt. eigenvalues --    1.72048   1.72965   1.73773   1.73811   1.75856
 Alpha virt. eigenvalues --    1.77753   1.78499   1.79453   1.81340   1.83552
 Alpha virt. eigenvalues --    1.85210   1.86581   1.87296   1.89815   1.91268
 Alpha virt. eigenvalues --    1.92680   1.95322   1.97096   1.97969   2.00776
 Alpha virt. eigenvalues --    2.04678   2.05911   2.08061   2.09013   2.11316
 Alpha virt. eigenvalues --    2.11700   2.13001   2.18285   2.18949   2.21580
 Alpha virt. eigenvalues --    2.22368   2.26455   2.31376   2.32484   2.33351
 Alpha virt. eigenvalues --    2.35389   2.36732   2.38751   2.40993   2.42738
 Alpha virt. eigenvalues --    2.44150   2.45278   2.47620   2.51591   2.53120
 Alpha virt. eigenvalues --    2.55280   2.56307   2.64022   2.65919   2.67247
 Alpha virt. eigenvalues --    2.70661   2.72119   2.73694   2.76072   2.76896
 Alpha virt. eigenvalues --    2.78892   2.80656   2.82737   2.83829   2.87324
 Alpha virt. eigenvalues --    2.88404   2.91503   2.93005   2.93975   2.95168
 Alpha virt. eigenvalues --    2.96260   2.97740   3.00420   3.00691   3.02473
 Alpha virt. eigenvalues --    3.02859   3.03643   3.05198   3.05733   3.09101
 Alpha virt. eigenvalues --    3.09854   3.11167   3.13026   3.14524   3.15569
 Alpha virt. eigenvalues --    3.17281   3.18395   3.21352   3.22457   3.23401
 Alpha virt. eigenvalues --    3.24080   3.25917   3.27884   3.29300   3.30168
 Alpha virt. eigenvalues --    3.32003   3.33365   3.33918   3.34716   3.38628
 Alpha virt. eigenvalues --    3.39075   3.40669   3.41999   3.42825   3.44432
 Alpha virt. eigenvalues --    3.45979   3.46704   3.48582   3.49316   3.49757
 Alpha virt. eigenvalues --    3.51659   3.52528   3.54626   3.56422   3.58230
 Alpha virt. eigenvalues --    3.59447   3.61627   3.63211   3.64226   3.68121
 Alpha virt. eigenvalues --    3.68954   3.71055   3.72522   3.74439   3.77226
 Alpha virt. eigenvalues --    3.77916   3.82949   3.84080   3.86744   3.87855
 Alpha virt. eigenvalues --    3.89214   3.89579   3.91184   3.93062   3.94856
 Alpha virt. eigenvalues --    3.97252   3.98475   3.99995   4.01366   4.02826
 Alpha virt. eigenvalues --    4.03085   4.06163   4.07474   4.08147   4.10929
 Alpha virt. eigenvalues --    4.11454   4.14443   4.15142   4.15919   4.17340
 Alpha virt. eigenvalues --    4.19071   4.19973   4.22660   4.22727   4.23421
 Alpha virt. eigenvalues --    4.24663   4.26232   4.27980   4.28582   4.29075
 Alpha virt. eigenvalues --    4.30576   4.30868   4.31207   4.32948   4.34165
 Alpha virt. eigenvalues --    4.36613   4.37587   4.39058   4.39281   4.40926
 Alpha virt. eigenvalues --    4.41871   4.43788   4.45408   4.46323   4.47522
 Alpha virt. eigenvalues --    4.48576   4.49142   4.50138   4.51492   4.52102
 Alpha virt. eigenvalues --    4.53545   4.55133   4.55470   4.56470   4.57242
 Alpha virt. eigenvalues --    4.58823   4.59166   4.59806   4.63032   4.64569
 Alpha virt. eigenvalues --    4.64977   4.66225   4.66530   4.68260   4.70325
 Alpha virt. eigenvalues --    4.71252   4.73105   4.75119   4.76360   4.78542
 Alpha virt. eigenvalues --    4.81181   4.82229   4.83304   4.85107   4.86450
 Alpha virt. eigenvalues --    4.88571   4.90194   4.93136   4.94611   4.97088
 Alpha virt. eigenvalues --    4.98411   4.99714   5.00857   5.02205   5.04197
 Alpha virt. eigenvalues --    5.05335   5.06510   5.07177   5.08957   5.10262
 Alpha virt. eigenvalues --    5.11553   5.12813   5.15043   5.17105   5.18994
 Alpha virt. eigenvalues --    5.22446   5.23039   5.26938   5.28744   5.30591
 Alpha virt. eigenvalues --    5.33038   5.34937   5.40725   5.43660   5.46169
 Alpha virt. eigenvalues --    5.46989   5.49593   5.56152   5.59808   5.61128
 Alpha virt. eigenvalues --    5.64281   5.65563   5.81217   5.83758   5.88408
 Alpha virt. eigenvalues --    5.90175   5.92273   5.98401   6.03181   6.08658
 Alpha virt. eigenvalues --    6.31563   6.32248   6.37257   6.43968   6.58342
 Alpha virt. eigenvalues --    6.67363   6.79002   7.27074   9.12014   9.84546
 Alpha virt. eigenvalues --   10.42081  10.65422  10.76626  11.09857  11.15091
 Alpha virt. eigenvalues --   11.27878  11.36145  11.47172  11.57782  11.89737
 Alpha virt. eigenvalues --   11.95077  12.30232  12.88679  13.10524  13.51744
 Alpha virt. eigenvalues --   22.23774
          Condensed to atoms (all electrons):
               1          2          3          4          5          6
     1  O    7.935260   0.432928  -0.101625   0.000213  -0.000006   0.000000
     2  N    0.432928   6.273496   0.242513   0.003483   0.001169  -0.000006
     3  N   -0.101625   0.242513   6.769034   0.393716  -0.024960   0.000429
     4  S    0.000213   0.003483   0.393716  14.905760   0.318792  -0.037711
     5  N   -0.000006   0.001169  -0.024960   0.318792   6.531953   0.246692
     6  N    0.000000  -0.000006   0.000429  -0.037711   0.246692   6.640634
     7  C   -0.000000   0.000000  -0.000033   0.003368  -0.049160   0.316194
     8  C   -0.000000   0.000000  -0.000009   0.000025  -0.002342  -0.044617
     9  C    0.000000   0.000000  -0.000000   0.000000   0.000118   0.001767
    10  C   -0.000000  -0.000000   0.000000   0.000005   0.000067   0.004538
    11  C    0.000000  -0.000000   0.000000  -0.000170   0.000892  -0.027644
    12  C   -0.000000   0.000000  -0.000000  -0.000007   0.000064  -0.021192
    13  C    0.000000  -0.000000  -0.000000  -0.000443  -0.000860   0.009392
    14  C    0.000000   0.000000   0.000009   0.003166   0.001792  -0.073596
    15  C   -0.000000   0.000012  -0.000215  -0.008546  -0.038104   0.320043
    16  O   -0.000000   0.000003   0.000113   0.022688  -0.001440  -0.040472
    17  H    0.000313  -0.000881  -0.057577   0.144156  -0.028534   0.000237
    18  H   -0.000007  -0.000045   0.008957  -0.023949   0.319269  -0.032250
    19  H    0.000000  -0.000000   0.000003  -0.000046   0.001436  -0.005957
    20  H    0.000000   0.000000  -0.000000   0.000000   0.000001   0.000000
    21  H    0.000000  -0.000000   0.000000  -0.000000   0.000001   0.000001
    22  H    0.000000  -0.000000   0.000000  -0.000000   0.000002  -0.000144
    23  H    0.000000  -0.000000  -0.000010  -0.000013   0.003423   0.004338
    24  H    0.000000   0.000000   0.000000  -0.000010  -0.000026   0.000873
               7          8          9         10         11         12
     1  O   -0.000000  -0.000000   0.000000  -0.000000   0.000000  -0.000000
     2  N    0.000000   0.000000   0.000000  -0.000000  -0.000000   0.000000
     3  N   -0.000033  -0.000009  -0.000000   0.000000   0.000000  -0.000000
     4  S    0.003368   0.000025   0.000000   0.000005  -0.000170  -0.000007
     5  N   -0.049160  -0.002342   0.000118   0.000067   0.000892   0.000064
     6  N    0.316194  -0.044617   0.001767   0.004538  -0.027644  -0.021192
     7  C    4.860338   0.489421  -0.022394  -0.021921   0.336152  -0.034995
     8  C    0.489421   5.033211   0.443914  -0.022366  -0.017800   0.009596
     9  C   -0.022394   0.443914   4.787737   0.579531   0.010544   0.007722
    10  C   -0.021921  -0.022366   0.579531   4.981908   0.430509  -0.105874
    11  C    0.336152  -0.017800   0.010544   0.430509   4.521933   0.514073
    12  C   -0.034995   0.009596   0.007722  -0.105874   0.514073   5.275426
    13  C   -0.024488   0.002423  -0.000541   0.007787   0.014013   0.343862
    14  C    0.002489  -0.000104  -0.000012   0.000167  -0.008475  -0.028886
    15  C   -0.027401   0.001024   0.000079  -0.000220  -0.002373   0.005641
    16  O    0.001359  -0.000020   0.000000  -0.000001  -0.000092   0.000009
    17  H   -0.000357   0.000022   0.000000  -0.000000   0.000012  -0.000006
    18  H    0.006795   0.008539  -0.000374  -0.000097   0.000427  -0.000024
    19  H   -0.042965   0.366532  -0.042168   0.003336   0.007695  -0.000212
    20  H    0.006217  -0.045799   0.371853  -0.038495   0.002142  -0.000330
    21  H    0.006966   0.003512  -0.044535   0.382769  -0.047208  -0.005110
    22  H    0.003908  -0.000031   0.000106  -0.007984  -0.029063   0.353939
    23  H   -0.003087   0.000905   0.000083   0.000642  -0.022576  -0.066828
    24  H   -0.000055   0.000007  -0.000000   0.000008   0.000367  -0.003487
              13         14         15         16         17         18
     1  O    0.000000   0.000000  -0.000000  -0.000000   0.000313  -0.000007
     2  N   -0.000000   0.000000   0.000012   0.000003  -0.000881  -0.000045
     3  N   -0.000000   0.000009  -0.000215   0.000113  -0.057577   0.008957
     4  S   -0.000443   0.003166  -0.008546   0.022688   0.144156  -0.023949
     5  N   -0.000860   0.001792  -0.038104  -0.001440  -0.028534   0.319269
     6  N    0.009392  -0.073596   0.320043  -0.040472   0.000237  -0.032250
     7  C   -0.024488   0.002489  -0.027401   0.001359  -0.000357   0.006795
     8  C    0.002423  -0.000104   0.001024  -0.000020   0.000022   0.008539
     9  C   -0.000541  -0.000012   0.000079   0.000000   0.000000  -0.000374
    10  C    0.007787   0.000167  -0.000220  -0.000001  -0.000000  -0.000097
    11  C    0.014013  -0.008475  -0.002373  -0.000092   0.000012   0.000427
    12  C    0.343862  -0.028886   0.005641   0.000009  -0.000006  -0.000024
    13  C    4.985293   0.433184  -0.019051   0.001521   0.000245  -0.000142
    14  C    0.433184   5.243658   0.389347  -0.057637  -0.000777   0.000028
    15  C   -0.019051   0.389347   4.375359   0.664076   0.017781   0.000980
    16  O    0.001521  -0.057637   0.664076   7.741111  -0.005172  -0.000107
    17  H    0.000245  -0.000777   0.017781  -0.005172   0.822224  -0.000953
    18  H   -0.000142   0.000028   0.000980  -0.000107  -0.000953   0.420500
    19  H    0.000008   0.000002  -0.000090  -0.000001   0.000002   0.001085
    20  H    0.000005   0.000000   0.000001  -0.000000   0.000000   0.000001
    21  H    0.000198   0.000001  -0.000001  -0.000000  -0.000000   0.000000
    22  H   -0.046556   0.004290  -0.000109   0.000000  -0.000000   0.000000
    23  H    0.396449  -0.062012  -0.037754   0.000653  -0.000064   0.000222
    24  H   -0.052284   0.375919  -0.024039  -0.001793   0.000025   0.000000
              19         20         21         22         23         24
     1  O    0.000000   0.000000   0.000000   0.000000   0.000000   0.000000
     2  N   -0.000000   0.000000  -0.000000  -0.000000  -0.000000   0.000000
     3  N    0.000003  -0.000000   0.000000   0.000000  -0.000010   0.000000
     4  S   -0.000046   0.000000  -0.000000  -0.000000  -0.000013  -0.000010
     5  N    0.001436   0.000001   0.000001   0.000002   0.003423  -0.000026
     6  N   -0.005957   0.000000   0.000001  -0.000144   0.004338   0.000873
     7  C   -0.042965   0.006217   0.006966   0.003908  -0.003087  -0.000055
     8  C    0.366532  -0.045799   0.003512  -0.000031   0.000905   0.000007
     9  C   -0.042168   0.371853  -0.044535   0.000106   0.000083  -0.000000
    10  C    0.003336  -0.038495   0.382769  -0.007984   0.000642   0.000008
    11  C    0.007695   0.002142  -0.047208  -0.029063  -0.022576   0.000367
    12  C   -0.000212  -0.000330  -0.005110   0.353939  -0.066828  -0.003487
    13  C    0.000008   0.000005   0.000198  -0.046556   0.396449  -0.052284
    14  C    0.000002   0.000000   0.000001   0.004290  -0.062012   0.375919
    15  C   -0.000090   0.000001  -0.000001  -0.000109  -0.037754  -0.024039
    16  O   -0.000001  -0.000000  -0.000000   0.000000   0.000653  -0.001793
    17  H    0.000002   0.000000  -0.000000  -0.000000  -0.000064   0.000025
    18  H    0.001085   0.000001   0.000000   0.000000   0.000222   0.000000
    19  H    0.595076  -0.001518  -0.000153   0.000004  -0.000001   0.000000
    20  H   -0.001518   0.591993  -0.002769  -0.000005   0.000003   0.000000
    21  H   -0.000153  -0.002769   0.587322   0.002065  -0.000011  -0.000000
    22  H    0.000004  -0.000005   0.002065   0.583057   0.005974   0.000125
    23  H   -0.000001   0.000003  -0.000011   0.005974   0.629554   0.008232
    24  H    0.000000   0.000000  -0.000000   0.000125   0.008232   0.543430
 Mulliken charges:
               1
     1  O   -0.267075
     2  N    0.047327
     3  N   -0.230345
     4  S    0.275525
     5  N   -0.280238
     6  N   -0.261549
     7  C    0.193647
     8  C   -0.226043
     9  C   -0.093430
    10  C   -0.194309
    11  C    0.316642
    12  C   -0.243381
    13  C   -0.050017
    14  C   -0.222553
    15  C    0.383562
    16  O   -0.324799
    17  H    0.109303
    18  H    0.291143
    19  H    0.117929
    20  H    0.116700
    21  H    0.116952
    22  H    0.130421
    23  H    0.141881
    24  H    0.152709
 Sum of Mulliken charges =  -0.00000
 Mulliken charges with hydrogens summed into heavy atoms:
               1
     1  O   -0.267075
     2  N    0.047327
     3  N   -0.230345
     4  S    0.384828
     5  N    0.010905
     6  N   -0.261549
     7  C    0.193647
     8  C   -0.108114
     9  C    0.023269
    10  C   -0.077358
    11  C    0.316642
    12  C   -0.112960
    13  C    0.091864
    14  C   -0.069844
    15  C    0.383562
    16  O   -0.324799
 Electronic spatial extent (au):  <R**2>=           4668.5041
 Charge=             -0.0000 electrons
 Dipole moment (field-independent basis, Debye):
    X=              8.7850    Y=              0.5392    Z=              1.5861  Tot=              8.9433
 Quadrupole moment (field-independent basis, Debye-Ang):
   XX=           -117.5206   YY=            -92.2526   ZZ=            -99.7564
   XY=             -4.2873   XZ=              7.9037   YZ=              8.2427
 Traceless Quadrupole moment (field-independent basis, Debye-Ang):
   XX=            -14.3441   YY=             10.9240   ZZ=              3.4202
   XY=             -4.2873   XZ=              7.9037   YZ=              8.2427
 Octapole moment (field-independent basis, Debye-Ang**2):
  XXX=            180.3865  YYY=             -5.9582  ZZZ=              3.2633  XYY=             22.4704
  XXY=             38.0788  XXZ=             -7.1929  XZZ=            -10.3643  YZZ=             -1.3897
  YYZ=              5.0080  XYZ=             -4.7842
 Hexadecapole moment (field-independent basis, Debye-Ang**3):
 XXXX=          -5174.5682 YYYY=          -1176.3355 ZZZZ=           -313.3837 XXXY=           -169.6736
 XXXZ=            210.1881 YYYX=             17.8871 YYYZ=             39.6357 ZZZX=            -11.3523
 ZZZY=             -5.2663 XXYY=           -929.6105 XXZZ=           -801.8754 YYZZ=           -278.2103
 XXYZ=             52.2436 YYXZ=             -3.0606 ZZXY=             18.1814
 N-N= 1.148713007195D+03 E-N=-4.913817484682D+03  KE= 1.108592575748D+03
 PrsmSu:  requested number of processors reduced to:  13 ShMem   1 Linda.
 Calling FoFJK, ICntrl=      2127 FMM=F ISym2X=0 I1Cent= 0 IOpClX= 0 NMat=1 NMatS=1 NMatT=0.
 ***** Axes restored to original set *****
 -------------------------------------------------------------------
 Center     Atomic                   Forces (Hartrees/Bohr)
 Number     Number              X              Y              Z
 -------------------------------------------------------------------
      1        8           0.054155360   -0.002111140    0.001503472
      2        7          -0.041395030   -0.008309206   -0.026283637
      3        7          -0.101331382   -0.002843598   -0.002290912
      4       16           0.074290600    0.049125339    0.008169401
      5        7           0.024248042   -0.005389559   -0.014628117
      6        7           0.006271581   -0.014267888    0.008049781
      7        6           0.001356014   -0.002330247    0.003549038
      8        6          -0.006762803    0.010754239   -0.007056439
      9        6          -0.009284569    0.005865136   -0.000394131
     10        6           0.006485850    0.010068826    0.001094831
     11        6           0.009230392   -0.008377651    0.009014421
     12        6           0.014121124   -0.052269909    0.008610967
     13        6          -0.027757081    0.003887717    0.000935983
     14        6          -0.013170607    0.004766903   -0.012383877
     15        6           0.007752175    0.003789151    0.067345948
     16        8          -0.020453304   -0.011720068   -0.049063671
     17        1           0.021438444   -0.025745117    0.021230949
     18        1           0.003228082   -0.002318751    0.011571833
     19        1          -0.001373738    0.001510964    0.006112091
     20        1          -0.006288266    0.003946080    0.001346353
     21        1           0.002040013    0.001532011   -0.000207518
     22        1           0.005601677    0.006362368   -0.012528557
     23        1          -0.007483319    0.001732302   -0.015543701
     24        1           0.005080743    0.032342097   -0.008154511
 -------------------------------------------------------------------
 Cartesian Forces:  Max     0.101331382 RMS     0.023797599

 GradGradGradGradGradGradGradGradGradGradGradGradGradGradGradGradGradGrad
 Berny optimization.
 FormGI is forming the generalized inverse of G from B-inverse, IUseBI=4.
 Internal  Forces:  Max     0.091167926 RMS     0.018190813
 Search for a local minimum.
 Step number   1 out of a maximum of  128
 All quantities printed in internal units (Hartrees-Bohrs-Radians)
 Mixed Optimization -- RFO/linear search
 Second derivative matrix not updated -- first step.
 ITU=  0
     Eigenvalues ---    0.00230   0.00282   0.00557   0.00651   0.00983
     Eigenvalues ---    0.01135   0.01142   0.01263   0.01334   0.01693
     Eigenvalues ---    0.01851   0.01910   0.01912   0.02037   0.02155
     Eigenvalues ---    0.02358   0.02483   0.02879   0.03735   0.04961
     Eigenvalues ---    0.07664   0.12657   0.13652   0.14121   0.15445
     Eigenvalues ---    0.15907   0.15979   0.15988   0.15989   0.15999
     Eigenvalues ---    0.21129   0.22003   0.22286   0.23243   0.23957
     Eigenvalues ---    0.24081   0.24481   0.24583   0.24971   0.25000
     Eigenvalues ---    0.25000   0.26835   0.28335   0.28740   0.30272
     Eigenvalues ---    0.33450   0.34407   0.34451   0.34788   0.34900
     Eigenvalues ---    0.35624   0.35639   0.35934   0.36148   0.37954
     Eigenvalues ---    0.38419   0.41896   0.42133   0.44245   0.48112
     Eigenvalues ---    0.53809   0.54646   0.55915   0.71719   0.87630
     Eigenvalues ---    0.87982
 RFO step:  Lambda=-9.72283504D-02 EMin= 2.30000000D-03
 Linear search not attempted -- first point.
 Maximum step size (   0.300) exceeded in Quadratic search.
    -- Step size scaled by   0.650
 Iteration  1 RMS(Cart)=  0.10921481 RMS(Int)=  0.00314857
 Iteration  2 RMS(Cart)=  0.00581918 RMS(Int)=  0.00063634
 Iteration  3 RMS(Cart)=  0.00000678 RMS(Int)=  0.00063631
 Iteration  4 RMS(Cart)=  0.00000001 RMS(Int)=  0.00063631
 Variable       Old X    -DE/DX   Delta X   Delta X   Delta X     New X
                                 (Linear)    (Quad)   (Total)
    R1        2.33877  -0.05408   0.00000  -0.03600  -0.03600   2.30278
    R2        2.73761  -0.02961   0.00000  -0.04000  -0.04000   2.69761
    R3        2.86416   0.09117   0.00000   0.07280   0.07280   2.93696
    R4        3.12454   0.00390   0.00000   0.00489   0.00489   3.12943
    R5        2.48911   0.03679   0.00000   0.06287   0.06287   2.55198
    R6        2.79949  -0.03388   0.00000  -0.04992  -0.04992   2.74957
    R7        1.92862  -0.00922   0.00000  -0.01111  -0.01111   1.91751
    R8        2.77908  -0.02524   0.00000  -0.03897  -0.03916   2.73993
    R9        2.94073  -0.04251   0.00000  -0.08165  -0.08164   2.85909
   R10        2.59065  -0.00681   0.00000  -0.00863  -0.00863   2.58202
   R11        2.83954   0.00330   0.00000   0.00521   0.00533   2.84486
   R12        2.79654  -0.01199   0.00000  -0.01813  -0.01824   2.77830
   R13        2.04673  -0.00015   0.00000  -0.00022  -0.00022   2.04652
   R14        2.53470   0.01912   0.00000   0.01964   0.01957   2.55427
   R15        2.04650  -0.00050   0.00000  -0.00072  -0.00072   2.04578
   R16        2.72312   0.00645   0.00000   0.00980   0.00987   2.73299
   R17        2.03851   0.00006   0.00000   0.00008   0.00008   2.03859
   R18        2.53147   0.01177   0.00000   0.01368   0.01393   2.54540
   R19        2.67391   0.02830   0.00000   0.03589   0.03629   2.71020
   R20        2.05838  -0.00044   0.00000  -0.00064  -0.00064   2.05774
   R21        2.54172   0.03914   0.00000   0.04244   0.04214   2.58386
   R22        2.04185   0.00857   0.00000   0.01221   0.01221   2.05407
   R23        2.89599  -0.03317   0.00000  -0.05697  -0.05714   2.83885
   R24        2.06576  -0.00628   0.00000  -0.00924  -0.00924   2.05652
   R25        2.34045  -0.04017   0.00000  -0.02684  -0.02684   2.31361
    A1        1.96423  -0.00685   0.00000  -0.01284  -0.01284   1.95140
    A2        1.87343   0.00665   0.00000   0.01246   0.01246   1.88589
    A3        1.81856  -0.04357   0.00000  -0.08191  -0.08188   1.73669
    A4        1.74869   0.02331   0.00000   0.06377   0.06237   1.81106
    A5        1.78338  -0.01170   0.00000  -0.03775  -0.03659   1.74679
    A6        2.12025   0.00547   0.00000   0.01121   0.01121   2.13145
    A7        2.15081  -0.00445   0.00000  -0.00996  -0.00996   2.14085
    A8        2.01103  -0.00103   0.00000  -0.00130  -0.00130   2.00973
    A9        1.95403  -0.00809   0.00000  -0.00625  -0.00696   1.94707
   A10        2.02552  -0.01047   0.00000  -0.01296  -0.01331   2.01221
   A11        2.23752   0.02207   0.00000   0.03681   0.03660   2.27413
   A12        2.28150  -0.03404   0.00000  -0.06034  -0.06029   2.22121
   A13        2.21585   0.01469   0.00000   0.02481   0.02463   2.24048
   A14        1.78550   0.01938   0.00000   0.03567   0.03579   1.82129
   A15        1.93707  -0.00601   0.00000  -0.01522  -0.01536   1.92171
   A16        2.25515  -0.00340   0.00000  -0.00866  -0.00859   2.24657
   A17        2.09010   0.00935   0.00000   0.02380   0.02386   2.11396
   A18        1.91610   0.00059   0.00000   0.00275   0.00254   1.91863
   A19        2.20503  -0.00765   0.00000  -0.01995  -0.01986   2.18517
   A20        2.16203   0.00707   0.00000   0.01726   0.01735   2.17938
   A21        1.84997   0.00466   0.00000   0.01355   0.01347   1.86344
   A22        2.25845  -0.00212   0.00000  -0.00625  -0.00624   2.25221
   A23        2.17441  -0.00263   0.00000  -0.00766  -0.00767   2.16673
   A24        1.93595  -0.01857   0.00000  -0.03645  -0.03650   1.89944
   A25        2.17825  -0.00671   0.00000  -0.00873  -0.00845   2.16980
   A26        2.16621   0.02546   0.00000   0.04602   0.04573   2.21194
   A27        1.93843  -0.02747   0.00000  -0.04688  -0.04649   1.89194
   A28        2.20982   0.00359   0.00000  -0.00139  -0.00217   2.20765
   A29        2.09440   0.02585   0.00000   0.06290   0.06211   2.15651
   A30        2.32207   0.00130   0.00000  -0.00020  -0.00058   2.32150
   A31        1.90287  -0.00669   0.00000  -0.02043  -0.02008   1.88280
   A32        1.84378   0.00486   0.00000   0.01860   0.01853   1.86231
   A33        1.81524   0.01352   0.00000   0.03350   0.03300   1.84823
   A34        2.09615   0.01914   0.00000   0.04970   0.04979   2.14594
   A35        2.36471  -0.03282   0.00000  -0.08428  -0.08394   2.28077
   A36        2.09949  -0.01665   0.00000  -0.04196  -0.04283   2.05666
   A37        2.17230  -0.03445   0.00000  -0.06050  -0.06077   2.11153
   A38        2.01007   0.05063   0.00000   0.09921   0.09827   2.10833
    D1        3.01426   0.00557   0.00000   0.03493   0.03493   3.04920
    D2        3.10739  -0.00415   0.00000  -0.00121  -0.00267   3.10472
    D3        1.26673   0.01219   0.00000   0.04002   0.04149   1.30821
    D4       -2.93405  -0.00763   0.00000  -0.03430  -0.03513  -2.96918
    D5        0.15478  -0.00780   0.00000  -0.03560  -0.03644   0.11834
    D6       -1.11951   0.00120   0.00000  -0.00129  -0.00046  -1.11997
    D7        1.96932   0.00103   0.00000  -0.00260  -0.00177   1.96755
    D8       -3.09179   0.00980   0.00000   0.04520   0.04470  -3.04709
    D9        0.39998  -0.00410   0.00000  -0.00762  -0.00713   0.39285
   D10        0.09859   0.01008   0.00000   0.04669   0.04620   0.14479
   D11       -2.69283  -0.00382   0.00000  -0.00612  -0.00563  -2.69846
   D12        0.73469   0.00040   0.00000  -0.01548  -0.01531   0.71939
   D13       -2.37436  -0.00200   0.00000  -0.02322  -0.02275  -2.39711
   D14       -2.80991   0.00703   0.00000   0.03112   0.03178  -2.77814
   D15        0.36422   0.00464   0.00000   0.02338   0.02433   0.38856
   D16        2.17814   0.01072   0.00000   0.07229   0.07143   2.24957
   D17       -1.02136   0.00213   0.00000   0.00421   0.00661  -1.01475
   D18       -0.54660   0.00300   0.00000   0.02220   0.02117  -0.52543
   D19        2.53709  -0.00558   0.00000  -0.04588  -0.04365   2.49343
   D20       -3.12610  -0.00498   0.00000  -0.01463  -0.01469  -3.14079
   D21        0.06091  -0.00357   0.00000  -0.01305  -0.01295   0.04796
   D22       -0.01112  -0.00284   0.00000  -0.00802  -0.00838  -0.01951
   D23       -3.10730  -0.00143   0.00000  -0.00644  -0.00665  -3.11395
   D24        3.11696   0.00656   0.00000   0.02559   0.02590  -3.14032
   D25        0.05281   0.00279   0.00000   0.01187   0.01256   0.06538
   D26        0.00061   0.00555   0.00000   0.02110   0.02128   0.02189
   D27       -3.06353   0.00178   0.00000   0.00738   0.00794  -3.05560
   D28        0.01924  -0.00100   0.00000  -0.00836  -0.00828   0.01096
   D29       -3.13027   0.00028   0.00000  -0.00155  -0.00137  -3.13164
   D30        3.12031  -0.00259   0.00000  -0.01061  -0.01072   3.10958
   D31       -0.02921  -0.00131   0.00000  -0.00379  -0.00381  -0.03302
   D32       -0.01745   0.00428   0.00000   0.02071   0.02109   0.00364
   D33        3.09566   0.00075   0.00000   0.00680   0.00711   3.10278
   D34        3.13183   0.00311   0.00000   0.01430   0.01442  -3.13694
   D35       -0.03824  -0.00041   0.00000   0.00039   0.00043  -0.03781
   D36        0.01090  -0.00632   0.00000  -0.02668  -0.02655  -0.01565
   D37        3.07568  -0.00426   0.00000  -0.01593  -0.01581   3.05987
   D38       -3.10397  -0.00301   0.00000  -0.01363  -0.01343  -3.11740
   D39       -0.03918  -0.00095   0.00000  -0.00288  -0.00269  -0.04187
   D40        0.24627  -0.00211   0.00000  -0.03623  -0.03523   0.21104
   D41        3.08236   0.00891   0.00000   0.02743   0.02755   3.10992
   D42       -2.80792  -0.00424   0.00000  -0.04778  -0.04690  -2.85482
   D43        0.02817   0.00678   0.00000   0.01588   0.01588   0.04405
   D44       -1.63613   0.00984   0.00000   0.04149   0.04225  -1.59388
   D45        0.72746   0.01011   0.00000   0.04379   0.04450   0.77195
   D46        1.78798   0.00325   0.00000  -0.00626  -0.00626   1.78172
   D47       -2.13162   0.00353   0.00000  -0.00396  -0.00402  -2.13564
   D48        1.58910   0.01096   0.00000   0.05017   0.05027   1.63937
   D49       -1.44382   0.01482   0.00000   0.06517   0.06588  -1.37793
   D50       -0.79234   0.01418   0.00000   0.05961   0.05967  -0.73267
   D51        2.45793   0.01804   0.00000   0.07460   0.07528   2.53320
   D52       -0.12954  -0.00729   0.00000  -0.05161  -0.05229  -0.18183
   D53        3.06480   0.00303   0.00000   0.01505   0.01746   3.08226
   D54        2.87780  -0.00607   0.00000  -0.05470  -0.05563   2.82217
   D55       -0.21105   0.00425   0.00000   0.01195   0.01411  -0.19693
         Item               Value     Threshold  Converged?
 Maximum Force            0.091168     0.000450     NO 
 RMS     Force            0.018191     0.000300     NO 
 Maximum Displacement     0.582697     0.001800     NO 
 RMS     Displacement     0.110641     0.001200     NO 
 Predicted change in Energy=-4.964330D-02
 GradGradGradGradGradGradGradGradGradGradGradGradGradGradGradGradGradGrad

                          Input orientation:                          
 ---------------------------------------------------------------------
 Center     Atomic      Atomic             Coordinates (Angstroms)
 Number     Number       Type             X           Y           Z
 ---------------------------------------------------------------------
      1          8           0        1.234720   -0.144385   -0.504530
      2          7           0        2.436741   -0.047582   -0.329297
      3          7           0        3.177433   -0.677254   -1.374609
      4         16           0        4.685882   -0.387116   -1.138272
      5          7           0        5.330087   -1.242625   -2.401411
      6          7           0        6.760342   -1.478893   -2.526293
      7          6           0        7.084093   -2.139788   -3.775545
      8          6           0        6.554133   -1.883683   -5.008614
      9          6           0        7.152119   -2.777361   -6.011250
     10          6           0        8.043484   -3.603143   -5.419184
     11          6           0        8.046952   -3.272799   -4.011187
     12          6           0        8.725161   -3.908286   -3.036243
     13          6           0        8.166493   -3.524854   -1.772230
     14          6           0        8.460251   -2.524548   -0.887548
     15          6           0        7.546026   -1.384805   -1.236754
     16          8           0        7.538119   -0.359770   -0.567294
     17          1           0        5.012444   -1.200452   -0.110871
     18          1           0        4.757053   -1.677703   -3.116926
     19          1           0        5.834675   -1.125680   -5.292577
     20          1           0        6.915218   -2.777381   -7.067590
     21          1           0        8.630010   -4.395876   -5.856583
     22          1           0        9.407292   -4.747520   -3.163154
     23          1           0        7.083746   -3.553047   -1.863654
     24          1           0        9.294036   -2.577029   -0.190147
 ---------------------------------------------------------------------
                    Distance matrix (angstroms):
                    1          2          3          4          5
     1  O    0.000000
     2  N    1.218577   0.000000
     3  N    2.194337   1.427512   0.000000
     4  S    3.517252   2.414200   1.554173   0.000000
     5  N    4.645031   3.754096   2.451099   1.656024   0.000000
     6  N    6.033318   5.056577   3.847887   2.724328   1.455007
     7  C    6.992591   6.152385   4.813054   3.972214   2.402016
     8  C    7.183876   6.497707   5.105249   4.550783   2.950720
     9  C    8.501302   7.872171   6.458097   5.961670   4.325061
    10  C    9.081635   8.365676   6.971217   6.320010   4.694840
    11  C    8.275875   7.445322   6.115604   5.279924   3.754243
    12  C    8.756896   7.859824   6.631583   5.684779   4.362945
    13  C    7.815632   6.855913   5.758268   4.728843   3.694541
    14  C    7.617097   6.536795   5.617642   4.344806   3.705811
    15  C    6.473590   5.358772   4.427668   3.030760   2.507394
    16  O    6.307390   5.116460   4.446138   2.908955   3.003135
    17  H    3.942263   2.830383   2.288676   1.350448   2.312844
    18  H    4.645697   3.976433   2.555732   2.363420   1.014704
    19  H    6.711775   6.110844   4.755260   4.373037   2.937197
    20  H    9.070527   8.538920   7.126823   6.770533   5.161525
    21  H   10.070251   9.370973   7.977897   7.340897   5.724569
    22  H    9.749260   8.871796   7.653569   6.738322   5.430299
    23  H    6.904875   6.019734   4.875309   4.037208   2.950009
    24  H    8.424319   7.310264   6.513442   5.189388   4.731090
                    6          7          8          9         10
     6  N    0.000000
     7  C    1.449906   0.000000
     8  C    2.523548   1.366348   0.000000
     9  C    3.739577   2.325834   1.470213   0.000000
    10  C    3.811524   2.400706   2.311553   1.351662   0.000000
    11  C    2.660522   1.505436   2.270025   2.246428   1.446235
    12  C    3.165836   2.523343   3.564075   3.550229   2.497240
    13  C    2.594576   2.665195   3.970809   4.422328   3.649867
    14  C    2.582358   3.222170   4.585540   5.294096   4.676836
    15  C    1.512964   2.688650   3.931877   4.989006   4.760379
    16  O    2.386430   3.696955   4.797485   5.969120   5.857960
    17  H    2.994485   4.313226   5.179913   6.471424   6.567977
    18  H    2.097985   2.462198   2.617328   3.914422   4.450656
    19  H    2.938358   2.211526   1.082970   2.231636   3.321549
    20  H    4.725827   3.357470   2.273425   1.082578   2.161506
    21  H    4.805755   3.436642   3.367407   2.197197   1.078775
    22  H    4.253923   3.545778   4.443850   4.132673   2.873890
    23  H    2.201316   2.377525   3.599727   4.220061   3.683124
    24  H    3.617055   4.234396   5.586181   6.205899   5.473538
                   11         12         13         14         15
    11  C    0.000000
    12  C    1.346969   0.000000
    13  C    2.256268   1.434175   0.000000
    14  C    3.238490   2.569396   1.367321   0.000000
    15  C    3.393070   3.316094   2.291620   1.502254   0.000000
    16  O    4.539278   4.482939   3.444485   2.374691   1.224310
    17  H    5.358668   5.447425   4.255700   3.774100   2.778603
    18  H    3.763970   4.552790   4.104200   4.404651   3.376271
    19  H    3.338600   4.603135   4.856568   5.315521   4.409713
    20  H    3.296644   4.561425   5.492289   6.375262   6.027921
    21  H    2.237576   2.863759   4.201840   5.312438   5.619999
    22  H    2.178184   1.088909   2.229162   3.319168   4.299207
    23  H    2.370274   2.048268   1.086965   1.976198   2.303905
    24  H    4.079174   3.193137   2.161646   1.088264   2.360577
                   16         17         18         19         20
    16  O    0.000000
    17  H    2.700759   0.000000
    18  H    3.996486   3.054401   0.000000
    19  H    5.081008   5.247069   2.489871   0.000000
    20  H    6.963239   7.382628   4.634081   2.654498   0.000000
    21  H    6.742326   7.504047   5.467539   4.338915   2.650769
    22  H    5.429977   6.419721   5.572310   5.515049   5.033537
    23  H    3.476208   3.591273   3.240541   4.382899   5.264124
    24  H    2.853370   4.498142   5.473485   6.333118   7.279982
                   21         22         23         24
    21  H    0.000000
    22  H    2.825310   0.000000
    23  H    4.364032   2.917933   0.000000
    24  H    5.988124   3.682748   2.939152   0.000000
 Stoichiometry    C9H8N4O2S
 Framework group  C1[X(C9H8N4O2S)]
 Deg. of freedom    66
 Full point group                 C1      NOp   1
 Largest Abelian subgroup         C1      NOp   1
 Largest concise Abelian subgroup C1      NOp   1
                         Standard orientation:                         
 ---------------------------------------------------------------------
 Center     Atomic      Atomic             Coordinates (Angstroms)
 Number     Number       Type             X           Y           Z
 ---------------------------------------------------------------------
      1          8           0       -5.253518   -1.147248    0.775817
      2          7           0       -4.475948   -0.327729    0.318975
      3          7           0       -3.128512   -0.797760    0.354718
      4         16           0       -2.233987    0.248962   -0.366151
      5          7           0       -0.753796   -0.461778   -0.150977
      6          7           0        0.488432    0.227285   -0.465794
      7          6           0        1.635798   -0.645607   -0.311388
      8          6           0        1.733893   -1.956708   -0.683269
      9          6           0        3.067214   -2.478398   -0.349168
     10          6           0        3.805058   -1.512451    0.242037
     11          6           0        2.969369   -0.334294    0.313920
     12          6           0        3.275001    0.835186    0.908252
     13          6           0        2.063630    1.581386    1.088872
     14          6           0        1.414459    2.506488    0.319240
     15          6           0        0.403317    1.737756   -0.482889
     16          8           0       -0.377733    2.316598   -1.227093
     17          1           0       -2.142167    1.260535    0.523793
     18          1           0       -0.643823   -1.387063    0.250740
     19          1           0        1.002947   -2.573097   -1.191802
     20          1           0        3.410076   -3.486355   -0.545237
     21          1           0        4.806943   -1.569229    0.637964
     22          1           0        4.215861    1.087901    1.394709
     23          1           0        1.304834    0.899875    1.464725
     24          1           0        1.721467    3.548960    0.261653
 ---------------------------------------------------------------------
 Rotational constants (GHZ):           0.9099664           0.2730473           0.2268545
 Standard basis: 6-31G(2df,p) (6D, 7F)
 There are   540 symmetry adapted cartesian basis functions of A   symmetry.
 There are   492 symmetry adapted basis functions of A   symmetry.
   492 basis functions,   784 primitive gaussians,   540 cartesian basis functions
    61 alpha electrons       61 beta electrons
       nuclear repulsion energy      1157.0856703568 Hartrees.
 NAtoms=   24 NActive=   24 NUniq=   24 SFac= 1.00D+00 NAtFMM=   60 NAOKFM=F Big=F
 Integral buffers will be    131072 words long.
 Raffenetti 2 integral format.
 Two-electron integral symmetry is turned on.
 One-electron integrals computed using PRISM.
 PrsmSu:  requested number of processors reduced to:  12 ShMem   1 Linda.
 NBasis=   492 RedAO= T EigKep=  1.99D-04  NBF=   492
 NBsUse=   492 1.00D-06 EigRej= -1.00D+00 NBFU=   492
 Initial guess from the checkpoint file:  "OdNNd[SH]Nn1c2cccc-2cccc1dO.chk"
 B after Tr=     0.000000    0.000000   -0.000000
         Rot=    0.999880   -0.012199   -0.003146    0.009059 Ang=  -1.78 deg.
 ExpMin= 1.17D-01 ExpMax= 2.19D+04 ExpMxC= 3.30D+03 IAcc=2 IRadAn=         4 AccDes= 0.00D+00
 Harris functional with IExCor=  402 and IRadAn=       4 diagonalized for initial guess.
 HarFok:  IExCor=  402 AccDes= 0.00D+00 IRadAn=         4 IDoV= 1 UseB2=F ITyADJ=14
 ICtDFT=  3500011 ScaDFX=  1.000000  1.000000  1.000000  1.000000
 FoFCou: FMM=F IPFlag=           0 FMFlag=      100000 FMFlg1=           0
         NFxFlg=           0 DoJE=T BraDBF=F KetDBF=T FulRan=T
         wScrn=  0.000000 ICntrl=       500 IOpCl=  0 I1Cent=   200000004 NGrid=           0
         NMat0=    1 NMatS0=      1 NMatT0=    0 NMatD0=    1 NMtDS0=    0 NMtDT0=    0
 Petite list used in FoFCou.
 Requested convergence on RMS density matrix=1.00D-08 within 128 cycles.
 Requested convergence on MAX density matrix=1.00D-06.
 Requested convergence on             energy=1.00D-06.
 No special actions if energy rises.
 Integral accuracy reduced to 1.0D-05 until final iterations.
 Initial convergence to 1.0D-05 achieved.  Increase integral accuracy.
 SCF Done:  E(RB3LYP) =  -1115.03794598     A.U. after   15 cycles
            NFock= 15  Conv=0.50D-08     -V/T= 2.0058
 PrsmSu:  requested number of processors reduced to:  13 ShMem   1 Linda.
 Calling FoFJK, ICntrl=      2127 FMM=F ISym2X=0 I1Cent= 0 IOpClX= 0 NMat=1 NMatS=1 NMatT=0.
 ***** Axes restored to original set *****
 -------------------------------------------------------------------
 Center     Atomic                   Forces (Hartrees/Bohr)
 Number     Number              X              Y              Z
 -------------------------------------------------------------------
      1        8           0.023628450    0.000411417    0.004603066
      2        7          -0.012393687   -0.007112944   -0.022376778
      3        7          -0.062990276   -0.003500601   -0.002714829
      4       16           0.043877293    0.029383133    0.010101180
      5        7           0.022745860    0.004269579   -0.010346425
      6        7           0.000268764   -0.018968356    0.007267163
      7        6          -0.000792691    0.003808472    0.003325845
      8        6          -0.004466365    0.006166330   -0.007056326
      9        6          -0.002311934    0.000827497    0.002784170
     10        6           0.002746818    0.008639946   -0.000152580
     11        6           0.008097316   -0.005449031    0.001416962
     12        6           0.005884910   -0.035690737    0.008022061
     13        6          -0.018320462    0.014353047    0.011044552
     14        6          -0.013670330   -0.008129420   -0.018197588
     15        6           0.010412216   -0.000503413    0.034595947
     16        8          -0.014629197   -0.005966916   -0.021570547
     17        1           0.009264700   -0.013939511    0.011337256
     18        1          -0.001281774   -0.002012139    0.008452661
     19        1          -0.000175916    0.000647657    0.005096557
     20        1          -0.003735253    0.001861541    0.001258618
     21        1           0.001567335    0.001208584   -0.000777573
     22        1           0.002815346    0.005983602   -0.007973690
     23        1          -0.000864509    0.000565766   -0.008803915
     24        1           0.004323385    0.023146499   -0.009335789
 -------------------------------------------------------------------
 Cartesian Forces:  Max     0.062990276 RMS     0.014695725

 GradGradGradGradGradGradGradGradGradGradGradGradGradGradGradGradGradGrad
 Berny optimization.
 Using GEDIIS/GDIIS optimizer.
 FormGI is forming the generalized inverse of G from B-inverse, IUseBI=4.
 Internal  Forces:  Max     0.055252572 RMS     0.010542428
 Search for a local minimum.
 Step number   2 out of a maximum of  128
 All quantities printed in internal units (Hartrees-Bohrs-Radians)
 Mixed Optimization -- RFO/linear search
 Update second derivatives using D2CorX and points    1    2
 DE= -5.07D-02 DEPred=-4.96D-02 R= 1.02D+00
 TightC=F SS=  1.41D+00  RLast= 3.78D-01 DXNew= 5.0454D-01 1.1347D+00
 Trust test= 1.02D+00 RLast= 3.78D-01 DXMaxT set to 5.05D-01
 ITU=  1  0
 Use linear search instead of GDIIS.
     Eigenvalues ---    0.00230   0.00304   0.00550   0.00653   0.00961
     Eigenvalues ---    0.01102   0.01137   0.01250   0.01486   0.01692
     Eigenvalues ---    0.01872   0.01912   0.01926   0.02005   0.02156
     Eigenvalues ---    0.02367   0.02460   0.02907   0.03723   0.05020
     Eigenvalues ---    0.08190   0.12556   0.13780   0.14114   0.14982
     Eigenvalues ---    0.15726   0.15971   0.15978   0.15989   0.16104
     Eigenvalues ---    0.20344   0.21693   0.22268   0.23490   0.23870
     Eigenvalues ---    0.24128   0.24218   0.24551   0.24762   0.25000
     Eigenvalues ---    0.25862   0.26564   0.28063   0.28992   0.30314
     Eigenvalues ---    0.33354   0.33894   0.34450   0.34697   0.34934
     Eigenvalues ---    0.35627   0.35639   0.36084   0.36150   0.37892
     Eigenvalues ---    0.38077   0.41787   0.42133   0.44250   0.48123
     Eigenvalues ---    0.54567   0.55774   0.56565   0.67300   0.87759
     Eigenvalues ---    0.88312
 RFO step:  Lambda=-2.97321153D-02 EMin= 2.30159015D-03
 Quartic linear search produced a step of  1.45725.
 Iteration  1 RMS(Cart)=  0.25952226 RMS(Int)=  0.02950664
 Iteration  2 RMS(Cart)=  0.07460628 RMS(Int)=  0.00477278
 Iteration  3 RMS(Cart)=  0.00308259 RMS(Int)=  0.00444018
 Iteration  4 RMS(Cart)=  0.00001136 RMS(Int)=  0.00444017
 Iteration  5 RMS(Cart)=  0.00000011 RMS(Int)=  0.00444017
 Variable       Old X    -DE/DX   Delta X   Delta X   Delta X     New X
                                 (Linear)    (Quad)   (Total)
    R1        2.30278  -0.02400  -0.05245   0.01437  -0.03808   2.26470
    R2        2.69761  -0.02180  -0.05829  -0.03025  -0.08854   2.60907
    R3        2.93696   0.05525   0.10609   0.01601   0.12210   3.05906
    R4        3.12943   0.00289   0.00713   0.00378   0.01091   3.14034
    R5        2.55198   0.01926   0.09162  -0.00887   0.08274   2.63472
    R6        2.74957  -0.02133  -0.07275  -0.01575  -0.08850   2.66107
    R7        1.91751  -0.00437  -0.01619   0.00352  -0.01267   1.90484
    R8        2.73993  -0.01526  -0.05706  -0.00846  -0.06534   2.67459
    R9        2.85909  -0.02569  -0.11897  -0.01790  -0.13645   2.72264
   R10        2.58202  -0.00319  -0.01258   0.00305  -0.00946   2.57256
   R11        2.84486   0.00319   0.00776   0.01058   0.02012   2.86498
   R12        2.77830  -0.00667  -0.02658  -0.00027  -0.02740   2.75090
   R13        2.04652  -0.00077  -0.00032  -0.00409  -0.00441   2.04211
   R14        2.55427   0.00733   0.02852  -0.01296   0.01510   2.56937
   R15        2.04578  -0.00041  -0.00105  -0.00079  -0.00184   2.04393
   R16        2.73299   0.00310   0.01438  -0.00293   0.01180   2.74479
   R17        2.03859   0.00028   0.00012   0.00146   0.00158   2.04017
   R18        2.54540   0.00682   0.02030   0.00252   0.02441   2.56981
   R19        2.71020   0.01639   0.05288   0.00438   0.05754   2.76774
   R20        2.05774  -0.00192  -0.00094  -0.01023  -0.01116   2.04658
   R21        2.58386   0.00766   0.06141  -0.05381   0.00502   2.58889
   R22        2.05407   0.00159   0.01780  -0.01881  -0.00101   2.05305
   R23        2.83885  -0.02398  -0.08327  -0.04148  -0.12597   2.71288
   R24        2.05652  -0.00379  -0.01347  -0.00189  -0.01536   2.04116
   R25        2.31361  -0.01670  -0.03911   0.01362  -0.02549   2.28812
    A1        1.95140   0.00052  -0.01871   0.03588   0.01717   1.96856
    A2        1.88589  -0.00092   0.01816  -0.03827  -0.02011   1.86578
    A3        1.73669  -0.02430  -0.11931  -0.00077  -0.11980   1.61689
    A4        1.81106   0.01007   0.09088  -0.04150   0.04546   1.85652
    A5        1.74679  -0.00361  -0.05332   0.03534  -0.01477   1.73202
    A6        2.13145   0.00795   0.01633   0.04550   0.06178   2.19323
    A7        2.14085  -0.00785  -0.01452  -0.05792  -0.07251   2.06834
    A8        2.00973  -0.00008  -0.00189   0.01339   0.01145   2.02118
    A9        1.94707  -0.00317  -0.01014   0.03557   0.00829   1.95536
   A10        2.01221  -0.00420  -0.01940   0.03738   0.00085   2.01306
   A11        2.27413   0.01036   0.05334   0.00184   0.04052   2.31465
   A12        2.22121  -0.01787  -0.08786   0.00903  -0.07975   2.14147
[...]
 367431,0.03337369,-0.13826508,-0.00217916,0.15685632,0.12313271,0.0001
 1437,-0.00005813,0.00002386,-0.00016940,0.00015703,-0.00011976,0.00017
 638,0.00097316,0.00034126,-0.00044844,-0.00223511,-0.00142646,0.000456
 19,-0.00158263,-0.00005536,-0.00101285,0.01751718,-0.00603066,-0.00123
 174,0.00609362,0.00131729,0.00008939,-0.00018184,-0.00131475,-0.000983
 92,-0.00025140,0.00051480,0.00054281,-0.00017486,0.00051977,0.00033345
 ,0.00007033,-0.00024330,-0.00140100,0.00088998,0.00062925,-0.00038965,
 -0.00205148,0.00431024,-0.00358911,0.02298691,-0.00225608,0.00071583,-
 0.07160832,0.00195433,0.00448359,0.03046519,-0.00005952,0.00035645,-0.
 00076585,-0.00086343,-0.00073743,0.00107745,-0.00005234,0.00300439,-0.
 00011695,-0.00200024,-0.00278248,-0.00385332,0.00776590,-0.00182054,0.
 00213333,-0.02894416,-0.00042841,-0.09228607,-0.01091731,0.00338139,0.
 00396332,0.00110105,-0.00107212,-0.00108434,0.00080511,-0.00106913,-0.
 00053033,-0.00004153,-0.00023997,-0.00262947,0.00049280,-0.00110041,-0
 .00024606,-0.00103769,-0.00182881,-0.00140443,-0.00291706,0.00493665,-
 0.00237349,0.02508342,-0.00016003,-0.02319769,0.16813247,0.00018854,-0
 .70997195,-0.15551497,0.00165946,0.83241337,-0.00063250,0.00359063,-0.
 00226194,-0.00108529,-0.00630598,-0.00063138,0.01169142,0.01223982,-0.
 01241373,-0.14452791,-0.07331590,0.09596665,-0.01339761,-0.00363295,0.
 00357319,-0.00032534,0.00387375,0.00281108,-0.00076634,0.00064108,-0.0
 0128000,0.00013924,0.00000169,0.00016482,0.00009193,-0.00006179,-0.000
 06239,-0.00012350,0.00008322,0.00002487,0.00003798,-0.00024188,0.00022
 456,0.00000949,0.00001619,-0.00001316,-0.00009566,-0.00013503,0.000029
 30,-0.00015334,0.00007659,-0.00000977,0.00116568,-0.00014132,0.0017057
 9,0.00013230,-0.00005818,-0.00094596,0.14762605,0.00087683,-0.00155576
 ,-0.00010593,-0.00113515,0.00398473,0.00596920,0.00172837,-0.00693764,
 0.00405667,-0.09096132,-0.07580926,0.06461585,0.02404448,0.00195937,-0
 .00862811,0.00146111,-0.00342540,-0.00494400,0.00167611,-0.00069817,0.
 00115198,-0.00016352,-0.00005623,-0.00022537,-0.00009335,0.00009364,0.
 00001968,0.00013346,-0.00011280,-0.00005777,-0.00005084,0.00041995,-0.
 00030514,-0.00003751,-0.00003838,-0.00001508,0.00016515,0.00020592,-0.
 00002050,0.00034513,-0.00017740,0.00001948,-0.00085617,-0.00025690,-0.
 00132621,0.00007933,0.00011770,0.00072106,0.06325824,0.08232324,0.0005
 1148,0.00408197,-0.00117517,-0.00474456,-0.00866078,-0.00341586,0.0120
 5330,0.02096802,-0.01088748,0.06460096,0.04336230,-0.07548847,0.012874
 96,0.00343846,-0.00286406,0.00237215,-0.00350912,0.00037883,0.00034643
 ,-0.00030573,0.00069573,-0.00015680,0.00001336,-0.00020633,-0.00013678
 ,0.00006732,0.00005874,0.00008913,-0.00002983,0.00013003,-0.00000802,0
 .00010310,-0.00012246,0.00001924,-0.00002550,0.00008308,0.00012233,0.0
 0007442,-0.00003965,0.00012066,0.00002180,-0.00001602,0.00002330,-0.00
 048224,-0.00094265,-0.00012487,0.00010039,0.00037700,-0.08755737,-0.05
 999011,0.09479262,-0.00003701,0.00054516,-0.00083536,-0.00089964,-0.00
 063170,0.00000164,0.00019809,-0.00270518,-0.00052226,0.00900734,0.0127
 0425,0.01017549,-0.15857388,-0.10487213,-0.10949167,-0.03479686,-0.018
 67270,-0.02455378,0.00025884,0.00049127,-0.00206883,0.00070156,-0.0000
 6548,0.00033237,-0.00005283,0.00038803,0.00047510,0.00053533,-0.000472
 83,0.00007531,-0.00020656,0.00042613,-0.00018328,0.00047585,0.00007497
 ,0.00000072,-0.00030485,-0.00081467,-0.00020552,-0.00157401,0.00159571
 ,-0.00053058,-0.00141819,-0.00314766,0.00707031,0.00137971,-0.00010351
 ,-0.00122364,0.00025225,-0.00052825,-0.00037579,0.18450637,-0.00007047
 ,0.00051904,-0.00080169,-0.00014702,-0.00109718,0.00079422,-0.00022331
 ,0.00512514,0.00460345,-0.00498178,-0.02917388,-0.02473056,-0.11008786
 ,-0.14235028,-0.13457524,-0.00434525,0.00290066,0.00130899,0.00073071,
 -0.00032382,0.00146875,-0.00143835,-0.00043987,-0.00066056,-0.00000470
 ,0.00043845,0.00031636,0.00060375,-0.00018994,0.00006208,0.00026116,0.
 00028627,-0.00061026,-0.00015587,-0.00015639,0.00006249,0.00035860,-0.
 00005588,-0.00013071,0.00011238,0.00010050,0.00026377,0.00153645,0.000
 20734,0.00134635,0.00131352,-0.00026997,-0.00017170,-0.00006333,0.0003
 2279,0.00074755,0.11607274,0.16490371,-0.00002281,-0.00005164,-0.00043
 459,-0.00050354,0.00020665,-0.00027112,0.00047403,0.00120568,-0.000548
 42,-0.00418741,0.00756907,0.00139593,-0.13924027,-0.17201994,-0.170481
 96,0.02043807,0.01197751,0.00073645,0.00269110,0.00125907,0.00656390,-
 0.00274069,-0.00056075,-0.00200480,-0.00043543,-0.00033415,-0.00022856
 ,-0.00020317,0.00043640,0.00086068,0.00107126,0.00009223,-0.00053558,-
 0.00017310,0.00007501,-0.00006100,0.00016537,0.00044717,0.00049805,0.0
 0068748,-0.00091829,-0.00059045,-0.00001163,-0.00073248,-0.00225468,-0
 .00098328,0.00058061,0.00059482,0.00057511,-0.00068788,-0.00128556,0.1
 2188773,0.15005387,0.16890780,0.00038837,-0.00050670,0.00008973,-0.000
 68692,0.00142820,0.00030969,-0.00067287,0.00015889,-0.00002698,0.00059
 643,-0.00063392,0.00005693,0.00037652,-0.00063952,0.00019512,0.0002032
 9,-0.00155555,0.00201396,-0.00967119,0.00761546,0.00688691,-0.28360650
 ,0.12267836,0.03844405,-0.00100620,0.00001743,-0.00239835,0.00018297,0
 .00041514,-0.00027812,-0.00061591,0.00271589,-0.00203366,-0.00074230,0
 .00082580,0.00012606,0.00023588,0.00036835,0.00055123,0.00043792,-0.00
 027289,0.00000752,-0.00076692,-0.00005541,-0.00059470,0.00008614,0.000
 14587,0.00033671,-0.00005845,0.00007392,-0.00008297,0.00042589,0.00042
 141,0.00060566,0.29523241,0.00019897,-0.00018503,0.00092641,0.00055470
 ,-0.00042962,-0.00158029,-0.00003623,-0.00144239,0.00078888,-0.0004703
 1,0.00150800,-0.00133997,-0.00075395,-0.00078535,-0.00146731,0.0003884
 0,-0.00308049,-0.00061174,0.00221620,0.00327608,-0.00099489,0.12473779
 ,-0.09299187,-0.02212059,0.00325513,-0.00139197,0.00091799,0.00052474,
 0.00093325,-0.00080317,0.00270780,0.00539038,-0.00125852,-0.00032369,0
 .00093578,-0.00012272,0.00055424,0.00048547,0.00065575,0.00045933,-0.0
 0019697,0.00030411,0.00019194,-0.00029527,-0.00006170,-0.00009878,0.00
 014077,-0.00011518,0.00010802,-0.00021425,0.00005493,-0.00020465,-0.00
 056661,0.00157206,-0.13322659,0.08921139,-0.00057616,0.00044100,-0.001
 53171,0.00011567,-0.00238555,0.00184279,0.00068797,0.00132420,0.000228
 44,-0.00001445,0.00008466,-0.00248683,-0.00006632,-0.00017172,-0.00027
 130,0.00031032,0.00055776,0.00149689,-0.01874671,0.00932024,0.00860938
 ,0.04087724,-0.02279786,-0.06506251,0.02299540,-0.01037876,0.00321493,
 0.00179661,-0.00151715,-0.00487309,-0.00279216,-0.00030888,-0.00432940
 ,-0.00033232,0.00014171,0.00122079,-0.00004256,-0.00015766,-0.00022255
 ,-0.00027663,0.00005466,-0.00012105,-0.00038438,-0.00000038,-0.0000157
 3,0.00015810,-0.00001069,0.00001959,0.00005038,-0.00013109,-0.00002762
 ,0.00002389,0.00074067,-0.00109353,-0.04417723,0.02509855,0.06235590,-
 0.00000950,-0.00001444,-0.00001263,0.00000056,0.00001417,0.00000856,-0
 .00000896,-0.00002319,-0.00005903,0.00003254,-0.00002589,0.00003364,0.
 00013240,0.00002301,-0.00008489,0.00145784,0.00011295,0.00093468,-0.00
 123432,0.00165723,0.00231847,0.00904516,-0.00221488,0.01062662,-0.1307
 9616,0.03042945,-0.12544823,-0.00434898,0.00188034,-0.02424478,-0.0027
 3177,0.00684319,-0.00034129,0.00030323,-0.00059607,-0.00107326,-0.0003
 3106,-0.00072261,-0.00022681,-0.00047936,-0.00004895,-0.00066156,-0.00
 096887,-0.00002471,0.00012235,0.00026325,0.00002573,0.00020455,-0.0000
 0411,0.00000416,-0.00000239,0.00003471,-0.00000014,-0.00003464,-0.0000
 5888,-0.00045176,-0.00078297,0.12939678,0.00005868,-0.00007119,0.00019
 877,-0.00000277,0.00020314,-0.00020946,-0.00002967,-0.00016361,0.00010
 397,-0.00009422,0.00011491,-0.00008651,-0.00008533,0.00004615,-0.00000
 392,0.00031314,0.00060802,0.00016409,0.00178932,0.00049354,-0.00170344
 ,-0.00517206,0.00337968,-0.00687891,0.03075001,-0.04846962,0.03437329,
 0.00415974,0.00458469,0.01168610,0.00662974,0.00784063,-0.00131755,-0.
 00006644,0.00025043,0.00083300,-0.00022626,-0.00187356,0.00028458,-0.0
 0056864,-0.00009847,-0.00087777,-0.00072570,0.00004875,-0.00012730,0.0
 0017420,-0.00005592,-0.00002728,0.00000718,-0.00001437,0.00000770,0.00
 001136,-0.00000880,-0.00000851,-0.00027511,-0.00047780,0.00053107,-0.0
 3499006,0.03663136,0.00008816,-0.00010479,0.00029504,0.00006094,0.0002
 8494,-0.00031928,-0.00000713,-0.00026312,0.00017578,-0.00020604,0.0003
 1364,-0.00002241,-0.00025737,-0.00013881,-0.00010184,-0.00169152,0.000
 13186,-0.00115921,0.00231404,-0.00142015,-0.00273395,-0.01492260,0.005
 75157,-0.01195875,-0.12707252,0.03487963,-0.26498913,0.00305029,-0.001
 52168,0.00419221,0.00004537,-0.00127693,-0.00011379,-0.00005316,0.0000
 6506,0.00037876,0.00001539,0.00006782,-0.00006641,-0.00000732,0.000160
 50,0.00020761,0.00102598,0.00008240,0.00020930,-0.00020168,-0.00006240
 ,-0.00050974,0.00003021,-0.00004497,0.00000126,-0.00006709,-0.00007257
 ,0.00009473,0.00030816,0.00002074,0.00065335,0.13785375,-0.03747313,0.
 27555921,-0.00003217,0.00002352,-0.00004590,-0.00000753,-0.00009438,0.
 00008763,-0.00004980,0.00013516,0.00011347,-0.00003911,0.00015465,-0.0
 0016535,0.00042842,0.00004043,-0.00047799,0.00117873,0.00024968,0.0011
 4822,-0.00154692,-0.00001889,-0.00357591,-0.00280867,0.00437543,-0.001
 02679,-0.00648114,0.00590728,0.02219516,-0.15011490,0.07080330,0.12401
 020,0.00716268,-0.00472613,-0.00844206,0.00039523,-0.00074171,0.000325
 60,-0.00022343,-0.00006066,-0.00002648,-0.00004189,0.00002161,-0.00017
 330,-0.00039415,-0.00003276,-0.00022666,0.00003685,0.00001978,0.000223
 44,0.00000964,-0.00003281,0.00000452,0.00000337,-0.00000955,-0.0000638
 7,0.00034251,0.00063105,0.00119016,0.00005753,-0.00206904,-0.00023828,
 0.15197113,0.00002276,-0.00004464,0.00004073,-0.00000900,0.00008971,-0
 .00002648,-0.00004354,-0.00006899,-0.00000211,-0.00007543,0.00022031,0
 .00001793,0.00081329,0.00027331,-0.00089000,0.00106690,0.00141991,0.00
 212510,-0.00034921,-0.00074589,-0.00074805,0.00497870,0.00476193,0.001
 00068,0.00440456,-0.00126642,-0.01095912,0.06907913,-0.06531450,-0.077
 70473,-0.00171772,0.00039142,0.00326958,-0.00097502,-0.00069132,-0.000
 04641,-0.00034122,-0.00001939,-0.00034148,-0.00015836,0.00008358,-0.00
 003032,-0.00063055,-0.00004761,-0.00035561,0.00004502,-0.00002989,0.00
 041404,-0.00000901,-0.00002023,0.00001578,-0.00007254,-0.00015063,-0.0
 0007048,0.00042735,0.00082818,-0.00068889,-0.00206540,-0.00347324,0.00
 063605,-0.07478028,0.06376714,0.00001449,-0.00002804,0.00004370,0.0000
 1845,0.00005378,-0.00004419,-0.00001626,-0.00003552,0.00006222,-0.0000
 4108,0.00017692,-0.00011713,-0.00000315,-0.00024626,-0.00019896,0.0008
 7382,-0.00070933,0.00036667,-0.00214363,0.00087948,-0.00394558,-0.0011
 3793,0.00012125,0.00078056,-0.00461913,0.00282634,0.00697734,0.1243411
 5,-0.07911386,-0.21729679,0.01735544,-0.00892959,-0.01135713,0.0009288
 8,-0.00052212,0.00079317,-0.00028898,0.00018441,0.00001939,-0.00022743
 ,-0.00004102,-0.00023464,0.00000755,0.00011900,0.00029043,-0.00000052,
 0.00001694,-0.00013174,0.00003316,-0.00004648,-0.00000964,-0.00000281,
 -0.00004245,0.00002842,-0.00019366,-0.00005690,0.00052734,0.00077910,0
 .00017676,0.00022028,-0.13499889,0.08460311,0.22330512,-0.00000251,-0.
 00001994,0.00004390,0.00002956,0.00001516,-0.00003105,-0.00001325,-0.0
 0002183,0.00009475,0.00002999,-0.00000401,-0.00006930,-0.00023050,-0.0
 0020491,0.00029549,0.00008386,-0.00018722,-0.00080343,0.00170180,0.005
 47481,-0.00194813,-0.00190938,0.00026666,-0.00050189,-0.00110316,0.001
 32110,0.00128465,0.00120304,-0.00384713,0.00302655,-0.01398576,0.01734
 147,0.01161362,-0.13530432,0.10068745,0.08953879,0.00588934,-0.0059415
 9,-0.00768706,0.00087710,0.00121610,-0.00122265,-0.00061524,-0.0005166
 6,-0.00111161,0.00042860,0.00006273,0.00005059,0.00000841,-0.00000065,
 -0.00001431,0.00002396,0.00006518,-0.00011586,-0.00039054,-0.00067772,
 -0.00019556,0.00007734,0.00020742,-0.00007561,0.00008687,0.00018622,-0
 .00065924,0.14262544,0.00004624,-0.00010754,0.00018558,0.00007071,0.00
 018771,-0.00018212,-0.00002054,-0.00017702,0.00020247,0.00002269,0.000
 23994,-0.00016146,-0.00025483,-0.00075860,0.00014237,0.00081470,-0.000
 23069,-0.00082529,0.00297720,0.00599029,0.00089308,-0.00077215,-0.0005
 5555,-0.00227127,-0.00184596,0.00181421,0.00168036,-0.00020078,-0.0033
 7495,0.00282381,0.00273459,0.00035424,-0.01365114,0.10999841,-0.147489
 50,-0.08605267,0.00072933,-0.00075849,-0.00663746,0.00016733,0.0033400
 8,-0.00103243,-0.00075501,-0.00016246,-0.00171142,0.00060205,-0.000095
 59,0.00018748,0.00005661,-0.00007366,-0.00003920,0.00002094,-0.0000167
 6,-0.00008322,-0.00009745,-0.00057388,0.00019687,0.00007897,0.00028474
 ,-0.00000849,0.00013914,-0.00000799,0.00056563,-0.11591808,0.14193210,
 0.00001745,-0.00001066,0.00003069,0.00000330,0.00002828,-0.00004315,0.
 00001514,-0.00002105,0.00000775,-0.00011398,0.00000974,-0.00000394,-0.
 00003549,0.00028391,0.00015014,0.00032716,0.00029067,0.00115019,-0.002
 57244,-0.00175399,-0.00172441,-0.00001717,0.00043970,0.00126558,0.0011
 1755,-0.00061557,-0.00070686,-0.00101692,0.00168998,-0.00045340,-0.007
 68371,0.00560441,0.01152265,0.08696748,-0.09334275,-0.14630511,0.01339
 705,-0.01789360,-0.00568275,0.00336017,-0.00074951,-0.00560350,-0.0026
 2274,-0.00178361,-0.00057620,0.00076407,0.00056988,-0.00040085,-0.0000
 0813,0.00001797,0.00001497,0.00005941,-0.00001552,0.00002137,-0.000149
 63,0.00017767,-0.00013308,0.00000565,-0.00007854,0.00000541,0.00011490
 ,-0.00024717,-0.00007879,-0.09145375,0.10674716,0.14663665,0.00002697,
 0.00000216,0.00000057,-0.00003531,0.00001458,-0.00002175,0.00001948,0.
 00003983,-0.00003101,-0.00020279,0.00000932,-0.00008222,-0.00017953,0.
 00072283,0.00017002,0.00012673,-0.00101005,0.00122206,0.00001805,0.000
 93190,-0.00098487,0.00115657,-0.00049423,0.00112066,0.00176943,-0.0010
 8202,-0.00151101,-0.00311339,-0.00014289,-0.00255810,0.00543396,-0.001
 84199,0.00316211,-0.00318030,0.00020852,-0.01468169,-0.04154750,0.0278
 6273,0.01223722,0.00813972,-0.00575259,-0.00847935,-0.00147352,-0.0020
 6649,-0.00534822,0.00108993,0.00044103,0.00010710,-0.00000136,0.000003
 37,0.00003529,0.00004421,0.00005512,-0.00006349,-0.00019721,-0.0002207
 4,0.00012690,0.00009335,0.00011591,0.00002274,0.00003357,0.00013018,-0
 .00003310,0.00021949,0.00070133,-0.00076617,0.02426429,0.00000249,0.00
 001602,-0.00000903,-0.00000267,-0.00003735,0.00000628,0.00000760,0.000
 03031,-0.00000240,-0.00002587,-0.00003899,0.00000875,-0.00001455,0.000
 17605,-0.00004168,0.00003130,-0.00003945,0.00012745,0.00032585,0.00004
 560,-0.00017221,-0.00006970,-0.00008617,-0.00026396,-0.00014110,0.0000
 9141,-0.00004249,-0.00055038,-0.00078349,0.00012544,-0.00080727,-0.000
 29319,-0.00100767,-0.00075196,0.00645014,-0.00486043,0.01945284,-0.220
 35162,0.13129094,0.00168602,-0.02189189,0.01739897,-0.00221666,-0.0004
 1860,0.00011332,0.00068803,0.00037845,-0.00116353,0.00000433,0.0000063
 4,0.00000889,0.00001672,0.00001479,-0.00004067,-0.00002057,-0.00003442
 ,0.00001319,0.00006414,0.00017779,-0.00001690,0.00001388,0.00000519,-0
 .00001200,0.00029297,-0.00023681,0.00054460,-0.02220310,0.23946741,-0.
 00000670,0.00001712,-0.00000161,-0.00000826,-0.00003137,0.00001243,-0.
 00000201,0.00003868,0.00003120,0.00004489,-0.00007657,-0.00005639,-0.0
 0002440,-0.00007724,0.00019596,-0.00000813,0.00014346,0.00020626,0.000
 81333,0.00033027,-0.00025309,-0.00015423,-0.00021342,-0.00072281,-0.00
 052180,0.00039776,-0.00001786,-0.00165794,-0.00142023,0.00087689,0.001
 35973,-0.00084107,-0.00347553,-0.00350759,0.02366659,-0.01441498,-0.00
 818884,0.13412704,-0.15152999,-0.00053992,-0.01214746,0.00995641,-0.00
 122176,0.00049789,0.00028366,-0.00001429,0.00008828,0.00002986,-0.0000
 0085,0.00000699,-0.00000240,0.00000430,0.00003912,-0.00007165,-0.00002
 113,-0.00002935,0.00000286,0.00004110,0.00035439,-0.00001887,0.0000388
 0,0.00000951,-0.00001918,-0.00004555,-0.00092597,0.00016075,0.01194281
 ,-0.14165909,0.15881160,-0.00001595,0.00009159,-0.00014093,-0.00005622
 ,-0.00018661,0.00010762,-0.00000924,0.00015367,-0.00012301,0.00005806,
 -0.00006848,0.00013213,0.00087704,-0.00012135,-0.00017087,-0.00333372,
 0.00094842,-0.00327534,-0.00348817,-0.00009203,0.00055909,-0.00014321,
 -0.00036372,-0.00050041,-0.00001540,-0.00004283,0.00000310,0.00000536,
 -0.00031133,0.00003350,0.00072446,-0.00378521,-0.00151544,-0.00658326,
 0.00033666,-0.00414404,-0.00039354,0.01804410,-0.00515288,-0.04243412,
 -0.00581620,0.01360395,0.00535358,-0.01593960,0.01960366,-0.00445843,0
 .00178065,0.00021469,0.00000699,0.00000990,0.00003010,0.00001636,-0.00
 000336,0.00018340,-0.00003442,-0.00006388,0.00005483,0.00007729,0.0000
 8859,-0.00001470,0.00003320,0.00007316,0.00001376,0.00026987,0.0007045
 5,0.00029078,0.00749515,0.00421767,0.00167842,0.04604831,0.00000323,-0
 .00009978,0.00008885,0.00007938,0.00019116,-0.00009714,-0.00004139,-0.
 00025523,0.00001132,-0.00001322,0.00035121,0.00016726,0.00030350,-0.00
 018366,-0.00058180,-0.00039349,0.00083854,-0.00052053,-0.00163255,0.00
 010969,0.00000159,0.00028763,-0.00015122,0.00021278,0.00029712,-0.0002
 7677,-0.00018711,-0.00048367,0.00015751,-0.00038012,0.00001875,-0.0013
 9596,-0.00009981,-0.00167401,0.00009422,0.00014320,0.00016063,-0.02012
 822,0.02135078,-0.00409420,-0.19836873,0.13463657,0.00225675,0.0052208
 4,-0.00077094,0.00076234,-0.00119519,-0.00213244,0.00000801,-0.0000432
 4,-0.00002348,-0.00005597,-0.00001869,0.00003268,-0.00000836,-0.000043
 38,0.00004405,0.00004477,0.00004273,0.00000974,0.00005132,0.00004008,0
 .00005993,0.00020247,0.00047616,0.00010801,0.00357531,-0.00264752,-0.0
 0229532,0.00034565,0.21728545,-0.00000832,-0.00010080,0.00007827,0.000
 08269,0.00019407,-0.00009985,-0.00003721,-0.00024260,-0.00000087,-0.00
 003707,0.00052385,0.00017558,0.00065742,-0.00058568,-0.00059700,-0.001
 77865,-0.00057346,-0.00126545,-0.00282755,-0.00049085,0.00037502,-0.00
 041477,-0.00053590,0.00003624,0.00001040,-0.00006762,0.00020630,-0.000
 01890,-0.00009856,-0.00012699,0.00009071,-0.00222297,-0.00201975,-0.00
 378929,-0.00416573,-0.00059830,-0.00043457,-0.00655778,0.00842217,0.02
 151539,0.15162985,-0.16566202,-0.00019818,0.01451203,-0.01583637,0.004
 23116,-0.00110689,-0.00110648,-0.00000446,-0.00005024,-0.00004891,-0.0
 0004565,0.00000358,0.00015972,0.00002470,0.00004525,-0.00000384,0.0000
 4401,0.00007863,0.00000042,0.00000938,-0.00002166,0.00001913,-0.000013
 32,-0.00004266,0.00074589,0.00441350,-0.00034577,0.00001646,-0.0214714
 0,-0.14977806,0.17713064\\0.00000150,-0.00003662,0.00003844,0.00000698
 ,0.00003636,-0.00001679,0.00000705,0.00000283,0.00000358,-0.00000722,0
 .00003894,-0.00005550,0.00001527,-0.00007805,-0.00002593,-0.00002757,0
 .00000392,0.00001770,0.00000134,0.00002086,0.00004334,-0.00002366,0.00
 000358,-0.00004010,0.00000378,-0.00000686,-0.00001929,-0.00000662,0.00
 002006,0.00001438,0.00002641,-0.00002674,0.00001249,-0.00000307,0.0000
 1271,-0.00000452,0.00000474,-0.00002438,-0.00001759,0.00000113,-0.0000
 0337,0.00001275,-0.00001208,0.00004022,0.00000925,-0.00000499,-0.00000
 466,0.00000024,-0.00000338,-0.00000984,0.00001932,0.00001121,0.0000237
 4,0.00001250,0.00000808,0.00000253,0.00001046,-0.00000077,-0.00000720,
 0.00000243,-0.00000143,-0.00000106,-0.00000417,-0.00000534,0.00000128,
 -0.00000717,0.00001101,-0.00000645,0.00000142,-0.00000238,-0.00000181,
 -0.00000725\\\@


 BUT 'GLORY' DOESN'T MEAN 'A NICE KNOCK DOWN ARGUMENT', ALICE OBJECTED.
 WHEN I USE A WORD, HUMPTY DUMPTY SAID, IN A RATHER SCORNFUL TONE,
 IT MEANS JUST WHAT I CHOOSE IT TO MEAN....
 NEITHER MORE NOR LESS....
 THE QUESTION IS, SAID ALICE,
 WHETHER YOU CAN MAKE WORDS MEAN SO MANY DIFFERENT THINGS...
 THE QUESTION IS, SAID HUMPTY DUMPTY,
 WHICH IS TO BE MASTER....
 THAT IS ALL.....

 ALICE THROUGH THE LOOKING GLASS
 Job cpu time:       0 days  7 hours 41 minutes 11.0 seconds.
 Elapsed time:       0 days  1 hours 55 minutes 19.2 seconds.
 File lengths (MBytes):  RWF=    462 Int=      0 D2E=      0 Chk=     20 Scr=      1
 Normal termination of Gaussian 16 at Tue May 16 06:50:37 2023.
### All Done ###
