### Starting Gaussian ###
 Entering Gaussian System, Link 0=g16
 Initial command:
 /cluster/software/gaussian/gaussian-16-A.03/avx2/g16/l1.exe "/local/scratch/yxie/Gau-6518.inp" -scrdir="/local/scratch/yxie/"
 Entering Link 1 = /cluster/software/gaussian/gaussian-16-A.03/avx2/g16/l1.exe PID=      6519.
  
 Copyright (c) 1988,1990,1992,1993,1995,1998,2003,2009,2016,
            Gaussian, Inc.  All Rights Reserved.
  
 This is part of the Gaussian(R) 16 program.  It is based on
 the Gaussian(R) 09 system (copyright 2009, Gaussian, Inc.),
 the Gaussian(R) 03 system (copyright 2003, Gaussian, Inc.),
 the Gaussian(R) 98 system (copyright 1998, Gaussian, Inc.),
 the Gaussian(R) 94 system (copyright 1995, Gaussian, Inc.),
 the Gaussian 92(TM) system (copyright 1992, Gaussian, Inc.),
 the Gaussian 90(TM) system (copyright 1990, Gaussian, Inc.),
 the Gaussian 88(TM) system (copyright 1988, Gaussian, Inc.),
 the Gaussian 86(TM) system (copyright 1986, Carnegie Mellon
 University), and the Gaussian 82(TM) system (copyright 1983,
 Carnegie Mellon University). Gaussian is a federally registered
 trademark of Gaussian, Inc.
  
 This software contains proprietary and confidential information,
 including trade secrets, belonging to Gaussian, Inc.
  
 This software is provided under written license and may be
 used, copied, transmitted, or stored only in accord with that
 written license.
  
 The following legend is applicable only to US Government
 contracts under FAR:
  
                    RESTRICTED RIGHTS LEGEND
  
 Use, reproduction and disclosure by the US Government is
 subject to restrictions as set forth in subparagraphs (a)
 and (c) of the Commercial Computer Software - Restricted
 Rights clause in FAR 52.227-19.
  
 Gaussian, Inc.
 340 Quinnipiac St., Bldg. 40, Wallingford CT 06492
  
  
 ---------------------------------------------------------------
 Warning -- This program may not be used in any manner that
 competes with the business of Gaussian, Inc. or will provide
 assistance to any competitor of Gaussian, Inc.  The licensee
 of this program is prohibited from giving any competitor of
 Gaussian, Inc. access to this program.  By using this program,
 the user acknowledges that Gaussian, Inc. is engaged in the
 business of creating and licensing software in the field of
 computational chemistry and represents and warrants to the
 licensee that it is not a competitor of Gaussian, Inc. and that
 it will not use this program in any manner prohibited above.
 ---------------------------------------------------------------
  

 Cite this work as:
 Gaussian 16, Revision A.03,
 M. J. Frisch, G. W. Trucks, H. B. Schlegel, G. E. Scuseria, 
 M. A. Robb, J. R. Cheeseman, G. Scalmani, V. Barone, 
 G. A. Petersson, H. Nakatsuji, X. Li, M. Caricato, A. V. Marenich, 
 J. Bloino, B. G. Janesko, R. Gomperts, B. Mennucci, H. P. Hratchian, 
 J. V. Ortiz, A. F. Izmaylov, J. L. Sonnenberg, D. Williams-Young, 
 F. Ding, F. Lipparini, F. Egidi, J. Goings, B. Peng, A. Petrone, 
 T. Henderson, D. Ranasinghe, V. G. Zakrzewski, J. Gao, N. Rega, 
 G. Zheng, W. Liang, M. Hada, M. Ehara, K. Toyota, R. Fukuda, 
 J. Hasegawa, M. Ishida, T. Nakajima, Y. Honda, O. Kitao, H. Nakai, 
 T. Vreven, K. Throssell, J. A. Montgomery, Jr., J. E. Peralta, 
 F. Ogliaro, M. J. Bearpark, J. J. Heyd, E. N. Brothers, K. N. Kudin, 
 V. N. Staroverov, T. A. Keith, R. Kobayashi, J. Normand, 
 K. Raghavachari, A. P. Rendell, J. C. Burant, S. S. Iyengar, 
 J. Tomasi, M. Cossi, J. M. Millam, M. Klene, C. Adamo, R. Cammi, 
 J. W. Ochterski, R. L. Martin, K. Morokuma, O. Farkas, 
 J. B. Foresman, and D. J. Fox, Gaussian, Inc., Wallingford CT, 2016.
 
 ******************************************
 Gaussian 16:  ES64L-G16RevA.03 25-Dec-2016
                16-May-2023 
 ******************************************
 %chk=ONdc1cccccc2cnncnc-2s1.chk
 %NProcShared=20
 Will use up to   20 processors via shared memory.
 -----------------------------
 # opt freq b3lyp/6-31g(2df,p)
 -----------------------------
 1/18=20,19=15,26=3,38=1/1,3;
 2/9=110,12=2,17=6,18=5,40=1/2;
 3/5=1,6=6,7=104,11=2,25=1,30=1,71=1,74=-5/1,2,3;
 4//1;
 5/5=2,38=5/2;
 6/7=2,8=2,9=2,10=2,28=1/1;
 7//1,2,3,16;
 1/18=20,19=15,26=3/3(2);
 2/9=110/2;
 99//99;
 2/9=110/2;
 3/5=1,6=6,7=104,11=2,25=1,30=1,71=1,74=-5/1,2,3;
 4/5=5,16=3,69=1/1;
 5/5=2,38=5/2;
 7//1,2,3,16;
 1/18=20,19=15,26=3/3(-5);
 2/9=110/2;
 6/7=2,8=2,9=2,10=2,19=2,28=1/1;
 99/9=1/99;
 -------------------
 Title Card Required
 -------------------
 Symbolic Z-matrix:
 Charge =  0 Multiplicity = 1
 O                     1.44387  -0.49975   0.45306 
 N                     3.08683  -1.03928   1.05128 
 C                     3.93743  -2.0655    2.18914 
 C                     4.70984  -0.92385   0.9233 
 C                     5.74395  -1.37402   1.42244 
 C                     7.03662  -1.33759   1.38204 
 C                     7.71355  -2.05546   2.178 
 C                     9.00907  -2.19219   2.3296 
 C                     9.33846  -3.02054   3.24805 
 C                     10.81557  -2.94075   3.15959 
 N                     11.54388  -3.5877    3.87691 
 N                     12.42487  -4.13154   4.47991 
 C                     11.28656  -4.71266   5.12425 
 N                     9.41321  -4.5038    4.89266 
 C                     8.11485  -3.75387   4.06116 
 S                     5.6716   -3.2344    3.48518 
 H                     1.12353   0.23582  -0.36252 
 H                     4.78855  -0.16721   0.08435 
 H                     5.54941  -2.01012   2.12772 
 H                     7.3812   -0.70983   0.686 
 H                     7.36787  -2.67966   2.8701 
 H                     9.56289  -1.61571   1.69041 
 H                     11.40503  -2.34685   2.50108 
 H                     12.28543  -5.3423    5.82238 
 
 Add virtual bond connecting atoms H17        and O1         Dist= 2.16D+00.
 Add virtual bond connecting atoms H24        and C13        Dist= 2.59D+00.
 Add virtual bond connecting atoms N2         and C3         Dist= 3.31D+00.
 Add virtual bond connecting atoms H19        and C3         Dist= 3.05D+00.
 Add virtual bond connecting atoms N2         and O1         Dist= 3.46D+00.
 Add virtual bond connecting atoms H19        and S16        Dist= 3.46D+00.
 Add virtual bond connecting atoms H21        and S16        Dist= 3.57D+00.

 GradGradGradGradGradGradGradGradGradGradGradGradGradGradGradGradGradGrad
 Berny optimization.
 Initialization pass.
                           ----------------------------
                           !    Initial Parameters    !
                           ! (Angstroms and Degrees)  !
 --------------------------                            --------------------------
 ! Name  Definition              Value          Derivative Info.                !
 --------------------------------------------------------------------------------
 ! R1    R(1,2)                  1.8298         estimate D2E/DX2                !
 ! R2    R(1,17)                 1.1441         estimate D2E/DX2                !
 ! R3    R(2,3)                  1.7525         estimate D2E/DX2                !
 ! R4    R(2,4)                  1.6321         estimate D2E/DX2                !
 ! R5    R(3,19)                 1.6141         estimate D2E/DX2                !
 ! R6    R(4,5)                  1.2334         estimate D2E/DX2                !
 ! R7    R(4,18)                 1.1325         estimate D2E/DX2                !
 ! R8    R(5,6)                  1.2938         estimate D2E/DX2                !
 ! R9    R(5,19)                 0.9695         estimate D2E/DX2                !
 ! R10   R(6,7)                  1.2677         estimate D2E/DX2                !
 ! R11   R(6,20)                 0.9986         estimate D2E/DX2                !
 ! R12   R(7,8)                  1.3115         estimate D2E/DX2                !
 ! R13   R(7,21)                 0.994          estimate D2E/DX2                !
 ! R14   R(8,9)                  1.2799         estimate D2E/DX2                !
 ! R15   R(8,22)                 1.0235         estimate D2E/DX2                !
 ! R16   R(9,10)                 1.4819         estimate D2E/DX2                !
 ! R17   R(9,15)                 1.642          estimate D2E/DX2                !
 ! R18   R(10,11)                1.2098         estimate D2E/DX2                !
 ! R19   R(10,23)                1.0648         estimate D2E/DX2                !
 ! R20   R(11,12)                1.1981         estimate D2E/DX2                !
 ! R21   R(11,13)                1.6993         estimate D2E/DX2                !
 ! R22   R(12,13)                1.4313         estimate D2E/DX2                !
 ! R23   R(13,24)                1.3717         estimate D2E/DX2                !
 ! R24   R(14,15)                1.7145         estimate D2E/DX2                !
 ! R25   R(16,19)                1.8321         estimate D2E/DX2                !
 ! R26   R(16,21)                1.8877         estimate D2E/DX2                !
 ! A1    A(2,1,17)             132.3803         estimate D2E/DX2                !
 ! A2    A(1,2,3)              145.1555         estimate D2E/DX2                !
 ! A3    A(1,2,4)              147.8188         estimate D2E/DX2                !
 ! A4    A(3,2,4)               67.0258         estimate D2E/DX2                !
 ! A5    A(2,3,19)             116.0988         estimate D2E/DX2                !
 ! A6    A(2,4,5)              140.9153         estimate D2E/DX2                !
 ! A7    A(2,4,18)             100.0468         estimate D2E/DX2                !
 ! A8    A(5,4,18)             119.0379         estimate D2E/DX2                !
 ! A9    A(4,5,6)              144.567          estimate D2E/DX2                !
 ! A10   A(4,5,19)             111.4474         estimate D2E/DX2                !
 ! A11   A(6,5,19)             103.9856         estimate D2E/DX2                !
 ! A12   A(5,6,7)              119.8645         estimate D2E/DX2                !
 ! A13   A(5,6,20)             112.5945         estimate D2E/DX2                !
 ! A14   A(7,6,20)             127.541          estimate D2E/DX2                !
 ! A15   A(6,7,8)              131.2294         estimate D2E/DX2                !
 ! A16   A(6,7,21)             127.3759         estimate D2E/DX2                !
 ! A17   A(8,7,21)             101.3947         estimate D2E/DX2                !
 ! A18   A(7,8,9)              113.8681         estimate D2E/DX2                !
 ! A19   A(7,8,22)             113.8027         estimate D2E/DX2                !
 ! A20   A(9,8,22)             132.3293         estimate D2E/DX2                !
 ! A21   A(8,9,10)             100.302          estimate D2E/DX2                !
 ! A22   A(8,9,15)             116.911          estimate D2E/DX2                !
 ! A23   A(10,9,15)            142.787          estimate D2E/DX2                !
 ! A24   A(9,10,11)            122.4043         estimate D2E/DX2                !
 ! A25   A(9,10,23)            128.2241         estimate D2E/DX2                !
 ! A26   A(11,10,23)           109.3716         estimate D2E/DX2                !
 ! A27   A(10,11,13)           134.2752         estimate D2E/DX2                !
 ! A28   A(11,13,24)           124.555          estimate D2E/DX2                !
 ! A29   A(12,13,24)            80.5813         estimate D2E/DX2                !
 ! A30   A(9,15,14)             82.5989         estimate D2E/DX2                !
 ! A31   A(19,16,21)            67.798          estimate D2E/DX2                !
 ! A32   A(3,19,5)             104.5127         estimate D2E/DX2                !
 ! A33   A(3,19,16)             90.8873         estimate D2E/DX2                !
 ! A34   A(5,19,16)            164.6            estimate D2E/DX2                !
 ! A35   A(7,21,16)            136.3761         estimate D2E/DX2                !
 ! A36   L(10,11,12,14,-1)     190.3178         estimate D2E/DX2                !
 ! A37   L(10,11,12,14,-2)     180.0002         estimate D2E/DX2                !
 ! D1    D(17,1,2,3)           179.9995         estimate D2E/DX2                !
 ! D2    D(17,1,2,4)             0.0            estimate D2E/DX2                !
 ! D3    D(1,2,3,19)           179.9997         estimate D2E/DX2                !
 ! D4    D(4,2,3,19)            -0.0006         estimate D2E/DX2                !
 ! D5    D(1,2,4,5)            179.9999         estimate D2E/DX2                !
 ! D6    D(1,2,4,18)            -0.0004         estimate D2E/DX2                !
 ! D7    D(3,2,4,5)              0.0003         estimate D2E/DX2                !
 ! D8    D(3,2,4,18)          -180.0            estimate D2E/DX2                !
 ! D9    D(2,3,19,5)             0.0011         estimate D2E/DX2                !
 ! D10   D(2,3,19,16)         -179.9997         estimate D2E/DX2                !
 ! D11   D(2,4,5,6)            179.9994         estimate D2E/DX2                !
 ! D12   D(2,4,5,19)             0.0004         estimate D2E/DX2                !
 ! D13   D(18,4,5,6)            -0.0003         estimate D2E/DX2                !
 ! D14   D(18,4,5,19)         -179.9993         estimate D2E/DX2                !
 ! D15   D(4,5,6,7)           -179.9998         estimate D2E/DX2                !
 ! D16   D(4,5,6,20)             0.0007         estimate D2E/DX2                !
 ! D17   D(19,5,6,7)            -0.0008         estimate D2E/DX2                !
 ! D18   D(19,5,6,20)          179.9997         estimate D2E/DX2                !
 ! D19   D(4,5,19,3)            -0.0008         estimate D2E/DX2                !
 ! D20   D(4,5,19,16)         -179.9979         estimate D2E/DX2                !
 ! D21   D(6,5,19,3)           179.9998         estimate D2E/DX2                !
 ! D22   D(6,5,19,16)            0.0027         estimate D2E/DX2                !
 ! D23   D(5,6,7,8)           -179.9999         estimate D2E/DX2                !
 ! D24   D(5,6,7,21)             0.0003         estimate D2E/DX2                !
 ! D25   D(20,6,7,8)            -0.0005         estimate D2E/DX2                !
 ! D26   D(20,6,7,21)          179.9996         estimate D2E/DX2                !
 ! D27   D(6,7,8,9)           -179.9997         estimate D2E/DX2                !
 ! D28   D(6,7,8,22)             0.0001         estimate D2E/DX2                !
 ! D29   D(21,7,8,9)             0.0002         estimate D2E/DX2                !
 ! D30   D(21,7,8,22)          180.0            estimate D2E/DX2                !
 ! D31   D(6,7,21,16)            0.0001         estimate D2E/DX2                !
 ! D32   D(8,7,21,16)         -179.9998         estimate D2E/DX2                !
 ! D33   D(7,8,9,10)          -179.9997         estimate D2E/DX2                !
 ! D34   D(7,8,9,15)            -0.0003         estimate D2E/DX2                !
 ! D35   D(22,8,9,10)            0.0005         estimate D2E/DX2                !
 ! D36   D(22,8,9,15)          179.9999         estimate D2E/DX2                !
 ! D37   D(8,9,10,11)         -179.9999         estimate D2E/DX2                !
 ! D38   D(8,9,10,23)           -0.0007         estimate D2E/DX2                !
 ! D39   D(15,9,10,11)           0.001          estimate D2E/DX2                !
 ! D40   D(15,9,10,23)        -179.9998         estimate D2E/DX2                !
 ! D41   D(8,9,15,14)         -179.9998         estimate D2E/DX2                !
 ! D42   D(10,9,15,14)          -0.0008         estimate D2E/DX2                !
 ! D43   D(9,10,11,13)          -0.0008         estimate D2E/DX2                !
 ! D44   D(23,10,11,13)        179.9999         estimate D2E/DX2                !
 ! D45   D(10,11,13,24)       -179.9998         estimate D2E/DX2                !
 ! D46   D(24,12,13,11)       -179.9999         estimate D2E/DX2                !
 ! D47   D(21,16,19,3)        -179.9995         estimate D2E/DX2                !
 ! D48   D(21,16,19,5)          -0.0023         estimate D2E/DX2                !
 ! D49   D(19,16,21,7)           0.0            estimate D2E/DX2                !
 --------------------------------------------------------------------------------
 Trust Radius=3.00D-01 FncErr=1.00D-07 GrdErr=1.00D-06 EigMax=2.50D+02 EigMin=1.00D-04
 Number of steps in this run=    122 maximum allowed number of steps=    144.
 GradGradGradGradGradGradGradGradGradGradGradGradGradGradGradGradGradGrad

                          Input orientation:                          
 ---------------------------------------------------------------------
 Center     Atomic      Atomic             Coordinates (Angstroms)
 Number     Number       Type             X           Y           Z
 ---------------------------------------------------------------------
      1          8           0        1.443870   -0.499750    0.453060
      2          7           0        3.086830   -1.039280    1.051280
      3          6           0        3.937430   -2.065500    2.189140
      4          6           0        4.709840   -0.923850    0.923300
      5          6           0        5.743950   -1.374020    1.422440
      6          6           0        7.036620   -1.337590    1.382040
      7          6           0        7.713550   -2.055460    2.178000
      8          6           0        9.009070   -2.192190    2.329600
      9          6           0        9.338460   -3.020540    3.248050
     10          6           0       10.815570   -2.940750    3.159590
     11          7           0       11.543880   -3.587700    3.876910
     12          7           0       12.424870   -4.131540    4.479910
     13          6           0       11.286560   -4.712660    5.124250
     14          7           0        9.413210   -4.503800    4.892660
     15          6           0        8.114850   -3.753870    4.061160
     16         16           0        5.671600   -3.234400    3.485180
     17          1           0        1.123530    0.235820   -0.362520
     18          1           0        4.788550   -0.167210    0.084350
     19          1           0        5.549410   -2.010120    2.127720
     20          1           0        7.381200   -0.709830    0.686000
     21          1           0        7.367870   -2.679660    2.870100
     22          1           0        9.562890   -1.615710    1.690410
     23          1           0       11.405030   -2.346850    2.501080
     24          1           0       12.285430   -5.342300    5.822380
 ---------------------------------------------------------------------
                    Distance matrix (angstroms):
                    1          2          3          4          5
     1  O    0.000000
     2  N    1.829830   0.000000
     3  C    3.418097   1.752533   0.000000
     4  C    3.326792   1.632135   1.871452   0.000000
     5  C    4.493855   2.703719   2.080742   1.233360   0.000000
     6  C    5.730954   3.974825   3.284241   2.407390   1.293814
     7  C    6.686145   4.869154   3.776150   3.446315   2.216880
     8  C    7.976090   6.167352   5.075166   4.697845   3.486166
     9  C    8.745908   6.916218   5.586100   5.587906   4.354811
    10  C   10.055473   8.233710   7.001189   6.807997   5.585129
    11  N   11.102630   9.273636   7.938749   7.907213   6.675627
    12  N   12.246950  10.417129   9.030658   9.080773   7.847721
    13  C   11.681060   9.865008   8.344581   8.675039   7.454558
    14  N    9.962572   8.172037   6.575598   7.119940   5.941500
    15  C    8.252857   6.458279   4.879128   5.426718   4.271732
    16  S    5.877564   4.174141   2.460364   3.581460   2.778695
    17  H    1.144051   2.734823   4.441292   3.982435   5.208258
    18  H    3.381333   2.142734   2.959400   1.132491   2.039526
    19  H    4.684139   2.857543   1.614100   1.826332   0.969479
    20  H    5.945610   4.322451   3.994599   2.690405   1.914179
    21  H    6.759280   4.932165   3.550890   3.733366   2.537229
    22  H    8.288238   6.533002   5.665408   4.961776   3.835952
    23  H   10.335902   8.544244   7.479406   7.024236   5.844458
    24  H   13.031474  11.220233   9.676102  10.045559   8.825966
                    6          7          8          9         10
     6  C    0.000000
     7  C    1.267724   0.000000
     8  C    2.349206   1.311507   0.000000
     9  C    3.407753   2.171801   1.279927   0.000000
    10  C    4.473284   3.371911   2.124304   1.481906   0.000000
    11  N    5.621634   4.461556   3.281292   2.362417   1.209764
    12  N    6.814411   5.639631   4.478013   3.503959   2.398139
    13  C    6.592209   5.339242   4.398841   3.190375   2.687264
    14  N    5.291268   4.031450   3.475075   2.215940   2.722732
    15  C    3.765458   2.567475   2.497353   1.641993   2.961061
    16  S    3.143941   2.695956   3.682428   3.680738   5.162622
    17  H    6.362684   7.425131   8.678968   9.545951  10.790343
    18  H    2.847386   4.062571   5.191770   6.233151   7.312633
    19  H    1.794472   2.165199   3.470325   4.078356   5.446400
    20  H    0.998644   2.036478   2.747503   3.966654   4.784407
    21  H    2.031059   0.994044   1.795356   2.035257   3.469670
    22  H    2.560172   1.962443   1.023528   2.109540   2.341672
    23  H    4.621024   3.717030   2.407062   2.298376   1.064808
    24  H    7.956402   6.707228   5.732124   4.549986   3.875356
                   11         12         13         14         15
    11  N    0.000000
    12  N    1.198130   0.000000
    13  C    1.699296   1.431302   0.000000
    14  N    2.531944   3.062521   1.899130   0.000000
    15  C    3.437995   4.346753   3.479825   1.714505   0.000000
    16  S    5.895926   6.884839   6.033206   4.194284   2.563410
    17  H   11.881741  13.047730  12.565002  10.899528   9.185049
    18  H    8.468633   9.661793   9.396055   7.956968   6.304238
    19  H    6.440660   7.570018   7.014115   5.365844   3.655179
    20  H    5.982637   7.179168   7.139506   6.018244   4.603925
    21  H    4.390588   5.502063   4.956855   3.406120   1.769330
    22  H    3.548781   4.722461   4.934916   4.314843   3.505568
    23  H    1.857928   2.853237   3.534418   3.786745   3.903696
    24  H    2.722751   1.813176   1.371705   3.133227   4.797785
                   16         17         18         19         20
    16  S    0.000000
    17  H    6.894357   0.000000
    18  H    4.664019   3.714094   0.000000
    19  H    1.832072   5.552833   2.854923   0.000000
    20  H    4.139033   6.414989   2.716294   2.669226   0.000000
    21  H    1.887695   7.611940   4.552549   2.075141   2.941207
    22  H    4.580774   8.880624   5.241365   4.056454   2.566949
    23  H    5.884592  10.980876   7.373549   5.877165   4.708031
    24  H    7.324513  13.926824  10.766139   8.374240   8.479012
                   21         22         23         24
    21  H    0.000000
    22  H    2.709570   0.000000
    23  H    4.067628   2.141315   0.000000
    24  H    6.323607   6.194584   4.558383   0.000000
 Stoichiometry    C10H8N4OS
 Framework group  C1[X(C10H8N4OS)]
 Deg. of freedom    66
 Full point group                 C1      NOp   1
 Largest Abelian subgroup         C1      NOp   1
 Largest concise Abelian subgroup C1      NOp   1
                         Standard orientation:                         
 ---------------------------------------------------------------------
 Center     Atomic      Atomic             Coordinates (Angstroms)
 Number     Number       Type             X           Y           Z
 ---------------------------------------------------------------------
      1          8           0        6.680932    0.107623   -0.000002
      2          7           0        4.852829    0.028150   -0.000001
      3          6           0        3.372384    0.966049    0.000005
      4          6           0        3.510500   -0.900299    0.000003
      5          6           0        2.280799   -0.805371    0.000004
      6          6           0        1.172002   -1.472098   -0.000001
      7          6           0        0.064480   -0.855235    0.000001
      8          6           0       -1.170621   -1.296343   -0.000001
      9          6           0       -2.052019   -0.368255   -0.000005
     10          6           0       -3.291743   -1.180123    0.000001
     11          7           0       -4.393666   -0.680830   -0.000001
     12          7           0       -5.555912   -0.389798    0.000000
     13          6           0       -4.972054    0.917004    0.000005
     14          7           0       -3.178097    1.540236   -0.000003
     15          6           0       -1.502099    1.178913    0.000001
     16         16           0        1.014244    1.667883   -0.000001
     17          1           0        7.488054   -0.703183    0.000000
     18          1           0        3.982359   -1.929806    0.000000
     19          1           0        1.996814    0.121582   -0.000005
     20          1           0        1.318305   -2.459966    0.000004
     21          1           0       -0.078316    0.128498    0.000001
     22          1           0       -1.244670   -2.317189   -0.000003
     23          1           0       -3.384625   -2.240872   -0.000003
     24          1           0       -6.299128    1.264057    0.000004
 ---------------------------------------------------------------------
 Rotational constants (GHZ):           1.7930146           0.1721310           0.1570537
 Standard basis: 6-31G(2df,p) (6D, 7F)
 There are   540 symmetry adapted cartesian basis functions of A   symmetry.
 There are   492 symmetry adapted basis functions of A   symmetry.
   492 basis functions,   784 primitive gaussians,   540 cartesian basis functions
    60 alpha electrons       60 beta electrons
       nuclear repulsion energy      1028.3100602775 Hartrees.
 NAtoms=   24 NActive=   24 NUniq=   24 SFac= 1.00D+00 NAtFMM=   60 NAOKFM=F Big=F
 Integral buffers will be    131072 words long.
 Raffenetti 2 integral format.
 Two-electron integral symmetry is turned on.
 One-electron integrals computed using PRISM.
 PrsmSu:  requested number of processors reduced to:  12 ShMem   1 Linda.
 NBasis=   492 RedAO= T EigKep=  9.82D-05  NBF=   492
 NBsUse=   492 1.00D-06 EigRej= -1.00D+00 NBFU=   492
 ExpMin= 1.17D-01 ExpMax= 2.19D+04 ExpMxC= 3.30D+03 IAcc=3 IRadAn=         5 AccDes= 0.00D+00
 Harris functional with IExCor=  402 and IRadAn=       5 diagonalized for initial guess.
 HarFok:  IExCor=  402 AccDes= 0.00D+00 IRadAn=         5 IDoV= 1 UseB2=F ITyADJ=14
 ICtDFT=  3500011 ScaDFX=  1.000000  1.000000  1.000000  1.000000
 FoFCou: FMM=F IPFlag=           0 FMFlag=      100000 FMFlg1=           0
         NFxFlg=           0 DoJE=T BraDBF=F KetDBF=T FulRan=T
         wScrn=  0.000000 ICntrl=       500 IOpCl=  0 I1Cent=   200000004 NGrid=           0
         NMat0=    1 NMatS0=      1 NMatT0=    0 NMatD0=    1 NMtDS0=    0 NMtDT0=    0
 Petite list used in FoFCou.
 Requested convergence on RMS density matrix=1.00D-08 within 128 cycles.
 Requested convergence on MAX density matrix=1.00D-06.
 Requested convergence on             energy=1.00D-06.
 No special actions if energy rises.
 Integral accuracy reduced to 1.0D-05 until final iterations.
 EnCoef did     4 forward-backward iterations
 EnCoef did   100 forward-backward iterations
 EnCoef did   100 forward-backward iterations
 EnCoef did   100 forward-backward iterations
 EnCoef did   100 forward-backward iterations
 EnCoef did     2 forward-backward iterations
 EnCoef did     5 forward-backward iterations
 EnCoef did     7 forward-backward iterations
 Problem detected with inexpensive integrals.
 Switching to full accuracy and repeating last cycle.
 EnCoef did     4 forward-backward iterations
 EnCoef did     1 forward-backward iterations
 EnCoef did     3 forward-backward iterations
 EnCoef did     6 forward-backward iterations
 EnCoef did     3 forward-backward iterations
 EnCoef did     5 forward-backward iterations
 EnCoef did   100 forward-backward iterations
 EnCoef did     3 forward-backward iterations
 Restarting incremental Fock formation.
 SCF Done:  E(RB3LYP) =  -1076.86881816     A.U. after   37 cycles
            NFock= 37  Conv=0.33D-08     -V/T= 2.0036

 **********************************************************************

            Population analysis using the SCF density.

 **********************************************************************

 Orbital symmetries:
       Occupied  (A) (A) (A) (A) (A) (A) (A) (A) (A) (A) (A) (A)
                 (A) (A) (A) (A) (A) (A) (A) (A) (A) (A) (A) (A)
                 (A) (A) (A) (A) (A) (A) (A) (A) (A) (A) (A) (A)
                 (A) (A) (A) (A) (A) (A) (A) (A) (A) (A) (A) (A)
                 (A) (A) (A) (A) (A) (A) (A) (A) (A) (A) (A) (A)
       Virtual   (A) (A) (A) (A) (A) (A) (A) (A) (A) (A) (A) (A)
                 (A) (A) (A) (A) (A) (A) (A) (A) (A) (A) (A) (A)
                 (A) (A) (A) (A) (A) (A) (A) (A) (A) (A) (A) (A)
                 (A) (A) (A) (A) (A) (A) (A) (A) (A) (A) (A) (A)
                 (A) (A) (A) (A) (A) (A) (A) (A) (A) (A) (A) (A)
                 (A) (A) (A) (A) (A) (A) (A) (A) (A) (A) (A) (A)
                 (A) (A) (A) (A) (A) (A) (A) (A) (A) (A) (A) (A)
                 (A) (A) (A) (A) (A) (A) (A) (A) (A) (A) (A) (A)
                 (A) (A) (A) (A) (A) (A) (A) (A) (A) (A) (A) (A)
                 (A) (A) (A) (A) (A) (A) (A) (A) (A) (A) (A) (A)
                 (A) (A) (A) (A) (A) (A) (A) (A) (A) (A) (A) (A)
                 (A) (A) (A) (A) (A) (A) (A) (A) (A) (A) (A) (A)
                 (A) (A) (A) (A) (A) (A) (A) (A) (A) (A) (A) (A)
                 (A) (A) (A) (A) (A) (A) (A) (A) (A) (A) (A) (A)
                 (A) (A) (A) (A) (A) (A) (A) (A) (A) (A) (A) (A)
                 (A) (A) (A) (A) (A) (A) (A) (A) (A) (A) (A) (A)
                 (A) (A) (A) (A) (A) (A) (A) (A) (A) (A) (A) (A)
                 (A) (A) (A) (A) (A) (A) (A) (A) (A) (A) (A) (A)
                 (A) (A) (A) (A) (A) (A) (A) (A) (A) (A) (A) (A)
                 (A) (A) (A) (A) (A) (A) (A) (A) (A) (A) (A) (A)
                 (A) (A) (A) (A) (A) (A) (A) (A) (A) (A) (A) (A)
                 (A) (A) (A) (A) (A) (A) (A) (A) (A) (A) (A) (A)
                 (A) (A) (A) (A) (A) (A) (A) (A) (A) (A) (A) (A)
                 (A) (A) (A) (A) (A) (A) (A) (A) (A) (A) (A) (A)
                 (A) (A) (A) (A) (A) (A) (A) (A) (A) (A) (A) (A)
                 (A) (A) (A) (A) (A) (A) (A) (A) (A) (A) (A) (A)
                 (A) (A) (A) (A) (A) (A) (A) (A) (A) (A) (A) (A)
                 (A) (A) (A) (A) (A) (A) (A) (A) (A) (A) (A) (A)
                 (A) (A) (A) (A) (A) (A) (A) (A) (A) (A) (A) (A)
                 (A) (A) (A) (A) (A) (A) (A) (A) (A) (A) (A) (A)
                 (A) (A) (A) (A) (A) (A) (A) (A) (A) (A) (A) (A)
                 (A) (A) (A) (A) (A) (A) (A) (A) (A) (A) (A) (A)
                 (A) (A) (A) (A) (A) (A) (A) (A) (A) (A) (A) (A)
                 (A) (A) (A) (A) (A) (A) (A) (A) (A) (A) (A) (A)
                 (A) (A) (A) (A) (A) (A) (A) (A) (A) (A) (A) (A)
                 (A) (A) (A) (A) (A) (A) (A) (A) (A) (A) (A) (A)
 The electronic state is 1-A.
 Alpha  occ. eigenvalues --  -88.87017 -19.13619 -14.49052 -14.44342 -14.42223
 Alpha  occ. eigenvalues --  -14.39385 -10.37063 -10.35985 -10.31564 -10.29902
 Alpha  occ. eigenvalues --  -10.24676 -10.24314 -10.19121 -10.18734 -10.16523
 Alpha  occ. eigenvalues --  -10.16049  -7.93376  -5.89928  -5.89261  -5.89000
 Alpha  occ. eigenvalues --   -1.19710  -0.96157  -0.92064  -0.89871  -0.88354
 Alpha  occ. eigenvalues --   -0.83218  -0.79266  -0.75217  -0.72421  -0.70055
 Alpha  occ. eigenvalues --   -0.67434  -0.64077  -0.62041  -0.60401  -0.56790
 Alpha  occ. eigenvalues --   -0.55508  -0.55429  -0.52413  -0.51332  -0.47194
 Alpha  occ. eigenvalues --   -0.45654  -0.43977  -0.42664  -0.41891  -0.41667
 Alpha  occ. eigenvalues --   -0.39438  -0.38750  -0.37956  -0.33537  -0.33470
 Alpha  occ. eigenvalues --   -0.32560  -0.30875  -0.28455  -0.27635  -0.24830
 Alpha  occ. eigenvalues --   -0.24384  -0.24191  -0.21583  -0.20189  -0.19264
 Alpha virt. eigenvalues --   -0.16452  -0.14644  -0.14427  -0.11777  -0.09989
 Alpha virt. eigenvalues --   -0.09387  -0.07768  -0.05400   0.01175   0.02894
 Alpha virt. eigenvalues --    0.04607   0.05825   0.07000   0.07018   0.08973
 Alpha virt. eigenvalues --    0.11514   0.12057   0.12987   0.14307   0.16241
 Alpha virt. eigenvalues --    0.17648   0.19851   0.22554   0.24681   0.24930
 Alpha virt. eigenvalues --    0.26377   0.27069   0.31010   0.33843   0.35901
 Alpha virt. eigenvalues --    0.36436   0.36488   0.36814   0.38199   0.38721
 Alpha virt. eigenvalues --    0.39839   0.41519   0.42718   0.43299   0.43719
 Alpha virt. eigenvalues --    0.45985   0.46570   0.47330   0.47477   0.48506
 Alpha virt. eigenvalues --    0.48905   0.50052   0.50672   0.51170   0.52087
 Alpha virt. eigenvalues --    0.52228   0.53106   0.55147   0.55614   0.56011
 Alpha virt. eigenvalues --    0.56603   0.59100   0.59108   0.60316   0.60485
 Alpha virt. eigenvalues --    0.61474   0.61660   0.62273   0.62646   0.63617
 Alpha virt. eigenvalues --    0.66293   0.66361   0.68108   0.68351   0.69453
 Alpha virt. eigenvalues --    0.70223   0.70244   0.71338   0.71771   0.72185
 Alpha virt. eigenvalues --    0.74757   0.74760   0.75323   0.77060   0.77954
 Alpha virt. eigenvalues --    0.78082   0.79399   0.79954   0.80602   0.82114
 Alpha virt. eigenvalues --    0.82412   0.83495   0.83499   0.84148   0.85156
 Alpha virt. eigenvalues --    0.85578   0.85876   0.87736   0.89689   0.90665
 Alpha virt. eigenvalues --    0.91843   0.92578   0.93049   0.93988   0.94749
 Alpha virt. eigenvalues --    0.95437   0.96188   0.96990   0.98254   0.98399
 Alpha virt. eigenvalues --    0.99067   1.01912   1.03560   1.04225   1.05064
 Alpha virt. eigenvalues --    1.07070   1.07693   1.09654   1.09842   1.10749
 Alpha virt. eigenvalues --    1.13586   1.14011   1.14652   1.15108   1.15401
 Alpha virt. eigenvalues --    1.18022   1.19216   1.20435   1.21203   1.23508
 Alpha virt. eigenvalues --    1.24098   1.26797   1.27484   1.28364   1.29846
 Alpha virt. eigenvalues --    1.29937   1.31193   1.32668   1.33948   1.35797
 Alpha virt. eigenvalues --    1.37546   1.37845   1.38365   1.38827   1.40871
 Alpha virt. eigenvalues --    1.43234   1.44445   1.44693   1.45913   1.46386
 Alpha virt. eigenvalues --    1.48038   1.48247   1.50551   1.50707   1.52500
 Alpha virt. eigenvalues --    1.53334   1.54226   1.56047   1.57515   1.59384
 Alpha virt. eigenvalues --    1.59511   1.60755   1.61441   1.62094   1.63915
 Alpha virt. eigenvalues --    1.66052   1.66977   1.68211   1.69079   1.70052
 Alpha virt. eigenvalues --    1.71595   1.74056   1.74528   1.75903   1.76861
 Alpha virt. eigenvalues --    1.77615   1.80554   1.82289   1.84375   1.86662
 Alpha virt. eigenvalues --    1.88317   1.89927   1.92681   1.94451   1.97966
 Alpha virt. eigenvalues --    1.99821   2.00889   2.03585   2.07283   2.08194
 Alpha virt. eigenvalues --    2.11011   2.11839   2.13214   2.15214   2.15244
 Alpha virt. eigenvalues --    2.18921   2.20884   2.21523   2.22305   2.23268
 Alpha virt. eigenvalues --    2.26137   2.27918   2.30969   2.35138   2.36123
 Alpha virt. eigenvalues --    2.36362   2.39536   2.39831   2.42374   2.43745
 Alpha virt. eigenvalues --    2.45841   2.46622   2.50300   2.53047   2.53525
 Alpha virt. eigenvalues --    2.57384   2.59360   2.60469   2.63066   2.64632
 Alpha virt. eigenvalues --    2.70215   2.71029   2.72316   2.76250   2.77468
 Alpha virt. eigenvalues --    2.78751   2.79820   2.79990   2.82243   2.83418
 Alpha virt. eigenvalues --    2.84112   2.84923   2.89321   2.90042   2.92240
 Alpha virt. eigenvalues --    2.92437   2.94938   2.96357   2.98279   2.98287
 Alpha virt. eigenvalues --    2.99101   3.00109   3.00317   3.01816   3.02455
 Alpha virt. eigenvalues --    3.04557   3.06869   3.07426   3.07748   3.08276
 Alpha virt. eigenvalues --    3.11144   3.12259   3.13242   3.15286   3.16811
 Alpha virt. eigenvalues --    3.18922   3.19671   3.20168   3.21602   3.23759
 Alpha virt. eigenvalues --    3.24871   3.26209   3.28165   3.28181   3.29132
 Alpha virt. eigenvalues --    3.31274   3.34239   3.34425   3.35688   3.40052
 Alpha virt. eigenvalues --    3.40415   3.41019   3.45106   3.45857   3.46629
 Alpha virt. eigenvalues --    3.47952   3.53300   3.54205   3.54621   3.56276
 Alpha virt. eigenvalues --    3.58081   3.59512   3.60541   3.61551   3.63287
 Alpha virt. eigenvalues --    3.65461   3.67216   3.67420   3.68570   3.70515
 Alpha virt. eigenvalues --    3.73143   3.73403   3.74287   3.76540   3.76915
 Alpha virt. eigenvalues --    3.78123   3.78990   3.82568   3.82878   3.84833
 Alpha virt. eigenvalues --    3.88219   3.89667   3.90417   3.90671   3.91715
 Alpha virt. eigenvalues --    3.94548   3.96640   3.96793   3.98812   4.00754
 Alpha virt. eigenvalues --    4.02177   4.04863   4.05874   4.11169   4.12480
 Alpha virt. eigenvalues --    4.12520   4.13405   4.14699   4.16591   4.17321
 Alpha virt. eigenvalues --    4.18947   4.19714   4.20019   4.21374   4.23161
 Alpha virt. eigenvalues --    4.23545   4.23686   4.26105   4.26650   4.27743
 Alpha virt. eigenvalues --    4.29686   4.30533   4.31263   4.31973   4.32056
 Alpha virt. eigenvalues --    4.32260   4.34770   4.36345   4.37060   4.37482
 Alpha virt. eigenvalues --    4.39899   4.40417   4.41223   4.44176   4.45106
 Alpha virt. eigenvalues --    4.45839   4.46000   4.48212   4.49939   4.49945
 Alpha virt. eigenvalues --    4.51896   4.52692   4.54057   4.54114   4.55318
 Alpha virt. eigenvalues --    4.56830   4.56977   4.57587   4.59746   4.60892
 Alpha virt. eigenvalues --    4.61805   4.62691   4.66694   4.68774   4.69837
 Alpha virt. eigenvalues --    4.72077   4.72505   4.77430   4.78764   4.79118
 Alpha virt. eigenvalues --    4.80720   4.81111   4.83382   4.84082   4.88588
 Alpha virt. eigenvalues --    4.92850   4.93971   4.95091   4.97510   4.98008
 Alpha virt. eigenvalues --    5.06435   5.08765   5.09617   5.10407   5.10936
 Alpha virt. eigenvalues --    5.13893   5.15841   5.17355   5.18341   5.24025
 Alpha virt. eigenvalues --    5.24048   5.28370   5.30419   5.33436   5.35323
 Alpha virt. eigenvalues --    5.38636   5.41455   5.43632   5.45548   5.50446
 Alpha virt. eigenvalues --    5.51992   5.55961   5.61813   5.65413   5.70312
 Alpha virt. eigenvalues --    5.74327   5.76191   5.80801   5.91178   5.95731
 Alpha virt. eigenvalues --    6.01863   6.09446   6.17181   6.31673   6.49696
 Alpha virt. eigenvalues --    6.57183   6.59023   7.68313   8.50270   9.38869
 Alpha virt. eigenvalues --    9.70601  10.08231  10.32933  10.37873  10.76161
 Alpha virt. eigenvalues --   10.85941  11.05608  11.26496  11.34176  11.41494
 Alpha virt. eigenvalues --   11.41861  11.70742  11.86277  12.20397  12.44985
 Alpha virt. eigenvalues --   12.89329  21.07906
          Condensed to atoms (all electrons):
               1          2          3          4          5          6
     1  O    8.189153   0.062329   0.001830   0.003896   0.000969  -0.000000
     2  N    0.062329   6.885397   0.123179   0.148656  -0.010899   0.002725
     3  C    0.001830   0.123179   5.745423   0.043517   0.020923  -0.007159
     4  C    0.003896   0.148656   0.043517   5.453227   0.350481  -0.039970
     5  C    0.000969  -0.010899   0.020923   0.350481   4.642330   0.512007
     6  C   -0.000000   0.002725  -0.007159  -0.039970   0.512007   5.022474
     7  C    0.000000   0.000069   0.003414   0.009251   0.050147   0.517218
     8  C    0.000000   0.000000   0.000086  -0.001697  -0.002213   0.023360
     9  C   -0.000000   0.000000  -0.000014   0.000039  -0.000012   0.008472
    10  C   -0.000000   0.000000   0.000000  -0.000001  -0.000040  -0.000564
    11  N    0.000000  -0.000000  -0.000000  -0.000000  -0.000000   0.000013
    12  N    0.000000   0.000000   0.000000  -0.000000  -0.000000   0.000000
    13  C   -0.000000   0.000000   0.000000   0.000000   0.000000  -0.000000
    14  N    0.000000   0.000000  -0.000000   0.000000  -0.000001  -0.000047
    15  C   -0.000000  -0.000000   0.000341  -0.000040   0.000818   0.002263
    16  S   -0.000045   0.002750   0.089756   0.015550  -0.046369  -0.050521
    17  H    0.194499   0.004235  -0.000123  -0.001122   0.000013  -0.000000
    18  H    0.002156  -0.071709   0.006291   0.310946  -0.039815  -0.016379
    19  H   -0.000025  -0.005536  -0.108979  -0.125759   0.308373  -0.012666
    20  H    0.000000  -0.000311   0.000034  -0.015997  -0.048002   0.319538
    21  H   -0.000000   0.000002   0.000424   0.000980  -0.026992  -0.063098
    22  H   -0.000000  -0.000000  -0.000001   0.000028   0.000256  -0.023121
    23  H   -0.000000  -0.000000  -0.000000  -0.000000  -0.000003  -0.000027
    24  H    0.000000  -0.000000  -0.000000  -0.000000  -0.000000   0.000000
               7          8          9         10         11         12
     1  O    0.000000   0.000000  -0.000000  -0.000000   0.000000   0.000000
     2  N    0.000069   0.000000   0.000000   0.000000  -0.000000   0.000000
     3  C    0.003414   0.000086  -0.000014   0.000000  -0.000000   0.000000
     4  C    0.009251  -0.001697   0.000039  -0.000001  -0.000000  -0.000000
     5  C    0.050147  -0.002213  -0.000012  -0.000040  -0.000000  -0.000000
     6  C    0.517218   0.023360   0.008472  -0.000564   0.000013   0.000000
     7  C    4.871985   0.437819   0.069302  -0.006646  -0.000291  -0.000021
     8  C    0.437819   4.901192   0.419135  -0.034914  -0.003677  -0.000886
     9  C    0.069302   0.419135   5.083526   0.331930  -0.038434   0.009566
    10  C   -0.006646  -0.034914   0.331930   4.828736   0.642146  -0.099781
    11  N   -0.000291  -0.003677  -0.038434   0.642146   5.884367   0.384543
    12  N   -0.000021  -0.000886   0.009566  -0.099781   0.384543   6.722919
    13  C    0.000061   0.000494  -0.008115  -0.014182   0.004979   0.309109
    14  N    0.002179  -0.005705   0.007014  -0.006098  -0.040143  -0.006367
    15  C   -0.062439  -0.026203   0.318533  -0.018087   0.002300  -0.000558
    16  S   -0.020391  -0.002315  -0.009366  -0.001295  -0.000091   0.000002
    17  H   -0.000000  -0.000000   0.000000   0.000000   0.000000   0.000000
    18  H   -0.001021   0.000001  -0.000000   0.000000   0.000000  -0.000000
    19  H   -0.080249   0.001644   0.000364   0.000008   0.000000  -0.000000
    20  H   -0.044043  -0.025234  -0.000125   0.000049  -0.000000  -0.000000
    21  H    0.294993  -0.033600  -0.075392   0.007650   0.000191   0.000001
    22  H   -0.046318   0.358067  -0.103760   0.001008   0.000388  -0.000019
    23  H    0.000642  -0.001158  -0.047761   0.340954  -0.028729  -0.002533
    24  H    0.000000   0.000011  -0.000092  -0.000601   0.007932  -0.074276
              13         14         15         16         17         18
     1  O   -0.000000   0.000000  -0.000000  -0.000045   0.194499   0.002156
     2  N    0.000000   0.000000  -0.000000   0.002750   0.004235  -0.071709
     3  C    0.000000  -0.000000   0.000341   0.089756  -0.000123   0.006291
     4  C    0.000000   0.000000  -0.000040   0.015550  -0.001122   0.310946
     5  C    0.000000  -0.000001   0.000818  -0.046369   0.000013  -0.039815
     6  C   -0.000000  -0.000047   0.002263  -0.050521  -0.000000  -0.016379
     7  C    0.000061   0.002179  -0.062439  -0.020391  -0.000000  -0.001021
     8  C    0.000494  -0.005705  -0.026203  -0.002315  -0.000000   0.000001
     9  C   -0.008115   0.007014   0.318533  -0.009366   0.000000  -0.000000
    10  C   -0.014182  -0.006098  -0.018087  -0.001295   0.000000   0.000000
    11  N    0.004979  -0.040143   0.002300  -0.000091   0.000000   0.000000
    12  N    0.309109  -0.006367  -0.000558   0.000002   0.000000  -0.000000
    13  C    5.307297   0.130038   0.002519  -0.000007   0.000000  -0.000000
    14  N    0.130038   7.049598   0.230006   0.000013  -0.000000   0.000000
    15  C    0.002519   0.230006   5.528002   0.056951   0.000000  -0.000000
    16  S   -0.000007   0.000013   0.056951  16.301949   0.000001  -0.001748
    17  H    0.000000  -0.000000   0.000000   0.000001   0.532609   0.000123
    18  H   -0.000000   0.000000  -0.000000  -0.001748   0.000123   0.698735
    19  H   -0.000000  -0.000001  -0.000463  -0.007262   0.000004   0.018133
    20  H   -0.000000  -0.000000  -0.000147  -0.003885   0.000000   0.010792
    21  H   -0.000083  -0.004504  -0.007563  -0.066612   0.000000   0.000023
    22  H   -0.000085  -0.000318   0.004234  -0.002036   0.000000   0.000007
    23  H    0.003201   0.000455   0.000912  -0.000074   0.000000   0.000000
    24  H    0.252880  -0.009327   0.000109  -0.000000   0.000000   0.000000
              19         20         21         22         23         24
     1  O   -0.000025   0.000000  -0.000000  -0.000000  -0.000000   0.000000
     2  N   -0.005536  -0.000311   0.000002  -0.000000  -0.000000  -0.000000
     3  C   -0.108979   0.000034   0.000424  -0.000001  -0.000000  -0.000000
     4  C   -0.125759  -0.015997   0.000980   0.000028  -0.000000  -0.000000
     5  C    0.308373  -0.048002  -0.026992   0.000256  -0.000003  -0.000000
     6  C   -0.012666   0.319538  -0.063098  -0.023121  -0.000027   0.000000
     7  C   -0.080249  -0.044043   0.294993  -0.046318   0.000642   0.000000
     8  C    0.001644  -0.025234  -0.033600   0.358067  -0.001158   0.000011
     9  C    0.000364  -0.000125  -0.075392  -0.103760  -0.047761  -0.000092
    10  C    0.000008   0.000049   0.007650   0.001008   0.340954  -0.000601
    11  N    0.000000  -0.000000   0.000191   0.000388  -0.028729   0.007932
    12  N   -0.000000  -0.000000   0.000001  -0.000019  -0.002533  -0.074276
    13  C   -0.000000  -0.000000  -0.000083  -0.000085   0.003201   0.252880
    14  N   -0.000001  -0.000000  -0.004504  -0.000318   0.000455  -0.009327
    15  C   -0.000463  -0.000147  -0.007563   0.004234   0.000912   0.000109
    16  S   -0.007262  -0.003885  -0.066612  -0.002036  -0.000074  -0.000000
    17  H    0.000004   0.000000   0.000000   0.000000   0.000000   0.000000
    18  H    0.018133   0.010792   0.000023   0.000007   0.000000   0.000000
    19  H    0.868624   0.019532   0.003164  -0.000042   0.000001   0.000000
    20  H    0.019532   0.684823   0.010440   0.007408   0.000056   0.000000
    21  H    0.003164   0.010440   0.794343   0.020666   0.000114   0.000000
    22  H   -0.000042   0.007408   0.020666   0.698025   0.008613   0.000001
    23  H    0.000001   0.000056   0.000114   0.008613   0.553747   0.000061
    24  H    0.000000   0.000000   0.000000   0.000001   0.000061   0.589556
 Mulliken charges:
               1
     1  O   -0.454762
     2  N   -0.140888
     3  C    0.081057
     4  C   -0.151986
     5  C    0.288027
     6  C   -0.194518
     7  C    0.004338
     8  C   -0.004207
     9  C    0.035189
    10  C    0.029727
    11  N    0.184506
    12  N   -0.241699
    13  C    0.011895
    14  N   -0.346792
    15  C   -0.031489
    16  S   -0.254955
    17  H    0.269759
    18  H    0.083466
    19  H    0.121135
    20  H    0.085070
    21  H    0.144853
    22  H    0.077000
    23  H    0.171527
    24  H    0.233747
 Sum of Mulliken charges =  -0.00000
 Mulliken charges with hydrogens summed into heavy atoms:
               1
     1  O   -0.185003
     2  N   -0.140888
     3  C    0.081057
     4  C   -0.068521
     5  C    0.409162
     6  C   -0.109448
     7  C    0.149190
     8  C    0.072793
     9  C    0.035189
    10  C    0.201255
    11  N    0.184506
    12  N   -0.241699
    13  C    0.245642
    14  N   -0.346792
    15  C   -0.031489
    16  S   -0.254955
 Electronic spatial extent (au):  <R**2>=           6232.8749
 Charge=             -0.0000 electrons
 Dipole moment (field-independent basis, Debye):
    X=             -7.5995    Y=             -6.7584    Z=              0.0000  Tot=             10.1699
 Quadrupole moment (field-independent basis, Debye-Ang):
   XX=            -90.4217   YY=            -98.1523   ZZ=           -102.1225
   XY=             -6.6823   XZ=              0.0000   YZ=              0.0000
 Traceless Quadrupole moment (field-independent basis, Debye-Ang):
   XX=              6.4771   YY=             -1.2534   ZZ=             -5.2237
   XY=             -6.6823   XZ=              0.0000   YZ=              0.0000
 Octapole moment (field-independent basis, Debye-Ang**2):
  XXX=           -188.8245  YYY=            -46.2852  ZZZ=             -0.0000  XYY=              7.9492
  XXY=            -66.0303  XXZ=              0.0004  XZZ=             -1.6331  YZZ=             -4.9771
  YYZ=             -0.0000  XYZ=             -0.0000
 Hexadecapole moment (field-independent basis, Debye-Ang**3):
 XXXX=          -6499.0180 YYYY=           -853.6114 ZZZZ=           -103.7611 XXXY=           -676.0549
 XXXZ=              0.0009 YYYX=             53.2442 YYYZ=              0.0000 ZZZX=             -0.0001
 ZZZY=             -0.0000 XXYY=          -1255.0940 XXZZ=          -1268.9689 YYZZ=           -168.4364
 XXYZ=              0.0003 YYXZ=              0.0000 ZZXY=              5.8546
 N-N= 1.028310060277D+03 E-N=-4.584934433461D+03  KE= 1.073021715652D+03
 PrsmSu:  requested number of processors reduced to:  13 ShMem   1 Linda.
 Calling FoFJK, ICntrl=      2127 FMM=F ISym2X=0 I1Cent= 0 IOpClX= 0 NMat=1 NMatS=1 NMatT=0.
 ***** Axes restored to original set *****
 -------------------------------------------------------------------
 Center     Atomic                   Forces (Hartrees/Bohr)
 Number     Number              X              Y              Z
 -------------------------------------------------------------------
      1        8          -0.021992877    0.046436649   -0.051487789
      2        7           0.049914485   -0.081346848    0.090196684
      3        6          -0.079777796    0.044175859   -0.048981729
      4        6          -0.114086585    0.119502675   -0.132502309
      5        6          -0.005498152    0.004504339   -0.004994267
      6        6           0.030730612    0.030412363   -0.033719627
      7        6           0.026857782    0.017151084   -0.019017130
      8        6          -0.013777642    0.052037055   -0.057697993
      9        6           0.024731243   -0.029527539    0.032741289
     10        6          -0.027320984   -0.009033372    0.010014642
     11        7          -0.080480666    0.034049527   -0.037753237
     12        7           0.075656296   -0.075447551    0.083654595
     13        6           0.113063092    0.002026806   -0.002247503
     14        7          -0.097075857   -0.013094460    0.014519089
     15        6           0.188071389   -0.032528630    0.036065625
     16       16          -0.047812404   -0.029653205    0.032879137
     17        1           0.040760969   -0.053739810    0.059585194
     18        1          -0.002745198   -0.009279603    0.010289664
     19        1          -0.005585400   -0.081926933    0.090837308
     20        1           0.046898504    0.048636490   -0.053926962
     21        1          -0.056603717   -0.034008104    0.037707797
     22        1           0.047592046    0.023180222   -0.025701818
     23        1          -0.008253448    0.021515093   -0.023855103
     24        1          -0.083265692    0.005957894   -0.006605554
 -------------------------------------------------------------------
 Cartesian Forces:  Max     0.188071389 RMS     0.056819502

 GradGradGradGradGradGradGradGradGradGradGradGradGradGradGradGradGradGrad
 Berny optimization.
 FormGI is forming the generalized inverse of G from B-inverse, IUseBI=4.
 Internal  Forces:  Max     0.253381206 RMS     0.054175659
 Search for a local minimum.
 Step number   1 out of a maximum of  122
 All quantities printed in internal units (Hartrees-Bohrs-Radians)
 Mixed Optimization -- RFO/linear search
 Second derivative matrix not updated -- first step.
 ITU=  0
     Eigenvalues ---    0.00230   0.00230   0.00230   0.00473   0.00617
     Eigenvalues ---    0.01007   0.01068   0.01371   0.01610   0.01830
     Eigenvalues ---    0.02361   0.02811   0.02885   0.03176   0.03259
     Eigenvalues ---    0.03297   0.03512   0.03656   0.03677   0.03716
     Eigenvalues ---    0.04205   0.07664   0.08979   0.10080   0.12978
     Eigenvalues ---    0.12983   0.15425   0.15979   0.16000   0.16000
     Eigenvalues ---    0.16000   0.16000   0.16000   0.16000   0.17328
     Eigenvalues ---    0.18271   0.18941   0.20144   0.21103   0.21319
     Eigenvalues ---    0.21906   0.22000   0.22000   0.22383   0.22514
     Eigenvalues ---    0.23675   0.25000   0.25000   0.25000   0.25000
     Eigenvalues ---    0.29245   0.30330   0.34352   0.37894   0.38829
     Eigenvalues ---    0.43780   0.45188   0.47928   0.50073   0.64096
     Eigenvalues ---    0.66242   0.73091   0.74282   0.82569   0.99770
     Eigenvalues ---    1.00066
 RFO step:  Lambda=-4.06508644D-01 EMin= 2.30000000D-03
 Linear search not attempted -- first point.
 Maximum step size (   0.300) exceeded in Quadratic search.
    -- Step size scaled by   0.406
 Iteration  1 RMS(Cart)=  0.11226295 RMS(Int)=  0.00544798
 Iteration  2 RMS(Cart)=  0.00664592 RMS(Int)=  0.00009484
 Iteration  3 RMS(Cart)=  0.00000833 RMS(Int)=  0.00009480
 Iteration  4 RMS(Cart)=  0.00000000 RMS(Int)=  0.00009480
 Variable       Old X    -DE/DX   Delta X   Delta X   Delta X     New X
                                 (Linear)    (Quad)   (Total)
    R1        3.45788  -0.02165   0.00000  -0.01640  -0.01640   3.44148
    R2        2.16194  -0.08844   0.00000  -0.05139  -0.05139   2.11055
    R3        3.31181  -0.08213   0.00000  -0.06592  -0.06608   3.24573
    R4        3.08429  -0.00832   0.00000  -0.00141  -0.00113   3.08315
    R5        3.05021   0.02656   0.00000   0.01642   0.01614   3.06635
    R6        2.33071   0.13758   0.00000   0.04584   0.04609   2.37680
    R7        2.14010  -0.01401   0.00000  -0.00802  -0.00802   2.13208
    R8        2.44495   0.14724   0.00000   0.05663   0.05668   2.50164
    R9        1.83205   0.13580   0.00000   0.06092   0.06081   1.89286
   R10        2.39565   0.11347   0.00000   0.04051   0.04062   2.43627
   R11        1.88716   0.08434   0.00000   0.03867   0.03867   1.92584
   R12        2.47839   0.14210   0.00000   0.05510   0.05510   2.53349
   R13        1.87847   0.11381   0.00000   0.05128   0.05134   1.92981
   R14        2.41871   0.16568   0.00000   0.05917   0.05917   2.47788
   R15        1.93419   0.05486   0.00000   0.02639   0.02639   1.96058
   R16        2.80040  -0.01308   0.00000  -0.00708  -0.00708   2.79331
   R17        3.10292  -0.02238   0.00000  -0.01472  -0.01472   3.08819
   R18        2.28612   0.05487   0.00000   0.01584   0.01584   2.30196
   R19        2.01220   0.02218   0.00000   0.01147   0.01147   2.02367
   R20        2.26414   0.14622   0.00000   0.04256   0.04254   2.30668
   R21        3.21120  -0.02039   0.00000  -0.01348  -0.01350   3.19771
   R22        2.70477  -0.00707   0.00000  -0.00707  -0.00703   2.69774
   R23        2.59215  -0.06673   0.00000  -0.04833  -0.04833   2.54381
   R24        3.23994  -0.06074   0.00000  -0.04255  -0.04255   3.19739
   R25        3.46212   0.00921   0.00000   0.00651   0.00642   3.46853
   R26        3.56723   0.05164   0.00000   0.04009   0.04007   3.60729
    A1        2.31047  -0.03602   0.00000  -0.02583  -0.02583   2.28464
    A2        2.53344  -0.01624   0.00000  -0.00870  -0.00880   2.52464
    A3        2.57992  -0.04699   0.00000  -0.02772  -0.02782   2.55211
    A4        1.16982   0.06323   0.00000   0.03642   0.03661   1.20643
    A5        2.02631   0.02930   0.00000   0.00984   0.00938   2.03568
    A6        2.45944  -0.07003   0.00000  -0.03819  -0.03786   2.42158
    A7        1.74615   0.03312   0.00000   0.01773   0.01757   1.76371
    A8        2.07760   0.03692   0.00000   0.02046   0.02029   2.09789
    A9        2.52317   0.02040   0.00000   0.00534   0.00527   2.52844
   A10        1.94512  -0.02626   0.00000  -0.01202  -0.01190   1.93322
   A11        1.81489   0.00586   0.00000   0.00668   0.00663   1.82152
   A12        2.09203  -0.03195   0.00000  -0.01275  -0.01259   2.07944
   A13        1.96514   0.03387   0.00000   0.01920   0.01912   1.98427
   A14        2.22601  -0.00192   0.00000  -0.00645  -0.00653   2.21948
   A15        2.29039   0.01329   0.00000   0.00679   0.00672   2.29710
   A16        2.22313  -0.03943   0.00000  -0.02387  -0.02372   2.19941
   A17        1.76967   0.02614   0.00000   0.01708   0.01700   1.78667
   A18        1.98737   0.03740   0.00000   0.02425   0.02425   2.01162
   A19        1.98623   0.00189   0.00000   0.00264   0.00264   1.98887
   A20        2.30958  -0.03930   0.00000  -0.02689  -0.02689   2.28269
   A21        1.75060   0.08394   0.00000   0.05193   0.05193   1.80253
   A22        2.04048   0.00424   0.00000   0.00262   0.00262   2.04310
   A23        2.49210  -0.08818   0.00000  -0.05455  -0.05455   2.43755
   A24        2.13636  -0.07472   0.00000  -0.04844  -0.04844   2.08792
   A25        2.23793   0.01255   0.00000   0.00643   0.00643   2.24437
   A26        1.90889   0.06217   0.00000   0.04201   0.04201   1.95090
   A27        2.34354  -0.05290   0.00000  -0.04105  -0.04098   2.30257
   A28        2.17389   0.09539   0.00000   0.05664   0.05668   2.23058
   A29        1.40641   0.03575   0.00000   0.03738   0.03734   1.44375
   A30        1.44162   0.25338   0.00000   0.15676   0.15676   1.59838
   A31        1.18330   0.00262   0.00000  -0.00835  -0.00869   1.17461
   A32        1.82409   0.00376   0.00000   0.00395   0.00377   1.82786
   A33        1.58628  -0.01678   0.00000  -0.01268  -0.01252   1.57376
   A34        2.87281   0.01302   0.00000   0.00873   0.00876   2.88157
   A35        2.38021   0.04987   0.00000   0.02956   0.02961   2.40982
   A36        3.32167  -0.06090   0.00000  -0.04319  -0.04327   3.27840
   A37        3.14160  -0.00000   0.00000  -0.00000  -0.00000   3.14160
    D1        3.14158   0.00000   0.00000   0.00000   0.00000   3.14158
    D2        0.00000  -0.00000   0.00000  -0.00000  -0.00000   0.00000
    D3        3.14159  -0.00000   0.00000  -0.00000  -0.00000   3.14159
    D4       -0.00001  -0.00000   0.00000  -0.00000  -0.00000  -0.00001
    D5        3.14159  -0.00000   0.00000  -0.00000  -0.00000   3.14159
    D6       -0.00001   0.00000   0.00000   0.00000   0.00000  -0.00001
    D7        0.00000  -0.00000   0.00000  -0.00000  -0.00000   0.00000
    D8        3.14159  -0.00000   0.00000   0.00000   0.00000  -3.14159
    D9        0.00002  -0.00000   0.00000  -0.00000  -0.00000   0.00002
   D10       -3.14159   0.00000   0.00000   0.00000   0.00000  -3.14159
   D11        3.14158   0.00000   0.00000   0.00000   0.00000   3.14158
   D12        0.00001  -0.00000   0.00000  -0.00000  -0.00000   0.00001
   D13       -0.00001   0.00000   0.00000   0.00000   0.00000  -0.00000
   D14       -3.14158  -0.00000   0.00000  -0.00000  -0.00000  -3.14158
   D15       -3.14159   0.00000   0.00000   0.00000   0.00000  -3.14159
   D16        0.00001   0.00000   0.00000  -0.00000  -0.00000   0.00001
   D17       -0.00001   0.00000   0.00000   0.00000   0.00000  -0.00001
   D18        3.14159   0.00000   0.00000   0.00000   0.00000   3.14159
   D19       -0.00001   0.00000   0.00000   0.00000   0.00000  -0.00001
   D20       -3.14156   0.00000   0.00000   0.00000   0.00000  -3.14156
   D21        3.14159  -0.00000   0.00000  -0.00000  -0.00000   3.14159
   D22        0.00005  -0.00000   0.00000  -0.00000  -0.00000   0.00005
   D23       -3.14159  -0.00000   0.00000  -0.00000  -0.00000  -3.14159
   D24        0.00000  -0.00000   0.00000  -0.00000  -0.00000   0.00000
   D25       -0.00001   0.00000   0.00000   0.00000   0.00000  -0.00001
   D26        3.14159   0.00000   0.00000   0.00000   0.00000   3.14159
   D27       -3.14159   0.00000   0.00000   0.00000   0.00000  -3.14159
   D28        0.00000   0.00000   0.00000   0.00000   0.00000   0.00000
   D29        0.00000   0.00000   0.00000   0.00000   0.00000   0.00000
   D30        3.14159   0.00000   0.00000   0.00000   0.00000   3.14159
   D31        0.00000   0.00000   0.00000   0.00000   0.00000   0.00000
   D32       -3.14159   0.00000   0.00000  -0.00000  -0.00000  -3.14159
   D33       -3.14159   0.00000   0.00000   0.00000   0.00000  -3.14159
   D34       -0.00001  -0.00000   0.00000   0.00000   0.00000  -0.00001
   D35        0.00001   0.00000   0.00000   0.00000   0.00000   0.00001
   D36        3.14159  -0.00000   0.00000  -0.00000  -0.00000   3.14159
   D37       -3.14159  -0.00000   0.00000  -0.00000  -0.00000  -3.14159
   D38       -0.00001   0.00000   0.00000   0.00000   0.00000  -0.00001
   D39        0.00002  -0.00000   0.00000  -0.00000  -0.00000   0.00002
   D40       -3.14159  -0.00000   0.00000  -0.00000  -0.00000  -3.14159
   D41       -3.14159  -0.00000   0.00000  -0.00000  -0.00000  -3.14159
   D42       -0.00001   0.00000   0.00000   0.00000   0.00000  -0.00001
   D43       -0.00001  -0.00000   0.00000  -0.00000  -0.00000  -0.00001
   D44        3.14159  -0.00000   0.00000  -0.00000  -0.00000   3.14159
   D45       -3.14159  -0.00000   0.00000  -0.00000  -0.00000  -3.14159
   D46       -3.14159  -0.00000   0.00000  -0.00000  -0.00000  -3.14159
   D47       -3.14158   0.00000   0.00000  -0.00000  -0.00000  -3.14158
   D48       -0.00004   0.00000   0.00000  -0.00000  -0.00000  -0.00004
   D49        0.00000  -0.00000   0.00000  -0.00000  -0.00000   0.00000
         Item               Value     Threshold  Converged?
 Maximum Force            0.253381     0.000450     NO 
 RMS     Force            0.054176     0.000300     NO 
 Maximum Displacement     0.619661     0.001800     NO 
 RMS     Displacement     0.111984     0.001200     NO 
 Predicted change in Energy=-1.498590D-01
 GradGradGradGradGradGradGradGradGradGradGradGradGradGradGradGradGradGrad

                          Input orientation:                          
 ---------------------------------------------------------------------
 Center     Atomic      Atomic             Coordinates (Angstroms)
 Number     Number       Type             X           Y           Z
 ---------------------------------------------------------------------
      1          8           0        1.388019   -0.590927    0.554156
      2          7           0        3.052940   -1.085190    1.102185
      3          6           0        3.931006   -2.073826    2.198372
      4          6           0        4.660331   -0.897898    0.894524
      5          6           0        5.734059   -1.336584    1.380932
      6          6           0        7.055040   -1.278653    1.316692
      7          6           0        7.755116   -2.003701    2.120611
      8          6           0        9.080267   -2.139900    2.271622
      9          6           0        9.453400   -2.981784    3.205078
     10          6           0       10.929173   -2.925561    3.142749
     11          7           0       11.590558   -3.610681    3.902391
     12          7           0       12.386903   -4.230254    4.589361
     13          6           0       11.147228   -4.704395    5.115086
     14          7           0        9.402294   -4.578433    4.975411
     15          6           0        8.269841   -3.736481    4.041879
     16         16           0        5.686434   -3.221813    3.471224
     17          1           0        1.061582    0.124414   -0.238995
     18          1           0        4.683645   -0.142427    0.056871
     19          1           0        5.549475   -1.995954    2.112014
     20          1           0        7.402653   -0.637043    0.605295
     21          1           0        7.387592   -2.641818    2.828142
     22          1           0        9.640436   -1.555034    1.623134
     23          1           0       11.548558   -2.340491    2.494030
     24          1           0       11.957520   -5.424324    5.913327
 ---------------------------------------------------------------------
                    Distance matrix (angstroms):
                    1          2          3          4          5
     1  O    0.000000
     2  N    1.821152   0.000000
     3  C    3.371827   1.717564   0.000000
     4  C    3.304256   1.631535   1.901247   0.000000
     5  C    4.486383   2.707268   2.112519   1.257749   0.000000
     6  C    5.759302   4.012511   3.342043   2.461267   1.323810
     7  C    6.707432   4.898093   3.825544   3.507675   2.253185
     8  C    8.032415   6.229660   5.150206   4.793204   3.554680
     9  C    8.820089   6.998937   5.686360   5.714434   4.457319
    10  C   10.158000   8.341817   7.112780   6.961632   5.711222
    11  N   11.154434   9.333283   7.995895   8.027111   6.769627
    12  N   12.267968  10.448669   9.048160   9.190013   7.932696
    13  C   11.531040   9.732396   8.215898   8.624524   7.388401
    14  N    9.983803   8.216990   6.627217   7.258526   6.073369
    15  C    8.331759   6.548832   4.998843   5.567043   4.389799
    16  S    5.822991   4.136761   2.453478   3.618405   2.815258
    17  H    1.116854   2.688385   4.359657   3.909089   5.156619
    18  H    3.362975   2.154225   2.980402   1.128248   2.069425
    19  H    4.660337   2.842874   1.622641   1.865097   1.001660
    20  H    6.015028   4.400879   4.081001   2.769843   1.968546
    21  H    6.735878   4.918458   3.559103   3.770689   2.555822
    22  H    8.377029   6.624745   5.761739   5.075840   3.919969
    23  H   10.490979   8.699916   7.627950   7.217144   6.004599
    24  H   12.798312  11.012117   9.457889   9.946150   8.716862
                    6          7          8          9         10
     6  C    0.000000
     7  C    1.289219   0.000000
     8  C    2.398995   1.340664   0.000000
     9  C    3.495538   2.239840   1.311235   0.000000
    10  C    4.588648   3.459657   2.189653   1.478158   0.000000
    11  N    5.717964   4.524129   3.335291   2.334352   1.218145
    12  N    6.917446   5.701378   4.547014   3.475680   2.433081
    13  C    6.550535   5.269446   4.351351   3.079704   2.664942
    14  N    5.457506   4.182383   3.655219   2.384529   2.902067
    15  C    3.865656   2.637943   2.517871   1.634202   2.921998
    16  S    3.207953   2.754524   3.758682   3.783978   5.261366
    17  H    6.349040   7.409454   8.702277   9.588155  10.867746
    18  H    2.915763   4.142137   5.312749   6.381514   7.501673
    19  H    1.847643   2.205672   3.537328   4.172203   5.555874
    20  H    1.019109   2.070788   2.801716   4.057369   4.910431
    21  H    2.062351   1.021209   1.851158   2.127256   3.566831
    22  H    2.618122   2.000804   1.037493   2.138491   2.418350
    23  H    4.765010   3.826626   2.486395   2.303591   1.070878
    24  H    7.896198   6.614042   5.685776   4.423938   3.870067
                   11         12         13         14         15
    11  N    0.000000
    12  N    1.220640   0.000000
    13  C    1.692153   1.427582   0.000000
    14  N    2.622292   3.029547   1.755042   0.000000
    15  C    3.326025   4.182553   3.219936   1.691986   0.000000
    16  S    5.932605   6.867567   5.892420   4.232094   2.695278
    17  H   11.914754  13.059060  12.397736  10.902948   9.229918
    18  H    8.632628   9.828223   9.390155   8.132394   6.454326
    19  H    6.504420   7.607875   6.905718   5.450913   3.762207
    20  H    6.103435   7.323025   7.134663   6.215387   4.708359
    21  H    4.444955   5.533365   4.859959   3.524239   1.857365
    22  H    3.636437   4.847513   4.937877   4.520554   3.533775
    23  H    1.897005   2.943541   3.552329   3.971408   3.885178
    24  H    2.732732   1.833865   1.346127   2.850333   4.466554
                   16         17         18         19         20
    16  S    0.000000
    17  H    6.808246   0.000000
    18  H    4.705955   3.643911   0.000000
    19  H    1.835467   5.492212   2.899800   0.000000
    20  H    4.223741   6.442191   2.817520   2.747928   0.000000
    21  H    1.908898   7.554984   4.608496   2.075730   2.993393
    22  H    4.672015   8.937830   5.386874   4.143594   2.624191
    23  H    6.008006  11.114038   7.609090   6.021099   4.863906
    24  H    7.081062  13.687988  10.728736   8.201630   8.475853
                   21         22         23         24
    21  H    0.000000
    22  H    2.776409   0.000000
    23  H    4.185219   2.239717   0.000000
    24  H    6.176159   6.224631   4.622647   0.000000
 Stoichiometry    C10H8N4OS
 Framework group  C1[X(C10H8N4OS)]
 Deg. of freedom    66
 Full point group                 C1      NOp   1
 Largest Abelian subgroup         C1      NOp   1
 Largest concise Abelian subgroup C1      NOp   1
                         Standard orientation:                         
 ---------------------------------------------------------------------
 Center     Atomic      Atomic             Coordinates (Angstroms)
 Number     Number       Type             X           Y           Z
 ---------------------------------------------------------------------
      1          8           0        6.676394    0.236601   -0.000003
      2          7           0        4.860991    0.092004   -0.000002
      3          6           0        3.385590    0.971333    0.000006
      4          6           0        3.581112   -0.919834    0.000003
      5          6           0        2.325002   -0.855657    0.000004
      6          6           0        1.204881   -1.561207   -0.000001
      7          6           0        0.073514   -0.943069    0.000001
      8          6           0       -1.188404   -1.395776   -0.000001
      9          6           0       -2.115468   -0.468473   -0.000005
     10          6           0       -3.372896   -1.245536    0.000001
     11          7           0       -4.441837   -0.661375   -0.000001
     12          7           0       -5.582790   -0.227569   -0.000000
     13          6           0       -4.830296    0.985585    0.000005
     14          7           0       -3.206603    1.651764   -0.000003
     15          6           0       -1.611932    1.086219    0.000001
     16         16           0        1.025478    1.641726   -0.000001
     17          1           0        7.472367   -0.546846   -0.000000
     18          1           0        4.098157   -1.922634   -0.000000
     19          1           0        2.018123    0.097836   -0.000005
     20          1           0        1.355799   -2.569080    0.000003
     21          1           0       -0.057417    0.069712    0.000001
     22          1           0       -1.264728   -2.430458   -0.000002
     23          1           0       -3.501133   -2.308708   -0.000002
     24          1           0       -6.054916    1.544480    0.000005
 ---------------------------------------------------------------------
 Rotational constants (GHZ):           1.7019052           0.1709464           0.1553431
 Standard basis: 6-31G(2df,p) (6D, 7F)
 There are   540 symmetry adapted cartesian basis functions of A   symmetry.
 There are   492 symmetry adapted basis functions of A   symmetry.
   492 basis functions,   784 primitive gaussians,   540 cartesian basis functions
    60 alpha electrons       60 beta electrons
       nuclear repulsion energy      1018.7942705753 Hartrees.
 NAtoms=   24 NActive=   24 NUniq=   24 SFac= 1.00D+00 NAtFMM=   60 NAOKFM=F Big=F
 Integral buffers will be    131072 words long.
 Raffenetti 2 integral format.
 Two-electron integral symmetry is turned on.
 One-electron integrals computed using PRISM.
 PrsmSu:  requested number of processors reduced to:  12 ShMem   1 Linda.
 NBasis=   492 RedAO= T EigKep=  1.19D-04  NBF=   492
 NBsUse=   492 1.00D-06 EigRej= -1.00D+00 NBFU=   492
 Initial guess from the checkpoint file:  "ONdc1cccccc2cnncnc-2s1.chk"
 B after Tr=    -0.000000    0.000000    0.000000
         Rot=    1.000000   -0.000000   -0.000000    0.000409 Ang=   0.05 deg.
 ExpMin= 1.17D-01 ExpMax= 2.19D+04 ExpMxC= 3.30D+03 IAcc=2 IRadAn=         4 AccDes= 0.00D+00
 Harris functional with IExCor=  402 and IRadAn=       4 diagonalized for initial guess.
 HarFok:  IExCor=  402 AccDes= 0.00D+00 IRadAn=         4 IDoV= 1 UseB2=F ITyADJ=14
 ICtDFT=  3500011 ScaDFX=  1.000000  1.000000  1.000000  1.000000
 FoFCou: FMM=F IPFlag=           0 FMFlag=      100000 FMFlg1=           0
         NFxFlg=           0 DoJE=T BraDBF=F KetDBF=T FulRan=T
         wScrn=  0.000000 ICntrl=       500 IOpCl=  0 I1Cent=   200000004 NGrid=           0
         NMat0=    1 NMatS0=      1 NMatT0=    0 NMatD0=    1 NMtDS0=    0 NMtDT0=    0
 Petite list used in FoFCou.
 Requested convergence on RMS density matrix=1.00D-08 within 128 cycles.
 Requested convergence on MAX density matrix=1.00D-06.
 Requested convergence on             energy=1.00D-06.
 No special actions if energy rises.
 Integral accuracy reduced to 1.0D-05 until final iterations.
 Problem detected with inexpensive integrals.
 Switching to full accuracy and repeating last cycle.
 EnCoef did     2 forward-backward iterations
 EnCoef did     7 forward-backward iterations
 EnCoef did     6 forward-backward iterations
 EnCoef did    13 forward-backward iterations
 EnCoef did     1 forward-backward iterations
 Restarting incremental Fock formation.
 SCF Done:  E(RB3LYP) =  -1077.02566277     A.U. after   27 cycles
            NFock= 27  Conv=0.68D-08     -V/T= 2.0045
 PrsmSu:  requested number of processors reduced to:  13 ShMem   1 Linda.
 Calling FoFJK, ICntrl=      2127 FMM=F ISym2X=0 I1Cent= 0 IOpClX= 0 NMat=1 NMatS=1 NMatT=0.
 ***** Axes restored to original set *****
 -------------------------------------------------------------------
 Center     Atomic                   Forces (Hartrees/Bohr)
 Number     Number              X              Y              Z
 -------------------------------------------------------------------
      1        8          -0.023261292    0.041405505   -0.045909422
      2        7           0.063415123   -0.080523711    0.089283959
      3        6          -0.080765675    0.044203818   -0.049012780
      4        6          -0.083727689    0.098322706   -0.109018462
      5        6          -0.009378925    0.002505281   -0.002778214
      6        6           0.018524225    0.023387691   -0.025930626
      7        6           0.032060077    0.009248913   -0.010255393
      8        6          -0.022774686    0.032844102   -0.036417347
      9        6          -0.010903527   -0.012275374    0.013612589
     10        6          -0.016723066   -0.016321781    0.018095917
     11        7          -0.042369017    0.048242853   -0.053490346
     12        7           0.030363833   -0.054979055    0.060959424
     13        6           0.053884671   -0.027120193    0.030069449
     14        7          -0.032211658    0.001772786   -0.001964561
     15        6           0.183766060   -0.031297468    0.034700218
     16       16          -0.043773697   -0.024963745    0.027679634
     17        1           0.040287443   -0.048547203    0.053827833
     18        1          -0.001779326   -0.009434850    0.010461820
     19        1           0.003402016   -0.060600539    0.067191642
     20        1           0.035867453    0.035346293   -0.039191338
     21        1          -0.044551129   -0.018459783    0.020467908
     22        1           0.039834019    0.016558638   -0.018359857
     23        1          -0.009036375    0.018235196   -0.020218363
     24        1          -0.080148858    0.012449920   -0.013803683
 -------------------------------------------------------------------
 Cartesian Forces:  Max     0.183766060 RMS     0.047257154

 GradGradGradGradGradGradGradGradGradGradGradGradGradGradGradGradGradGrad
 Berny optimization.
 Using GEDIIS/GDIIS optimizer.
 FormGI is forming the generalized inverse of G from B-inverse, IUseBI=4.
 Internal  Forces:  Max     0.252039384 RMS     0.057378491
 Search for a local minimum.
 Step number   2 out of a maximum of  122
 All quantities printed in internal units (Hartrees-Bohrs-Radians)
 Mixed Optimization -- RFO/linear search
 Update second derivatives using D2CorX and points    1    2
 DE= -1.57D-01 DEPred=-1.50D-01 R= 1.05D+00
 TightC=F SS=  1.41D+00  RLast= 3.00D-01 DXNew= 5.0454D-01 8.9999D-01
 Trust test= 1.05D+00 RLast= 3.00D-01 DXMaxT set to 5.05D-01
 ITU=  1  0
 Use linear search instead of GDIIS.
 Linear search step of   0.600 exceeds DXMaxT=   0.505 but not scaled.
 Quartic linear search produced a step of  2.00000.
 Iteration  1 RMS(Cart)=  0.19927341 RMS(Int)=  0.02155806
 Iteration  2 RMS(Cart)=  0.04339040 RMS(Int)=  0.00236525
 Iteration  3 RMS(Cart)=  0.00231073 RMS(Int)=  0.00055229
 Iteration  4 RMS(Cart)=  0.00000144 RMS(Int)=  0.00055229
 Iteration  5 RMS(Cart)=  0.00000000 RMS(Int)=  0.00055229
 Variable       Old X    -DE/DX   Delta X   Delta X   Delta X     New X
                                 (Linear)    (Quad)   (Total)
    R1        3.44148  -0.01989  -0.03280   0.00000  -0.03280   3.40868
    R2        2.11055  -0.08110  -0.10279   0.00000  -0.10279   2.00776
    R3        3.24573  -0.09202  -0.13217   0.00000  -0.13303   3.11269
    R4        3.08315  -0.00751  -0.00227   0.00000  -0.00070   3.08246
    R5        3.06635   0.01877   0.03228   0.00000   0.03065   3.09700
    R6        2.37680   0.09488   0.09217   0.00000   0.09359   2.47039
    R7        2.13208  -0.01412  -0.01604   0.00000  -0.01604   2.11604
    R8        2.50164   0.10476   0.11337   0.00000   0.11367   2.61531
    R9        1.89286   0.10316   0.12163   0.00000   0.12090   2.01376
   R10        2.43627   0.07981   0.08124   0.00000   0.08184   2.51811
   R11        1.92584   0.06185   0.07735   0.00000   0.07735   2.00319
   R12        2.53349   0.09529   0.11020   0.00000   0.11020   2.64369
   R13        1.92981   0.08305   0.10267   0.00000   0.10299   2.03279
   R14        2.47788   0.10954   0.11833   0.00000   0.11833   2.59621
   R15        1.96058   0.04232   0.05278   0.00000   0.05278   2.01336
   R16        2.79331  -0.06558  -0.01417   0.00000  -0.01417   2.77915
   R17        3.08819  -0.07936  -0.02945   0.00000  -0.02945   3.05875
   R18        2.30196   0.00606   0.03168   0.00000   0.03168   2.33364
   R19        2.02367   0.01698   0.02294   0.00000   0.02294   2.04661
   R20        2.30668   0.09562   0.08508   0.00000   0.08494   2.39162
   R21        3.19771  -0.00179  -0.02700   0.00000  -0.02708   3.17062
   R22        2.69774   0.02371  -0.01406   0.00000  -0.01384   2.68390
   R23        2.54381  -0.06309  -0.09667   0.00000  -0.09667   2.44714
   R24        3.19739  -0.02353  -0.08511   0.00000  -0.08511   3.11228
   R25        3.46853   0.00455   0.01283   0.00000   0.01231   3.48084
   R26        3.60729   0.04314   0.08013   0.00000   0.08006   3.68735
    A1        2.28464  -0.03660  -0.05166   0.00000  -0.05166   2.23299
    A2        2.52464  -0.01604  -0.01760   0.00000  -0.01816   2.50649
    A3        2.55211  -0.04284  -0.05563   0.00000  -0.05619   2.49591
    A4        1.20643   0.05889   0.07323   0.00000   0.07435   1.28078
    A5        2.03568   0.01755   0.01876   0.00000   0.01614   2.05182
    A6        2.42158  -0.06287  -0.07571   0.00000  -0.07370   2.34788
    A7        1.76371   0.02985   0.03513   0.00000   0.03412   1.79784
    A8        2.09789   0.03302   0.04058   0.00000   0.03957   2.13747
    A9        2.52844   0.01425   0.01054   0.00000   0.01020   2.53864
   A10        1.93322  -0.01912  -0.02380   0.00000  -0.02313   1.91009
   A11        1.82152   0.00488   0.01327   0.00000   0.01293   1.83446
   A12        2.07944  -0.02540  -0.02518   0.00000  -0.02426   2.05518
   A13        1.98427   0.02783   0.03825   0.00000   0.03778   2.02205
   A14        2.21948  -0.00243  -0.01306   0.00000  -0.01353   2.20595
   A15        2.29710   0.00838   0.01343   0.00000   0.01299   2.31009
   A16        2.19941  -0.03102  -0.04744   0.00000  -0.04655   2.15286
   A17        1.78667   0.02264   0.03401   0.00000   0.03356   1.82024
[...]
 Iteration  2 RMS(Cart)=  0.03685956 RMS(Int)=  0.02547730
 Iteration  3 RMS(Cart)=  0.00448286 RMS(Int)=  0.00523284
 Iteration  4 RMS(Cart)=  0.00166253 RMS(Int)=  0.00518876
 Iteration  5 RMS(Cart)=  0.00000934 RMS(Int)=  0.00518875
 Iteration  6 RMS(Cart)=  0.00000057 RMS(Int)=  0.00518875
 Variable       Old X    -DE/DX   Delta X   Delta X   Delta X     New X
                                 (Linear)    (Quad)   (Total)
    R1        3.50337  -0.02056   0.00791  -0.10530  -0.09739   3.40598
    R2        1.77115   0.03256   0.03622  -0.00478   0.03143   1.80258
    R3        2.35776  -0.01399  -0.02936   0.01961  -0.00982   2.34795
    R4        2.61904   0.04420   0.06531   0.00110   0.06725   2.68629
    R5        3.55268  -0.00756  -0.12046   0.13286   0.01124   3.56392
    R6        2.49896   0.02805  -0.00663   0.07535   0.06983   2.56879
    R7        2.04449  -0.00059   0.00050  -0.00411  -0.00361   2.04088
    R8        2.65320   0.00743  -0.00123   0.05089   0.05137   2.70457
    R9        1.98780  -0.00090   0.03790   0.01209   0.05175   2.03955
   R10        2.56680   0.01043  -0.00600   0.04578   0.03890   2.60570
   R11        2.02008   0.01339   0.00034   0.04323   0.04357   2.06365
   R12        2.66392   0.00507  -0.01517   0.05950   0.04433   2.70825
   R13        2.03279   0.02546   0.01278   0.03792   0.04836   2.08115
   R14        2.51352   0.03656   0.01140   0.06278   0.07418   2.58770
   R15        2.04343   0.00571  -0.00363   0.02988   0.02625   2.06968
   R16        2.99095  -0.06256  -0.01744  -0.05793  -0.07543   2.91551
   R17        2.79270  -0.03190   0.01018  -0.12497  -0.11486   2.67785
   R18        2.35600  -0.00543  -0.01901   0.07464   0.05565   2.41165
   R19        2.08677  -0.00468  -0.00728   0.00121  -0.00608   2.08069
   R20        2.63807  -0.01442  -0.00973   0.02984   0.01971   2.65778
   R21        4.23512   0.03431  -0.06000   0.12372   0.06413   4.29925
   R22        2.44428  -0.03994  -0.01364  -0.00057  -0.01450   2.42978
   R23        2.07084  -0.00804  -0.01700  -0.01367  -0.03067   2.04017
   R24        2.29591   0.01004  -0.01301  -0.01375  -0.02663   2.26929
   R25        3.96665  -0.03363  -0.13695   0.06959  -0.06517   3.90148
   R26        4.81508   0.02242  -0.12435   0.17960   0.05313   4.86820
    A1        1.63100   0.01186   0.03243   0.01929   0.05172   1.68272
    A2        2.02018   0.00475   0.03667  -0.00248   0.03430   2.05447
    A3        1.93127   0.00386   0.03043  -0.00825   0.02225   1.95352
    A4        2.33165  -0.00862  -0.06708   0.01068  -0.05661   2.27505
    A5        1.26250   0.00303   0.06179   0.00743   0.06588   1.32838
    A6        1.86899  -0.00196   0.00444   0.01106   0.01663   1.88562
    A7        2.03363   0.00650  -0.00430   0.01598   0.01115   2.04478
    A8        2.38041  -0.00455  -0.00011  -0.02713  -0.02782   2.35259
    A9        2.58834   0.03387   0.00177   0.00568   0.00425   2.59259
   A10        1.72723  -0.02336  -0.00522   0.01322   0.00492   1.73215
   A11        1.96735  -0.01052   0.00349  -0.01899  -0.00935   1.95800
   A12        1.96844  -0.02715  -0.01843  -0.01588  -0.03083   1.93761
   A13        2.17114   0.01276   0.00997   0.00471   0.01288   2.18402
   A14        2.14357   0.01439   0.00846   0.01116   0.01796   2.16152
   A15        2.26565   0.00651  -0.00330   0.02153   0.01838   2.28403
   A16        1.95779   0.00081   0.00286  -0.00205   0.00053   1.95832
   A17        2.05954  -0.00729   0.00048  -0.01946  -0.01878   2.04076
   A18        2.11822  -0.00244  -0.00164   0.01320   0.01156   2.12978
   A19        2.10129  -0.00012   0.00493  -0.01319  -0.00826   2.09304
   A20        2.06366   0.00256  -0.00329  -0.00000  -0.00329   2.06036
   A21        2.12629   0.04353   0.00460   0.02849   0.03313   2.15943
   A22        2.18217   0.03560   0.00950  -0.00550   0.00418   2.18636
   A23        1.97460  -0.07925  -0.01426  -0.02308  -0.03754   1.93706
   A24        2.26237  -0.06691  -0.06290   0.11562   0.05259   2.31495
   A25        1.92269   0.03883   0.04243  -0.04306  -0.00060   1.92210
   A26        2.09800   0.02802   0.02051  -0.07310  -0.05286   2.04513
   A27        1.98204  -0.04986   0.10171  -0.17902  -0.07754   1.90449
   A28        2.90633  -0.03938   0.00432  -0.13149  -0.12670   2.77963
   A29        2.29677  -0.01598  -0.01166  -0.09797  -0.11029   2.18648
   A30        2.24311  -0.00938  -0.05392   0.12069   0.06629   2.30941
   A31        0.81570  -0.02788   0.00880  -0.03675  -0.02330   0.79240
   A32        2.23364   0.03098   0.00617  -0.04221  -0.03064   2.20300
   A33        0.90795  -0.09996  -0.00652  -0.04321  -0.04129   0.86666
   A34        3.14159  -0.06911  -0.00056  -0.08558  -0.07824   3.06335
   A35        2.71535  -0.00423   0.00295  -0.01177  -0.00897   2.70638
   A36        2.52607  -0.05768   0.11762  -0.20326  -0.08512   2.44095
   A37        3.12100   0.03882   0.02373   0.00461   0.00940   3.13039
    D1       -3.11597   0.00041  -0.00300   0.00889   0.00721  -3.10876
    D2        0.01346  -0.00007  -0.00162   0.00581   0.00286   0.01632
    D3        3.09206   0.00232   0.00531   0.00200   0.00941   3.10147
    D4       -0.03382   0.00278   0.00286   0.00619   0.01380  -0.02002
    D5       -3.07727  -0.00231  -0.00679  -0.00190  -0.00784  -3.08511
    D6        0.08037  -0.00182  -0.00886   0.00290  -0.00574   0.07463
    D7        0.04920  -0.00274  -0.00437  -0.00590  -0.01190   0.03730
    D8       -3.07635  -0.00225  -0.00644  -0.00110  -0.00980  -3.08614
    D9        0.01299  -0.00236   0.00044  -0.00803  -0.01682  -0.00383
   D10       -3.12861   0.00300   0.00101  -0.00140   0.02244  -3.10616
   D11       -3.13443   0.00138  -0.00083   0.00367   0.00464  -3.12979
   D12       -0.02342   0.00019   0.00166  -0.00128  -0.00476  -0.02818
   D13       -0.01365   0.00092   0.00184  -0.00179   0.00270  -0.01095
   D14        3.09736  -0.00027   0.00433  -0.00675  -0.00669   3.09066
   D15        3.12534  -0.00041   0.00185  -0.00313   0.00084   3.12618
   D16       -0.00705  -0.00006   0.00126  -0.00273   0.00031  -0.00675
   D17        0.01650   0.00084  -0.00076   0.00185   0.01071   0.02721
   D18       -3.11589   0.00119  -0.00135   0.00225   0.01017  -3.10572
   D19        0.00814   0.00166  -0.00116   0.00545   0.01328   0.02142
   D20        0.06928  -0.00075   0.31328   0.03404   0.34488   0.41416
   D21        3.13231   0.00201   0.00028   0.00293   0.00817   3.14048
   D22       -3.08973  -0.00040   0.31472   0.03152   0.33978  -2.74996
   D23       -3.13205   0.00025  -0.00194   0.00178   0.00255  -3.12950
   D24       -0.01239   0.00201   0.00061   0.00272   0.01119  -0.00120
   D25        0.00051  -0.00009  -0.00134   0.00135   0.00305   0.00356
   D26        3.12017   0.00167   0.00120   0.00230   0.01169   3.13186
   D27       -3.13754  -0.00021  -0.00111  -0.00004   0.00149  -3.13605
   D28        0.00980  -0.00081  -0.00244  -0.00048  -0.00026   0.00954
   D29        0.02705  -0.00215  -0.00380  -0.00125  -0.00771   0.01935
   D30       -3.10878  -0.00275  -0.00513  -0.00169  -0.00946  -3.11825
   D31       -0.00386  -0.00068   0.00090  -0.00374  -0.00684  -0.01070
   D32        3.11865   0.00103   0.00308  -0.00238   0.00097   3.11962
   D33       -3.13554   0.00440   0.00285   0.00356   0.00566  -3.12988
   D34       -0.01175  -0.00519  -0.00499  -0.00289  -0.00714  -0.01890
   D35        0.00041   0.00498   0.00416   0.00394   0.00737   0.00778
   D36        3.12420  -0.00462  -0.00368  -0.00251  -0.00544   3.11877
   D37        3.06010   0.02299   0.04010   0.00196   0.03988   3.09998
   D38       -0.06407   0.02621   0.03592   0.03999   0.07326   0.00919
   D39       -0.06564   0.03060   0.04665   0.00761   0.05079  -0.01485
   D40        3.09338   0.03382   0.04247   0.04564   0.08418  -3.10563
   D41        2.97097   0.03806   0.06834   0.05826   0.12354   3.09451
   D42       -0.18707   0.03019   0.06141   0.05275   0.11272  -0.07435
   D43       -0.03251   0.04975   0.03084   0.05659   0.07970   0.04718
   D44        3.09016   0.04621   0.03543   0.01579   0.04499   3.13515
   D45        3.08995   0.01381   0.01956   0.02391   0.05453  -3.13870
   D46        3.09520   0.02780   0.03063  -0.01380   0.04234   3.13754
   D47        3.13963  -0.00027   0.00051  -0.00159   0.00303  -3.14052
   D48        3.07849  -0.00115  -0.31429  -0.03426  -0.35291   2.72558
   D49        0.01078  -0.00229  -0.00135  -0.00018  -0.01442  -0.00364
         Item               Value     Threshold  Converged?
 Maximum Force            0.099956     0.000450     NO 
 RMS     Force            0.025589     0.000300     NO 
 Maximum Displacement     0.381431     0.001800     NO 
 RMS     Displacement     0.103078     0.001200     NO 
 Predicted change in Energy=-4.562913D-02
 GradGradGradGradGradGradGradGradGradGradGradGradGradGradGradGradGradGrad

                          Input orientation:                          
 ---------------------------------------------------------------------
 Center     Atomic      Atomic             Coordinates (Angstroms)
 Number     Number       Type             X           Y           Z
 ---------------------------------------------------------------------
      1          8           0        1.842334   -1.212797    1.205031
      2          7           0        3.563988   -1.518702    1.641914
      3          6           0        3.792180   -2.309615    2.572580
      4          6           0        4.459795   -0.794804    0.808710
      5          6           0        5.728369   -1.137171    1.157017
      6          6           0        7.135861   -0.976884    0.953057
      7          6           0        7.855057   -1.763650    1.827731
      8          6           0        9.268846   -1.921281    2.001674
      9          6           0        9.795087   -2.771373    2.937377
     10          6           0       11.308830   -2.960233    3.168066
     11          7           0       11.975567   -3.660772    4.000756
     12          7           0       11.765181   -4.594132    5.031604
     13          6           0       10.534351   -4.875226    5.275087
     14          7           0        9.362002   -4.368946    4.669905
     15          6           0        9.041608   -3.562279    3.840033
     16         16           0        4.943140   -3.137817    3.448533
     17          1           0        2.020352   -0.621543    0.477964
     18          1           0        4.024955   -0.116964    0.089111
     19          1           0        5.508620   -1.816111    1.966711
     20          1           0        7.592446   -0.316420    0.212878
     21          1           0        7.202262   -2.346053    2.496697
     22          1           0        9.963270   -1.348794    1.377526
     23          1           0       11.879918   -2.312464    2.484999
     24          1           0       10.190051   -5.564727    6.031131
 ---------------------------------------------------------------------
                    Distance matrix (angstroms):
                    1          2          3          4          5
     1  O    0.000000
     2  N    1.802370   0.000000
     3  C    2.622041   1.242479   0.000000
     4  C    2.680091   1.421522   2.419008   0.000000
     5  C    3.887067   2.250608   2.669695   1.359344   0.000000
     6  C    5.304768   3.677820   3.947053   2.686134   1.431197
     7  C    6.069928   4.302069   4.166515   3.674898   2.316275
     8  C    7.502644   5.730349   5.520019   5.081249   3.723338
     9  C    8.287126   6.486448   6.031683   6.074816   4.730591
    10  C    9.824540   8.024321   7.568219   7.560750   6.205595
    11  N   10.793102   8.994846   8.416242   8.653887   7.313199
    12  N   11.159703   9.391903   8.650698   9.253994   7.962795
    13  C   10.272775   8.547056   7.703427   8.573133   7.350443
    14  N    8.860702   7.135096   6.297821   7.191311   5.999003
    15  C    8.018282   6.245980   5.543655   6.151492   4.904821
    16  S    4.284157   2.790603   1.666710   3.562583   3.141689
    17  H    0.953885   2.131311   3.221238   2.467852   3.804784
    18  H    2.685137   2.142091   3.321072   1.079989   2.254522
    19  H    3.792861   1.993875   1.885945   1.866566   1.079283
    20  H    5.903528   4.440281   4.897249   3.224496   2.244953
    21  H    5.628632   3.827819   3.411121   3.574465   2.329913
    22  H    8.123906   6.406994   6.358749   5.560458   4.245915
    23  H   10.178441   8.396162   8.088213   7.757027   6.402062
    24  H   10.578984   8.918535   7.968067   9.102840   7.954045
                    6          7          8          9         10
     6  C    0.000000
     7  C    1.378876   0.000000
     8  C    2.557559   1.433144   0.000000
     9  C    3.772161   2.451640   1.369352   0.000000
    10  C    5.123828   3.893181   2.569324   1.542824   0.000000
    11  N    6.317791   5.029882   3.787941   2.583853   1.276192
    12  N    7.151898   5.793574   4.749347   3.404337   2.520051
    13  C    6.739937   5.361417   4.587214   3.230727   2.950688
    14  N    5.502431   4.139614   3.622043   2.396133   2.833749
    15  C    4.318654   2.948276   2.474687   1.417057   2.440142
    16  S    3.962960   3.604801   4.720708   4.892540   6.374340
    17  H    5.149797   6.096725   7.520085   8.433089   9.948967
    18  H    3.341198   4.517085   5.866162   6.960814   8.403510
    19  H    2.092775   2.351135   3.761859   4.497613   6.032803
    20  H    1.092038   2.184305   2.930134   4.278003   5.434555
    21  H    2.064427   1.101295   2.167083   2.664177   4.206169
    22  H    2.883181   2.195303   1.095229   2.117818   2.759221
    23  H    5.161076   4.114937   2.684087   2.182146   1.101056
    24  H    7.494213   6.129352   5.509977   4.186901   4.028921
                   11         12         13         14         15
    11  N    0.000000
    12  N    1.406439   0.000000
    13  C    2.275065   1.285784   0.000000
    14  N    2.789263   2.440656   1.413141   0.000000
    15  C    2.940007   3.146810   2.451834   1.200855   0.000000
    16  S    7.073433   7.153126   6.133231   4.746975   4.138947
    17  H   10.988780  11.466421  10.658067   9.247444   8.321627
    18  H    9.543153  10.216868   9.586848   8.218705   7.148876
    19  H    7.025775   7.500369   6.749927   5.354697   4.363536
    20  H    6.689129   7.676631   7.420477   6.278486   5.078575
    21  H    5.174468   5.683295   5.021851   3.671431   2.582044
    22  H    4.034342   5.208780   5.287045   4.508059   3.436992
    23  H    2.030911   3.421165   4.020310   3.916992   3.384399
    24  H    3.306892   2.102890   1.079609   1.992108   3.182708
                   16         17         18         19         20
    16  S    0.000000
    17  H    4.868121   0.000000
    18  H    4.610242   2.103387   0.000000
    19  H    2.064575   3.976351   2.934918   0.000000
    20  H    5.044657   5.586735   3.575206   3.109234   0.000000
    21  H    2.576143   5.822492   4.567340   1.852066   3.080176
    22  H    5.717637   8.026709   6.200081   4.517680   2.836019
    23  H    7.051843  10.202864   8.500644   6.411586   5.246822
    24  H    6.331649  11.046118  10.148603   7.244821   8.254959
                   21         22         23         24
    21  H    0.000000
    22  H    3.141693   0.000000
    23  H    4.677791   2.414269   0.000000
    24  H    5.637284   6.283436   5.099796   0.000000
 Stoichiometry    C10H8N4OS
 Framework group  C1[X(C10H8N4OS)]
 Deg. of freedom    66
 Full point group                 C1      NOp   1
 Largest Abelian subgroup         C1      NOp   1
 Largest concise Abelian subgroup C1      NOp   1
                         Standard orientation:                         
 ---------------------------------------------------------------------
 Center     Atomic      Atomic             Coordinates (Angstroms)
 Number     Number       Type             X           Y           Z
 ---------------------------------------------------------------------
      1          8           0        5.875440    0.523621   -0.049046
      2          7           0        4.096096    0.245530    0.022617
      3          6           0        3.356095    1.243166    0.052198
      4          6           0        3.774418   -1.139091    0.014043
      5          6           0        2.420263   -1.256524   -0.002945
      6          6           0        1.268481   -2.106027   -0.011084
      7          6           0        0.106489   -1.363685   -0.012920
      8          6           0       -1.267193   -1.772179   -0.007109
      9          6           0       -2.294200   -0.866481   -0.016716
     10          6           0       -3.785326   -1.261977    0.004067
     11          7           0       -4.861114   -0.576290    0.038411
     12          7           0       -5.281383    0.765830    0.025812
     13          6           0       -4.336854    1.636520   -0.028999
     14          7           0       -2.937612    1.441248   -0.059909
     15          6           0       -2.142731    0.542446   -0.011203
     16         16           0        1.793358    1.821875    0.022665
     17          1           0        6.125435   -0.396008   -0.090068
     18          1           0        4.598430   -1.836762    0.039247
     19          1           0        2.155136   -0.210750    0.027317
     20          1           0        1.292752   -3.197790   -0.007598
     21          1           0        0.304690   -0.280391   -0.006561
     22          1           0       -1.520257   -2.837646    0.009166
     23          1           0       -3.886223   -2.357915    0.036692
     24          1           0       -4.475765    2.707064   -0.042995
 ---------------------------------------------------------------------
 Rotational constants (GHZ):           1.2081648           0.1826583           0.1586905
 Standard basis: 6-31G(2df,p) (6D, 7F)
 There are   540 symmetry adapted cartesian basis functions of A   symmetry.
 There are   492 symmetry adapted basis functions of A   symmetry.
   492 basis functions,   784 primitive gaussians,   540 cartesian basis functions
    60 alpha electrons       60 beta electrons
       nuclear repulsion energy      1017.7145203867 Hartrees.
 NAtoms=   24 NActive=   24 NUniq=   24 SFac= 1.00D+00 NAtFMM=   60 NAOKFM=F Big=F
 Integral buffers will be    131072 words long.
 Raffenetti 2 integral format.
 Two-electron integral symmetry is turned on.
 One-electron integrals computed using PRISM.
 PrsmSu:  requested number of processors reduced to:  12 ShMem   1 Linda.
 NBasis=   492 RedAO= T EigKep=  1.76D-04  NBF=   492
 NBsUse=   492 1.00D-06 EigRej= -1.00D+00 NBFU=   492
 Initial guess from the checkpoint file:  "ONdc1cccccc2cnncnc-2s1.chk"
 B after Tr=    -0.000000   -0.000000   -0.000000
         Rot=    0.999999    0.000176   -0.000052    0.001481 Ang=   0.17 deg.
 ExpMin= 1.17D-01 ExpMax= 2.19D+04 ExpMxC= 3.30D+03 IAcc=2 IRadAn=         4 AccDes= 0.00D+00
 Harris functional with IExCor=  402 and IRadAn=       4 diagonalized for initial guess.
 HarFok:  IExCor=  402 AccDes= 0.00D+00 IRadAn=         4 IDoV= 1 UseB2=F ITyADJ=14
 ICtDFT=  3500011 ScaDFX=  1.000000  1.000000  1.000000  1.000000
 FoFCou: FMM=F IPFlag=           0 FMFlag=      100000 FMFlg1=           0
         NFxFlg=           0 DoJE=T BraDBF=F KetDBF=T FulRan=T
         wScrn=  0.000000 ICntrl=       500 IOpCl=  0 I1Cent=   200000004 NGrid=           0
         NMat0=    1 NMatS0=      1 NMatT0=    0 NMatD0=    1 NMtDS0=    0 NMtDT0=    0
 Petite list used in FoFCou.
 Requested convergence on RMS density matrix=1.00D-08 within 128 cycles.
 Requested convergence on MAX density matrix=1.00D-06.
 Requested convergence on             energy=1.00D-06.
 No special actions if energy rises.
 Integral accuracy reduced to 1.0D-05 until final iterations.
slurmstepd: error: *** JOB 27446863 ON lewis4-r630-hpc4-node295 CANCELLED AT 2023-05-16T08:17:55 DUE TO TIME LIMIT ***
