### Starting Gaussian ###
 Entering Gaussian System, Link 0=g16
 Initial command:
 /cluster/software/gaussian/gaussian-16-A.03/avx2/g16/l1.exe "/local/scratch/cz9n3/Gau-17508.inp" -scrdir="/local/scratch/cz9n3/"
 Entering Link 1 = /cluster/software/gaussian/gaussian-16-A.03/avx2/g16/l1.exe PID=     17509.
  
 Copyright (c) 1988,1990,1992,1993,1995,1998,2003,2009,2016,
            Gaussian, Inc.  All Rights Reserved.
  
 This is part of the Gaussian(R) 16 program.  It is based on
 the Gaussian(R) 09 system (copyright 2009, Gaussian, Inc.),
 the Gaussian(R) 03 system (copyright 2003, Gaussian, Inc.),
 the Gaussian(R) 98 system (copyright 1998, Gaussian, Inc.),
 the Gaussian(R) 94 system (copyright 1995, Gaussian, Inc.),
 the Gaussian 92(TM) system (copyright 1992, Gaussian, Inc.),
 the Gaussian 90(TM) system (copyright 1990, Gaussian, Inc.),
 the Gaussian 88(TM) system (copyright 1988, Gaussian, Inc.),
 the Gaussian 86(TM) system (copyright 1986, Carnegie Mellon
 University), and the Gaussian 82(TM) system (copyright 1983,
 Carnegie Mellon University). Gaussian is a federally registered
 trademark of Gaussian, Inc.
  
 This software contains proprietary and confidential information,
 including trade secrets, belonging to Gaussian, Inc.
  
 This software is provided under written license and may be
 used, copied, transmitted, or stored only in accord with that
 written license.
  
 The following legend is applicable only to US Government
 contracts under FAR:
  
                    RESTRICTED RIGHTS LEGEND
  
 Use, reproduction and disclosure by the US Government is
 subject to restrictions as set forth in subparagraphs (a)
 and (c) of the Commercial Computer Software - Restricted
 Rights clause in FAR 52.227-19.
  
 Gaussian, Inc.
 340 Quinnipiac St., Bldg. 40, Wallingford CT 06492
  
  
 ---------------------------------------------------------------
 Warning -- This program may not be used in any manner that
 competes with the business of Gaussian, Inc. or will provide
 assistance to any competitor of Gaussian, Inc.  The licensee
 of this program is prohibited from giving any competitor of
 Gaussian, Inc. access to this program.  By using this program,
 the user acknowledges that Gaussian, Inc. is engaged in the
 business of creating and licensing software in the field of
 computational chemistry and represents and warrants to the
 licensee that it is not a competitor of Gaussian, Inc. and that
 it will not use this program in any manner prohibited above.
 ---------------------------------------------------------------
  

 Cite this work as:
 Gaussian 16, Revision A.03,
 M. J. Frisch, G. W. Trucks, H. B. Schlegel, G. E. Scuseria, 
 M. A. Robb, J. R. Cheeseman, G. Scalmani, V. Barone, 
 G. A. Petersson, H. Nakatsuji, X. Li, M. Caricato, A. V. Marenich, 
 J. Bloino, B. G. Janesko, R. Gomperts, B. Mennucci, H. P. Hratchian, 
 J. V. Ortiz, A. F. Izmaylov, J. L. Sonnenberg, D. Williams-Young, 
 F. Ding, F. Lipparini, F. Egidi, J. Goings, B. Peng, A. Petrone, 
 T. Henderson, D. Ranasinghe, V. G. Zakrzewski, J. Gao, N. Rega, 
 G. Zheng, W. Liang, M. Hada, M. Ehara, K. Toyota, R. Fukuda, 
 J. Hasegawa, M. Ishida, T. Nakajima, Y. Honda, O. Kitao, H. Nakai, 
 T. Vreven, K. Throssell, J. A. Montgomery, Jr., J. E. Peralta, 
 F. Ogliaro, M. J. Bearpark, J. J. Heyd, E. N. Brothers, K. N. Kudin, 
 V. N. Staroverov, T. A. Keith, R. Kobayashi, J. Normand, 
 K. Raghavachari, A. P. Rendell, J. C. Burant, S. S. Iyengar, 
 J. Tomasi, M. Cossi, J. M. Millam, M. Klene, C. Adamo, R. Cammi, 
 J. W. Ochterski, R. L. Martin, K. Morokuma, O. Farkas, 
 J. B. Foresman, and D. J. Fox, Gaussian, Inc., Wallingford CT, 2016.
 
 ******************************************
 Gaussian 16:  ES64L-G16RevA.03 25-Dec-2016
                19-May-2023 
 ******************************************
 %chk=OOC1dCCdCCdCNdCCdNCdC2CdCN1N2.chk
 %NProcShared=20
 Will use up to   20 processors via shared memory.
 -----------------------------
 # opt freq b3lyp/6-31g(2df,p)
 -----------------------------
 1/18=20,19=15,26=3,38=1/1,3;
 2/9=110,12=2,17=6,18=5,40=1/2;
 3/5=1,6=6,7=104,11=2,25=1,30=1,71=1,74=-5/1,2,3;
 4//1;
 5/5=2,38=5/2;
 6/7=2,8=2,9=2,10=2,28=1/1;
 7//1,2,3,16;
 1/18=20,19=15,26=3/3(2);
 2/9=110/2;
 99//99;
 2/9=110/2;
 3/5=1,6=6,7=104,11=2,25=1,30=1,71=1,74=-5/1,2,3;
 4/5=5,16=3,69=1/1;
 5/5=2,38=5/2;
 7//1,2,3,16;
 1/18=20,19=15,26=3/3(-5);
 2/9=110/2;
 6/7=2,8=2,9=2,10=2,19=2,28=1/1;
 99/9=1/99;
 -------------------
 Title Card Required
 -------------------
 Symbolic Z-matrix:
 Charge =  0 Multiplicity = 1
 O                     4.44485  -0.40714  -1.25137 
 O                     6.69874  -0.69822  -2.37196 
 C                     8.93922  -1.4808   -3.28648 
 C                     7.02767  -1.23901  -2.36275 
 C                     5.42311  -2.16705  -2.11343 
 C                     6.84632  -2.37435  -1.72597 
 C                     7.49499  -3.15678  -2.98702 
 C                     8.91015  -3.27869  -2.85854 
 N                     9.29684  -3.39912  -4.13892 
 C                     10.40473  -3.83026  -3.6462 
 C                     11.31779  -4.37538  -4.86705 
 N                     12.44107  -4.81604  -4.38723 
 C                     13.15985  -5.14983  -5.64621 
 C                     14.52761  -4.70236  -5.67668 
 C                     14.98407  -3.83925  -4.79361 
 C                     13.34163  -2.88173  -4.43942 
 N                     11.04827  -2.31514  -4.23266 
 N                     12.88101  -3.50333  -5.49901 
 H                     2.93763  -0.03241  -0.47754 
 H                     5.88355  -0.62361  -1.09465 
 H                     4.60631  -2.24771  -2.8132 
 H                     7.49865  -1.10818  -0.92142 
 H                     6.76272  -3.06382  -3.80183 
 H                     9.53149  -2.13968  -2.02977 
 H                     11.1814  -2.81177  -2.79718 
 H                     10.94329  -4.71261  -5.76978 
 H                     12.99246  -5.57261  -6.66669 
 H                     15.57726  -3.81201  -3.85993 
 H                     15.0799  -3.083    -4.93264 
 H                     14.09834  -4.52921  -6.30157 
 
 Add virtual bond connecting atoms H20        and O1         Dist= 2.77D+00.
 Add virtual bond connecting atoms H20        and O2         Dist= 2.87D+00.
 Add virtual bond connecting atoms H22        and C4         Dist= 2.88D+00.
 Add virtual bond connecting atoms H22        and C6         Dist= 3.09D+00.
 Add virtual bond connecting atoms H25        and N17        Dist= 2.88D+00.
 Add virtual bond connecting atoms H25        and C10        Dist= 2.90D+00.
 Add virtual bond connecting atoms H24        and C3         Dist= 2.91D+00.
 Add virtual bond connecting atoms H24        and C8         Dist= 2.91D+00.
 Add virtual bond connecting atoms H19        and O1         Dist= 3.28D+00.

 GradGradGradGradGradGradGradGradGradGradGradGradGradGradGradGradGradGrad
 Berny optimization.
 Initialization pass.
                           ----------------------------
                           !    Initial Parameters    !
                           ! (Angstroms and Degrees)  !
 --------------------------                            --------------------------
 ! Name  Definition              Value          Derivative Info.                !
 --------------------------------------------------------------------------------
 ! R1    R(1,19)                 1.7352         estimate D2E/DX2                !
 ! R2    R(1,20)                 1.4633         estimate D2E/DX2                !
 ! R3    R(2,4)                  0.633          estimate D2E/DX2                !
 ! R4    R(2,20)                 1.5171         estimate D2E/DX2                !
 ! R5    R(3,24)                 1.5376         estimate D2E/DX2                !
 ! R6    R(4,6)                  1.3143         estimate D2E/DX2                !
 ! R7    R(4,22)                 1.522          estimate D2E/DX2                !
 ! R8    R(5,6)                  1.4895         estimate D2E/DX2                !
 ! R9    R(5,21)                 1.0786         estimate D2E/DX2                !
 ! R10   R(6,7)                  1.6196         estimate D2E/DX2                !
 ! R11   R(6,22)                 1.6359         estimate D2E/DX2                !
 ! R12   R(7,8)                  1.4262         estimate D2E/DX2                !
 ! R13   R(7,23)                 1.0994         estimate D2E/DX2                !
 ! R14   R(8,9)                  1.3429         estimate D2E/DX2                !
 ! R15   R(8,10)                 1.7772         estimate D2E/DX2                !
 ! R16   R(8,24)                 1.5396         estimate D2E/DX2                !
 ! R17   R(9,10)                 1.2869         estimate D2E/DX2                !
 ! R18   R(10,11)                1.619          estimate D2E/DX2                !
 ! R19   R(10,25)                1.5367         estimate D2E/DX2                !
 ! R20   R(11,12)                1.2985         estimate D2E/DX2                !
 ! R21   R(11,26)                1.0339         estimate D2E/DX2                !
 ! R22   R(12,13)                1.4876         estimate D2E/DX2                !
 ! R23   R(13,14)                1.4394         estimate D2E/DX2                !
 ! R24   R(13,18)                1.6764         estimate D2E/DX2                !
 ! R25   R(13,27)                1.1172         estimate D2E/DX2                !
 ! R26   R(14,15)                1.3165         estimate D2E/DX2                !
 ! R27   R(14,30)                0.7777         estimate D2E/DX2                !
 ! R28   R(15,28)                1.1065         estimate D2E/DX2                !
 ! R29   R(15,29)                0.7749         estimate D2E/DX2                !
 ! R30   R(16,18)                1.312          estimate D2E/DX2                !
 ! R31   R(17,25)                1.5248         estimate D2E/DX2                !
 ! A1    A(19,1,20)            146.9491         estimate D2E/DX2                !
 ! A2    A(4,2,20)             107.9969         estimate D2E/DX2                !
 ! A3    A(2,4,6)              132.3233         estimate D2E/DX2                !
 ! A4    A(2,4,22)              95.8047         estimate D2E/DX2                !
 ! A5    A(6,5,21)             151.8774         estimate D2E/DX2                !
 ! A6    A(4,6,5)               83.4301         estimate D2E/DX2                !
 ! A7    A(4,6,7)               89.1299         estimate D2E/DX2                !
 ! A8    A(5,6,7)              104.3223         estimate D2E/DX2                !
 ! A9    A(5,6,22)             113.6554         estimate D2E/DX2                !
 ! A10   A(7,6,22)             126.6655         estimate D2E/DX2                !
 ! A11   A(6,7,8)              111.6266         estimate D2E/DX2                !
 ! A12   A(6,7,23)             105.6306         estimate D2E/DX2                !
 ! A13   A(8,7,23)             137.2964         estimate D2E/DX2                !
 ! A14   A(7,8,9)              101.9756         estimate D2E/DX2                !
 ! A15   A(7,8,10)             145.1922         estimate D2E/DX2                !
 ! A16   A(7,8,24)             112.6879         estimate D2E/DX2                !
 ! A17   A(9,8,24)             117.6057         estimate D2E/DX2                !
 ! A18   A(10,8,24)             97.3998         estimate D2E/DX2                !
 ! A19   A(8,10,11)            155.9186         estimate D2E/DX2                !
 ! A20   A(8,10,25)             88.5373         estimate D2E/DX2                !
 ! A21   A(9,10,11)            108.035          estimate D2E/DX2                !
 ! A22   A(9,10,25)            115.1261         estimate D2E/DX2                !
 ! A23   A(11,10,25)           110.7776         estimate D2E/DX2                !
 ! A24   A(10,11,12)           108.8727         estimate D2E/DX2                !
 ! A25   A(10,11,26)           124.3293         estimate D2E/DX2                !
 ! A26   A(12,11,26)           121.688          estimate D2E/DX2                !
 ! A27   A(11,12,13)           100.4506         estimate D2E/DX2                !
 ! A28   A(12,13,14)           114.0338         estimate D2E/DX2                !
 ! A29   A(12,13,18)            67.9729         estimate D2E/DX2                !
 ! A30   A(12,13,27)           141.7705         estimate D2E/DX2                !
 ! A31   A(14,13,18)            81.6389         estimate D2E/DX2                !
 ! A32   A(14,13,27)           103.9265         estimate D2E/DX2                !
 ! A33   A(18,13,27)           115.2746         estimate D2E/DX2                !
 ! A34   A(13,14,15)           121.2704         estimate D2E/DX2                !
 ! A35   A(13,14,30)            64.0045         estimate D2E/DX2                !
 ! A36   A(15,14,30)           125.7627         estimate D2E/DX2                !
 ! A37   A(14,15,28)           140.1766         estimate D2E/DX2                !
 ! A38   A(14,15,29)           124.2212         estimate D2E/DX2                !
 ! A39   A(28,15,29)            93.5014         estimate D2E/DX2                !
 ! A40   A(13,18,16)           118.5451         estimate D2E/DX2                !
 ! A41   A(1,20,2)             116.4488         estimate D2E/DX2                !
 ! A42   A(3,24,8)              73.8349         estimate D2E/DX2                !
 ! A43   A(10,25,17)            69.6105         estimate D2E/DX2                !
 ! D1    D(19,1,20,2)         -169.1021         estimate D2E/DX2                !
 ! D2    D(20,2,4,6)            22.9317         estimate D2E/DX2                !
 ! D3    D(20,2,4,22)          -45.2167         estimate D2E/DX2                !
 ! D4    D(4,2,20,1)          -126.0561         estimate D2E/DX2                !
 ! D5    D(2,4,6,5)             42.4318         estimate D2E/DX2                !
 ! D6    D(2,4,6,7)            146.956          estimate D2E/DX2                !
 ! D7    D(21,5,6,4)            84.5668         estimate D2E/DX2                !
 ! D8    D(21,5,6,7)            -2.8437         estimate D2E/DX2                !
 ! D9    D(21,5,6,22)          138.8463         estimate D2E/DX2                !
 ! D10   D(4,6,7,8)             89.1474         estimate D2E/DX2                !
 ! D11   D(4,6,7,23)           -69.5699         estimate D2E/DX2                !
 ! D12   D(5,6,7,8)            172.1412         estimate D2E/DX2                !
 ! D13   D(5,6,7,23)            13.424          estimate D2E/DX2                !
 ! D14   D(22,6,7,8)            37.205          estimate D2E/DX2                !
 ! D15   D(22,6,7,23)         -121.5123         estimate D2E/DX2                !
 ! D16   D(6,7,8,9)           -155.0522         estimate D2E/DX2                !
 ! D17   D(6,7,8,10)          -175.799          estimate D2E/DX2                !
 ! D18   D(6,7,8,24)           -28.0319         estimate D2E/DX2                !
 ! D19   D(23,7,8,9)            -6.0763         estimate D2E/DX2                !
 ! D20   D(23,7,8,10)          -26.8231         estimate D2E/DX2                !
 ! D21   D(23,7,8,24)          120.944          estimate D2E/DX2                !
 ! D22   D(7,8,10,11)           10.2804         estimate D2E/DX2                !
 ! D23   D(7,8,10,25)          154.6255         estimate D2E/DX2                !
 ! D24   D(24,8,10,11)        -139.9691         estimate D2E/DX2                !
 ! D25   D(24,8,10,25)           4.3759         estimate D2E/DX2                !
 ! D26   D(7,8,24,3)           -64.2428         estimate D2E/DX2                !
 ! D27   D(9,8,24,3)            53.9474         estimate D2E/DX2                !
 ! D28   D(10,8,24,3)           97.8779         estimate D2E/DX2                !
 ! D29   D(8,10,11,12)        -165.4539         estimate D2E/DX2                !
 ! D30   D(8,10,11,26)         -10.5387         estimate D2E/DX2                !
 ! D31   D(9,10,11,12)        -179.9479         estimate D2E/DX2                !
 ! D32   D(9,10,11,26)         -25.0327         estimate D2E/DX2                !
 ! D33   D(25,10,11,12)         53.0997         estimate D2E/DX2                !
 ! D34   D(25,10,11,26)       -151.9851         estimate D2E/DX2                !
 ! D35   D(8,10,25,17)        -104.4511         estimate D2E/DX2                !
 ! D36   D(9,10,25,17)         -62.1232         estimate D2E/DX2                !
 ! D37   D(11,10,25,17)         60.8116         estimate D2E/DX2                !
 ! D38   D(10,11,12,13)       -175.3673         estimate D2E/DX2                !
 ! D39   D(26,11,12,13)         28.9286         estimate D2E/DX2                !
 ! D40   D(11,12,13,14)        134.9726         estimate D2E/DX2                !
 ! D41   D(11,12,13,18)         65.5925         estimate D2E/DX2                !
 ! D42   D(11,12,13,27)        -37.7463         estimate D2E/DX2                !
 ! D43   D(12,13,14,15)        -13.6247         estimate D2E/DX2                !
 ! D44   D(12,13,14,30)       -131.308          estimate D2E/DX2                !
 ! D45   D(18,13,14,15)         47.6508         estimate D2E/DX2                !
 ! D46   D(18,13,14,30)        -70.0325         estimate D2E/DX2                !
 ! D47   D(27,13,14,15)        161.7406         estimate D2E/DX2                !
 ! D48   D(27,13,14,30)         44.0573         estimate D2E/DX2                !
 ! D49   D(12,13,18,16)         57.2151         estimate D2E/DX2                !
 ! D50   D(14,13,18,16)        -63.0185         estimate D2E/DX2                !
 ! D51   D(27,13,18,16)       -164.5332         estimate D2E/DX2                !
 ! D52   D(13,14,15,28)        100.5825         estimate D2E/DX2                !
 ! D53   D(13,14,15,29)       -100.8294         estimate D2E/DX2                !
 ! D54   D(30,14,15,28)        179.3638         estimate D2E/DX2                !
 ! D55   D(30,14,15,29)        -22.0481         estimate D2E/DX2                !
 --------------------------------------------------------------------------------
 Trust Radius=3.00D-01 FncErr=1.00D-07 GrdErr=1.00D-06 EigMax=2.50D+02 EigMin=1.00D-04
 Number of steps in this run=    139 maximum allowed number of steps=    180.
 GradGradGradGradGradGradGradGradGradGradGradGradGradGradGradGradGradGrad

                          Input orientation:                          
 ---------------------------------------------------------------------
 Center     Atomic      Atomic             Coordinates (Angstroms)
 Number     Number       Type             X           Y           Z
 ---------------------------------------------------------------------
      1          8           0        4.444850   -0.407140   -1.251370
      2          8           0        6.698740   -0.698220   -2.371960
      3          6           0        8.939220   -1.480800   -3.286480
      4          6           0        7.027670   -1.239010   -2.362750
      5          6           0        5.423110   -2.167050   -2.113430
      6          6           0        6.846320   -2.374350   -1.725970
      7          6           0        7.494990   -3.156780   -2.987020
      8          6           0        8.910150   -3.278690   -2.858540
      9          7           0        9.296840   -3.399120   -4.138920
     10          6           0       10.404730   -3.830260   -3.646200
     11          6           0       11.317790   -4.375380   -4.867050
     12          7           0       12.441070   -4.816040   -4.387230
     13          6           0       13.159850   -5.149830   -5.646210
     14          6           0       14.527610   -4.702360   -5.676680
     15          6           0       14.984070   -3.839250   -4.793610
     16          6           0       13.341630   -2.881730   -4.439420
     17          7           0       11.048270   -2.315140   -4.232660
     18          7           0       12.881010   -3.503330   -5.499010
     19          1           0        2.937630   -0.032410   -0.477540
     20          1           0        5.883550   -0.623610   -1.094650
     21          1           0        4.606310   -2.247710   -2.813200
     22          1           0        7.498650   -1.108180   -0.921420
     23          1           0        6.762720   -3.063820   -3.801830
     24          1           0        9.531490   -2.139680   -2.029770
     25          1           0       11.181400   -2.811770   -2.797180
     26          1           0       10.943290   -4.712610   -5.769780
     27          1           0       12.992460   -5.572610   -6.666690
     28          1           0       15.577260   -3.812010   -3.859930
     29          1           0       15.079900   -3.083000   -4.932640
     30          1           0       14.098340   -4.529210   -6.301570
 ---------------------------------------------------------------------
                    Distance matrix (angstroms):
                    1          2          3          4          5
     1  O    0.000000
     2  O    2.533865   0.000000
     3  C    5.049137   2.543330   0.000000
     4  C    2.932257   0.633035   2.136765   0.000000
     5  C    2.190302   1.962532   3.769617   1.870303   0.000000
     6  C    3.140417   1.802358   2.759321   1.314296   1.489505
     7  C    4.458291   2.656469   2.232574   2.070252   2.456707
     8  C    5.546864   3.433063   1.848347   2.819545   3.735021
     9  N    6.389968   4.143324   2.129436   3.601387   4.541629
    10  C    7.278264   5.016744   2.792325   4.445937   5.471032
    11  C    8.721088   6.409571   4.066250   5.874816   6.870691
    12  N    9.654613   7.347932   4.959680   6.796952   7.838308
    13  C   10.851680   8.501970   6.069911   7.979928   9.013027
    14  C   11.819236   9.393908   6.879070   8.900900  10.100320
    15  C   11.636237   9.185704   6.661377   8.716343  10.069338
    16  C    9.769337   7.291783   4.761627   6.846691   8.283958
    17  N    7.492243   4.999505   2.457534   4.562877   6.012944
    18  N    9.939700   7.474460   4.952133   7.016043   8.298679
    19  H    1.735208   4.263576   6.782850   4.662438   3.662026
    20  H    1.463311   1.517110   3.856943   1.815435   1.905813
    21  H    2.419314   2.640810   4.425636   2.661459   1.078585
    22  H    3.150558   1.706455   2.794208   1.521963   2.617243
    23  H    4.351473   2.764902   2.740199   2.339034   2.334405
    24  H    5.429688   3.196775   1.537604   2.681641   4.109323
    25  H    7.317983   4.974148   2.652973   4.462710   5.834474
    26  H    9.010151   6.758455   4.541770   6.245465   7.093741
    27  H   11.360872   9.045181   6.678135   8.537137   9.467052
    28  H   11.930142   9.525642   7.058821   9.053031  10.433739
    29  H   11.567898   9.082296   6.556282   8.651187  10.101510
    30  H   11.648427   9.212622   6.708211   8.736938   9.918666
                    6          7          8          9         10
     6  C    0.000000
     7  C    1.619635   0.000000
     8  C    2.521892   1.426200   0.000000
     9  N    3.588527   2.152270   1.342909   0.000000
    10  C    4.297585   3.058542   1.777191   1.286886   0.000000
    11  C    5.819325   4.430948   3.321682   2.359554   1.619046
    12  N    6.659233   5.401614   4.143396   3.457673   2.380666
    13  C    7.932984   6.567662   5.415923   4.501084   3.651300
    14  C    8.945946   7.686406   6.443959   5.605720   4.677772
    15  C    8.819259   7.734071   6.399315   5.741683   4.720909
    16  C    7.057570   6.030615   4.721734   4.088804   3.186579
    17  N    4.893198   3.858209   2.718123   2.061870   1.747475
    18  N    7.206102   5.953100   4.773916   3.834968   3.109944
    19  H    4.724523   6.068666   7.202672   8.073413   8.956654
    20  H    2.095371   3.548909   4.395573   5.349914   6.101973
    21  H    2.493141   3.033330   4.425835   5.008428   6.067951
    22  H    1.635855   2.909206   3.233555   4.339839   4.824878
    23  H    2.188962   1.099444   2.355296   2.578337   3.725035
    24  H    2.712472   2.469444   1.539567   2.467745   2.496689
    25  H    4.486841   3.707383   2.319559   2.386800   1.536676
    26  H    6.213294   4.696289   3.829504   2.663786   2.361817
    27  H    8.509678   7.042612   6.035671   4.977076   4.342291
    28  H    9.102196   8.155635   6.762956   6.300158   5.176976
    29  H    8.864353   7.830820   6.511989   5.845828   4.906174
    30  H    8.841455   7.514921   6.351029   5.385960   4.602421
                   11         12         13         14         15
    11  C    0.000000
    12  N    1.298525   0.000000
    13  C    2.144772   1.487646   0.000000
    14  C    3.326464   2.455454   1.439418   0.000000
    15  C    3.706000   2.754290   2.402566   1.316483   0.000000
    16  C    2.551428   2.134312   2.575590   2.500411   1.933883
    17  N    2.172483   2.866755   3.806883   4.459800   4.257710
    18  N    1.898289   1.775615   1.676419   2.044635   2.243500
    19  H   10.409432  11.335086  12.545793  13.533925  13.350551
    20  H    7.605113   8.450954   9.702984  10.599574  10.336446
    21  H    7.334115   8.393888   9.466324  10.614001  10.684237
    22  H    6.389712   7.084319   8.408791   9.216122   8.859126
    23  H    4.858348   5.971317   6.976851   8.154348   8.317182
    24  H    4.029811   4.602844   5.941771   6.695409   6.344918
    25  H    2.597661   2.851688   4.183033   4.802392   4.416078
    26  H    1.033874   2.040953   2.262646   3.585544   4.247772
    27  H    2.734334   2.464217   1.117203   2.023398   3.237202
    28  H    4.413022   3.334938   3.290050   2.279269   1.106515
    29  H    3.978444   3.203798   2.909907   1.865730   0.774872
    30  H    3.132566   2.548237   1.302087   0.777651   1.880028
                   16         17         18         19         20
    16  C    0.000000
    17  N    2.371344   0.000000
    18  N    1.311979   2.524752   0.000000
    19  H   11.491664   9.224655  11.667616   0.000000
    20  H    8.479950   6.275565   8.755320   3.067375   0.000000
    21  H    8.907996   6.596837   8.789813   3.625928   2.687463
    22  H    7.047143   5.002086   7.460621   4.707145   1.695100
    23  H    6.612241   4.371736   6.364516   5.905223   3.749185
    24  H    4.568831   2.680323   5.011432   7.094293   4.059604
    25  H    2.714487   1.524785   3.266009   9.003628   5.979454
    26  H    3.297577   2.849846   2.300094  10.677203   8.011100
    27  H    3.510482   4.507271   2.378617  13.042201  10.299361
    28  H    2.489834   4.784485   3.170431  13.619331  10.572638
    29  H    1.818064   4.163367   2.309236  13.288669  10.264094
    30  H    2.598923   4.299468   1.782814  13.367946  10.480864
                   21         22         23         24         25
    21  H    0.000000
    22  H    3.639092   0.000000
    23  H    2.508691   3.558494   0.000000
    24  H    4.988269   2.534733   3.414721   0.000000
    25  H    6.599260   4.470273   4.538456   1.939801   0.000000
    26  H    7.414473   6.954427   4.905966   4.754032   3.536416
    27  H    9.809784   9.117083   7.301446   6.727878   5.086775
    28  H   11.131236   9.011630   8.846427   6.534333   4.631793
    29  H   10.718480   8.801429   8.393723   6.332563   4.453320
    30  H   10.366899   9.176348   7.887166   6.694344   4.872257
                   26         27         28         29         30
    26  H    0.000000
    27  H    2.396486   0.000000
    28  H    5.092375   4.202238   0.000000
    29  H    4.524155   3.682729   1.389075   0.000000
    30  H    3.204805   1.563639   2.943329   2.220124   0.000000
 Stoichiometry    C12H12N4O2
 Framework group  C1[X(C12H12N4O2)]
 Deg. of freedom    84
 Full point group                 C1      NOp   1
 Largest Abelian subgroup         C1      NOp   1
 Largest concise Abelian subgroup C1      NOp   1
                         Standard orientation:                         
 ---------------------------------------------------------------------
 Center     Atomic      Atomic             Coordinates (Angstroms)
 Number     Number       Type             X           Y           Z
 ---------------------------------------------------------------------
      1          8           0       -6.391929    0.438121   -0.077693
      2          8           0       -3.922809    0.870965   -0.447236
      3          6           0       -1.380089    0.926664   -0.447237
      4          6           0       -3.462781    0.548285   -0.155714
      5          6           0       -4.649320   -0.882453    0.052000
      6          6           0       -3.482577   -0.346323    0.806917
      7          6           0       -2.200840   -1.068000    0.129015
      8          6           0       -0.974399   -0.528533    0.617752
      9          7           0       -0.130235   -0.796495   -0.391697
     10          6           0        0.796328   -0.562804    0.470245
     11          6           0        2.216310   -0.954807   -0.201538
     12          7           0        3.164111   -0.726025    0.656074
     13          6           0        4.359634   -1.029269   -0.175706
     14          6           0        5.416811   -0.059470   -0.058276
     15          6           0        5.210110    1.111779    0.506152
     16          6           0        3.336232    1.320799    0.076271
     17          7           0        1.076544    0.872661   -0.486095
     18          7           0        3.524894    0.310766   -0.739529
     19          1           0       -8.110849    0.310574    0.122297
     20          1           0       -5.124393    0.913367    0.477978
     21          1           0       -5.079304   -1.486044   -0.731670
     22          1           0       -3.621538    1.237492    1.191936
     23          1           0       -2.571837   -1.514805   -0.804528
     24          1           0       -1.107679    0.938292    1.065999
     25          1           0        0.830420    0.872262    1.018694
     26          1           0        2.329832   -1.641389   -0.966139
     27          1           0        4.724653   -1.730700   -0.964945
     28          1           0        5.377179    1.633057    1.467781
     29          1           0        5.097368    1.770604    0.114151
     30          1           0        5.214350   -0.256949   -0.782674
 ---------------------------------------------------------------------
 Rotational constants (GHZ):           2.2665324           0.1539987           0.1486910
 Standard basis: 6-31G(2df,p) (6D, 7F)
 There are   618 symmetry adapted cartesian basis functions of A   symmetry.
 There are   564 symmetry adapted basis functions of A   symmetry.
   564 basis functions,   876 primitive gaussians,   618 cartesian basis functions
    64 alpha electrons       64 beta electrons
       nuclear repulsion energy      1247.4810253448 Hartrees.
 NAtoms=   30 NActive=   30 NUniq=   30 SFac= 1.00D+00 NAtFMM=   60 NAOKFM=F Big=F
 Integral buffers will be    131072 words long.
 Raffenetti 2 integral format.
 Two-electron integral symmetry is turned on.
 One-electron integrals computed using PRISM.
 PrsmSu:  requested number of processors reduced to:  12 ShMem   1 Linda.
 NBasis=   564 RedAO= T EigKep=  1.88D-04  NBF=   564
 NBsUse=   564 1.00D-06 EigRej= -1.00D+00 NBFU=   564
 ExpMin= 1.61D-01 ExpMax= 5.48D+03 ExpMxC= 8.25D+02 IAcc=3 IRadAn=         5 AccDes= 0.00D+00
 Harris functional with IExCor=  402 and IRadAn=       5 diagonalized for initial guess.
 HarFok:  IExCor=  402 AccDes= 0.00D+00 IRadAn=         5 IDoV= 1 UseB2=F ITyADJ=14
 ICtDFT=  3500011 ScaDFX=  1.000000  1.000000  1.000000  1.000000
 FoFCou: FMM=F IPFlag=           0 FMFlag=      100000 FMFlg1=           0
         NFxFlg=           0 DoJE=T BraDBF=F KetDBF=T FulRan=T
         wScrn=  0.000000 ICntrl=       500 IOpCl=  0 I1Cent=   200000004 NGrid=           0
         NMat0=    1 NMatS0=      1 NMatT0=    0 NMatD0=    1 NMtDS0=    0 NMtDT0=    0
 Petite list used in FoFCou.
 Requested convergence on RMS density matrix=1.00D-08 within 128 cycles.
 Requested convergence on MAX density matrix=1.00D-06.
 Requested convergence on             energy=1.00D-06.
 No special actions if energy rises.
 Integral accuracy reduced to 1.0D-05 until final iterations.
 Rare condition: small coef for last iteration:  0.000D+00
 EnCoef did   100 forward-backward iterations
 EnCoef did   100 forward-backward iterations
 EnCoef did   100 forward-backward iterations
 EnCoef did   100 forward-backward iterations
 EnCoef did     6 forward-backward iterations
 EnCoef did     3 forward-backward iterations
 Problem detected with inexpensive integrals.
 Switching to full accuracy and repeating last cycle.
 EnCoef did   100 forward-backward iterations
 EnCoef did     2 forward-backward iterations
 EnCoef did     7 forward-backward iterations
 EnCoef did   100 forward-backward iterations
 EnCoef did   100 forward-backward iterations
 EnCoef did   100 forward-backward iterations
 EnCoef did   100 forward-backward iterations
 EnCoef did   100 forward-backward iterations
 EnCoef did   100 forward-backward iterations
 EnCoef did     6 forward-backward iterations
 EnCoef did     2 forward-backward iterations
 EnCoef did     3 forward-backward iterations
 EnCoef did     9 forward-backward iterations
 Restarting incremental Fock formation.
 SCF Done:  E(RB3LYP) =  -829.360872939     A.U. after   44 cycles
            NFock= 44  Conv=0.81D-08     -V/T= 1.9912

 **********************************************************************

            Population analysis using the SCF density.

 **********************************************************************

 Orbital symmetries:
       Occupied  (A) (A) (A) (A) (A) (A) (A) (A) (A) (A) (A) (A)
                 (A) (A) (A) (A) (A) (A) (A) (A) (A) (A) (A) (A)
                 (A) (A) (A) (A) (A) (A) (A) (A) (A) (A) (A) (A)
                 (A) (A) (A) (A) (A) (A) (A) (A) (A) (A) (A) (A)
                 (A) (A) (A) (A) (A) (A) (A) (A) (A) (A) (A) (A)
                 (A) (A) (A) (A)
       Virtual   (A) (A) (A) (A) (A) (A) (A) (A) (A) (A) (A) (A)
                 (A) (A) (A) (A) (A) (A) (A) (A) (A) (A) (A) (A)
                 (A) (A) (A) (A) (A) (A) (A) (A) (A) (A) (A) (A)
                 (A) (A) (A) (A) (A) (A) (A) (A) (A) (A) (A) (A)
                 (A) (A) (A) (A) (A) (A) (A) (A) (A) (A) (A) (A)
                 (A) (A) (A) (A) (A) (A) (A) (A) (A) (A) (A) (A)
                 (A) (A) (A) (A) (A) (A) (A) (A) (A) (A) (A) (A)
                 (A) (A) (A) (A) (A) (A) (A) (A) (A) (A) (A) (A)
                 (A) (A) (A) (A) (A) (A) (A) (A) (A) (A) (A) (A)
                 (A) (A) (A) (A) (A) (A) (A) (A) (A) (A) (A) (A)
                 (A) (A) (A) (A) (A) (A) (A) (A) (A) (A) (A) (A)
                 (A) (A) (A) (A) (A) (A) (A) (A) (A) (A) (A) (A)
                 (A) (A) (A) (A) (A) (A) (A) (A) (A) (A) (A) (A)
                 (A) (A) (A) (A) (A) (A) (A) (A) (A) (A) (A) (A)
                 (A) (A) (A) (A) (A) (A) (A) (A) (A) (A) (A) (A)
                 (A) (A) (A) (A) (A) (A) (A) (A) (A) (A) (A) (A)
                 (A) (A) (A) (A) (A) (A) (A) (A) (A) (A) (A) (A)
                 (A) (A) (A) (A) (A) (A) (A) (A) (A) (A) (A) (A)
                 (A) (A) (A) (A) (A) (A) (A) (A) (A) (A) (A) (A)
                 (A) (A) (A) (A) (A) (A) (A) (A) (A) (A) (A) (A)
                 (A) (A) (A) (A) (A) (A) (A) (A) (A) (A) (A) (A)
                 (A) (A) (A) (A) (A) (A) (A) (A) (A) (A) (A) (A)
                 (A) (A) (A) (A) (A) (A) (A) (A) (A) (A) (A) (A)
                 (A) (A) (A) (A) (A) (A) (A) (A) (A) (A) (A) (A)
                 (A) (A) (A) (A) (A) (A) (A) (A) (A) (A) (A) (A)
                 (A) (A) (A) (A) (A) (A) (A) (A) (A) (A) (A) (A)
                 (A) (A) (A) (A) (A) (A) (A) (A) (A) (A) (A) (A)
                 (A) (A) (A) (A) (A) (A) (A) (A) (A) (A) (A) (A)
                 (A) (A) (A) (A) (A) (A) (A) (A) (A) (A) (A) (A)
                 (A) (A) (A) (A) (A) (A) (A) (A) (A) (A) (A) (A)
                 (A) (A) (A) (A) (A) (A) (A) (A) (A) (A) (A) (A)
                 (A) (A) (A) (A) (A) (A) (A) (A) (A) (A) (A) (A)
                 (A) (A) (A) (A) (A) (A) (A) (A) (A) (A) (A) (A)
                 (A) (A) (A) (A) (A) (A) (A) (A) (A) (A) (A) (A)
                 (A) (A) (A) (A) (A) (A) (A) (A) (A) (A) (A) (A)
                 (A) (A) (A) (A) (A) (A) (A) (A) (A) (A) (A) (A)
                 (A) (A) (A) (A) (A) (A) (A) (A) (A) (A) (A) (A)
                 (A) (A) (A) (A) (A) (A) (A) (A) (A) (A) (A) (A)
                 (A) (A) (A) (A) (A) (A) (A) (A) (A) (A) (A) (A)
                 (A) (A) (A) (A) (A) (A) (A) (A) (A) (A) (A) (A)
                 (A) (A) (A) (A) (A) (A) (A) (A) (A) (A) (A) (A)
                 (A) (A) (A) (A) (A) (A) (A) (A)
 The electronic state is 1-A.
 Alpha  occ. eigenvalues --  -19.35480 -19.17036 -14.40946 -14.40062 -14.38428
 Alpha  occ. eigenvalues --  -14.37290 -10.46789 -10.31014 -10.28565 -10.28169
 Alpha  occ. eigenvalues --  -10.28122 -10.27870 -10.27584 -10.27508 -10.26929
 Alpha  occ. eigenvalues --  -10.25789 -10.15914 -10.15450  -1.37700  -1.07391
 Alpha  occ. eigenvalues --   -1.05128  -0.99561  -0.91650  -0.90857  -0.87330
 Alpha  occ. eigenvalues --   -0.85782  -0.85143  -0.79862  -0.75536  -0.72782
 Alpha  occ. eigenvalues --   -0.67605  -0.65320  -0.63287  -0.61702  -0.61615
 Alpha  occ. eigenvalues --   -0.57274  -0.55969  -0.55033  -0.53814  -0.51760
 Alpha  occ. eigenvalues --   -0.50476  -0.48575  -0.47260  -0.45668  -0.42635
 Alpha  occ. eigenvalues --   -0.41296  -0.40274  -0.39360  -0.37337  -0.36632
 Alpha  occ. eigenvalues --   -0.36290  -0.35437  -0.34367  -0.32675  -0.31695
 Alpha  occ. eigenvalues --   -0.29435  -0.28717  -0.27367  -0.26603  -0.24508
 Alpha  occ. eigenvalues --   -0.20788  -0.19595  -0.18617  -0.17118
 Alpha virt. eigenvalues --   -0.14968  -0.12451  -0.12068  -0.10530  -0.08904
 Alpha virt. eigenvalues --   -0.07218  -0.06426  -0.04463  -0.03615  -0.01563
 Alpha virt. eigenvalues --   -0.00317   0.03676   0.04079   0.05251   0.05913
 Alpha virt. eigenvalues --    0.06935   0.07722   0.09203   0.10375   0.11450
 Alpha virt. eigenvalues --    0.12021   0.15070   0.16514   0.17735   0.19223
 Alpha virt. eigenvalues --    0.20400   0.22382   0.24160   0.25497   0.26749
 Alpha virt. eigenvalues --    0.27312   0.28892   0.30415   0.32094   0.32976
 Alpha virt. eigenvalues --    0.33241   0.34443   0.36048   0.37660   0.38871
 Alpha virt. eigenvalues --    0.39689   0.41002   0.41675   0.43792   0.44807
 Alpha virt. eigenvalues --    0.45524   0.46083   0.47028   0.47746   0.48773
 Alpha virt. eigenvalues --    0.49510   0.49944   0.50944   0.51986   0.52778
 Alpha virt. eigenvalues --    0.53803   0.54118   0.54936   0.56385   0.56491
 Alpha virt. eigenvalues --    0.57331   0.58450   0.59271   0.59740   0.60767
 Alpha virt. eigenvalues --    0.61189   0.61388   0.62536   0.63184   0.64111
 Alpha virt. eigenvalues --    0.64676   0.65771   0.67359   0.67597   0.68149
 Alpha virt. eigenvalues --    0.68986   0.70405   0.70926   0.72342   0.72712
 Alpha virt. eigenvalues --    0.73110   0.73627   0.74768   0.74989   0.75435
 Alpha virt. eigenvalues --    0.76116   0.77130   0.78407   0.78586   0.80039
 Alpha virt. eigenvalues --    0.80399   0.80679   0.81176   0.82083   0.82793
 Alpha virt. eigenvalues --    0.83175   0.84864   0.86576   0.87109   0.87647
 Alpha virt. eigenvalues --    0.88629   0.88716   0.89998   0.91445   0.92069
 Alpha virt. eigenvalues --    0.92394   0.93854   0.94495   0.94750   0.96213
 Alpha virt. eigenvalues --    0.96479   0.98523   0.99227   0.99857   1.00481
 Alpha virt. eigenvalues --    1.01875   1.02844   1.04080   1.04343   1.05099
 Alpha virt. eigenvalues --    1.05920   1.07879   1.08319   1.08920   1.09510
 Alpha virt. eigenvalues --    1.11168   1.11634   1.12900   1.13285   1.15743
 Alpha virt. eigenvalues --    1.16232   1.16735   1.18182   1.19405   1.20639
 Alpha virt. eigenvalues --    1.21184   1.22521   1.22653   1.25218   1.25426
 Alpha virt. eigenvalues --    1.26241   1.27639   1.30053   1.31005   1.32247
 Alpha virt. eigenvalues --    1.33747   1.34709   1.35167   1.36067   1.38432
 Alpha virt. eigenvalues --    1.41397   1.42403   1.43558   1.43733   1.44726
 Alpha virt. eigenvalues --    1.46758   1.46815   1.49030   1.49390   1.50238
 Alpha virt. eigenvalues --    1.51519   1.53141   1.53956   1.55069   1.55405
 Alpha virt. eigenvalues --    1.56320   1.56856   1.58713   1.59222   1.59761
 Alpha virt. eigenvalues --    1.61344   1.62355   1.62993   1.64221   1.65059
 Alpha virt. eigenvalues --    1.66762   1.67478   1.68725   1.69900   1.70674
 Alpha virt. eigenvalues --    1.71930   1.73485   1.74331   1.75650   1.77182
 Alpha virt. eigenvalues --    1.78520   1.80316   1.82060   1.82559   1.83780
 Alpha virt. eigenvalues --    1.85978   1.87803   1.89106   1.90607   1.91361
 Alpha virt. eigenvalues --    1.94870   1.95061   1.96992   1.97475   2.00316
 Alpha virt. eigenvalues --    2.01895   2.02657   2.05320   2.07385   2.08060
 Alpha virt. eigenvalues --    2.08768   2.09622   2.11237   2.12684   2.14740
 Alpha virt. eigenvalues --    2.20312   2.22072   2.26130   2.27420   2.30389
 Alpha virt. eigenvalues --    2.31693   2.33551   2.39309   2.40140   2.41379
 Alpha virt. eigenvalues --    2.42219   2.43304   2.44484   2.45419   2.45506
 Alpha virt. eigenvalues --    2.48803   2.49801   2.50927   2.51946   2.53064
 Alpha virt. eigenvalues --    2.54789   2.55667   2.56714   2.58256   2.61808
 Alpha virt. eigenvalues --    2.62989   2.64367   2.65356   2.67786   2.69520
 Alpha virt. eigenvalues --    2.70509   2.72491   2.73046   2.73740   2.75356
 Alpha virt. eigenvalues --    2.77985   2.78517   2.79736   2.82648   2.83064
 Alpha virt. eigenvalues --    2.84554   2.86843   2.87854   2.88416   2.89314
 Alpha virt. eigenvalues --    2.89979   2.90512   2.92052   2.93176   2.95016
 Alpha virt. eigenvalues --    2.96420   2.97192   2.97940   2.99165   3.00339
 Alpha virt. eigenvalues --    3.01462   3.03863   3.04674   3.04922   3.06500
 Alpha virt. eigenvalues --    3.07299   3.08258   3.11202   3.11713   3.12847
 Alpha virt. eigenvalues --    3.13543   3.14940   3.15784   3.17825   3.17997
 Alpha virt. eigenvalues --    3.19524   3.20790   3.21837   3.22671   3.24108
 Alpha virt. eigenvalues --    3.24768   3.26516   3.26732   3.29985   3.31321
 Alpha virt. eigenvalues --    3.33802   3.34001   3.35020   3.36905   3.38086
 Alpha virt. eigenvalues --    3.41680   3.42540   3.44112   3.44377   3.46339
 Alpha virt. eigenvalues --    3.47404   3.48348   3.49339   3.50769   3.51075
 Alpha virt. eigenvalues --    3.52517   3.54511   3.57421   3.57854   3.58784
 Alpha virt. eigenvalues --    3.59578   3.62047   3.64897   3.65820   3.68746
 Alpha virt. eigenvalues --    3.69235   3.69788   3.71828   3.72240   3.72975
 Alpha virt. eigenvalues --    3.73469   3.75280   3.77386   3.78733   3.80967
 Alpha virt. eigenvalues --    3.82901   3.84039   3.85423   3.86620   3.87866
 Alpha virt. eigenvalues --    3.88318   3.91046   3.92047   3.92283   3.96556
 Alpha virt. eigenvalues --    3.97881   3.98964   4.00439   4.02191   4.02689
 Alpha virt. eigenvalues --    4.05091   4.06389   4.07957   4.11149   4.12452
 Alpha virt. eigenvalues --    4.13738   4.15154   4.16788   4.17772   4.19008
 Alpha virt. eigenvalues --    4.19217   4.19875   4.20872   4.22463   4.24247
 Alpha virt. eigenvalues --    4.24966   4.25662   4.26483   4.27912   4.28002
 Alpha virt. eigenvalues --    4.28438   4.29799   4.30611   4.32353   4.33027
 Alpha virt. eigenvalues --    4.34711   4.35896   4.37266   4.38750   4.40150
 Alpha virt. eigenvalues --    4.41653   4.42656   4.44443   4.45809   4.46419
 Alpha virt. eigenvalues --    4.46796   4.48756   4.50845   4.51242   4.51988
 Alpha virt. eigenvalues --    4.53570   4.54149   4.55642   4.56715   4.57950
 Alpha virt. eigenvalues --    4.59182   4.60586   4.60985   4.63700   4.64085
 Alpha virt. eigenvalues --    4.64919   4.65558   4.66445   4.68132   4.69990
 Alpha virt. eigenvalues --    4.70787   4.71761   4.72279   4.73321   4.74554
 Alpha virt. eigenvalues --    4.76567   4.76959   4.78588   4.80985   4.81899
 Alpha virt. eigenvalues --    4.82481   4.84298   4.85803   4.86768   4.88789
 Alpha virt. eigenvalues --    4.89353   4.91194   4.91508   4.93963   4.95139
 Alpha virt. eigenvalues --    4.96270   4.98038   4.99466   5.00968   5.02184
 Alpha virt. eigenvalues --    5.03713   5.04973   5.06090   5.06798   5.07418
 Alpha virt. eigenvalues --    5.08261   5.08869   5.10166   5.10759   5.12664
 Alpha virt. eigenvalues --    5.12912   5.13668   5.16196   5.17036   5.17728
 Alpha virt. eigenvalues --    5.19563   5.21971   5.23914   5.24337   5.27789
 Alpha virt. eigenvalues --    5.31941   5.32178   5.34434   5.35056   5.37224
 Alpha virt. eigenvalues --    5.38448   5.39856   5.43473   5.44776   5.47375
 Alpha virt. eigenvalues --    5.51218   5.51423   5.53461   5.56575   5.58746
 Alpha virt. eigenvalues --    5.61669   5.63467   5.67356   5.71154   5.74834
 Alpha virt. eigenvalues --    5.78345   5.82342   5.84734   5.97020   6.11799
 Alpha virt. eigenvalues --    6.21555   6.26831   6.33128   6.34348   6.51789
 Alpha virt. eigenvalues --    6.61271   6.81514   6.99342   7.07553   7.21016
 Alpha virt. eigenvalues --    7.45269   8.73745   9.19283   9.85596  10.39984
 Alpha virt. eigenvalues --   10.63865  10.80543  10.94382  11.21234  11.28863
 Alpha virt. eigenvalues --   11.31365  11.32799  11.37123  11.52535  11.67260
 Alpha virt. eigenvalues --   12.03130  12.12641  12.32331  12.63608  12.75232
 Alpha virt. eigenvalues --   13.70556  16.20610  16.64391  18.04853  22.50008
          Condensed to atoms (all electrons):
               1          2          3          4          5          6
     1  O    8.196636  -0.006504  -0.000014   0.007438   0.092670   0.002446
     2  O   -0.006504   7.597984  -0.037143  -0.385592  -0.119266  -0.040193
     3  C   -0.000014  -0.037143   6.012884   0.087220  -0.000933  -0.061871
     4  C    0.007438  -0.385592   0.087220   6.914952  -0.178738   0.277525
     5  C    0.092670  -0.119266  -0.000933  -0.178738   5.548160   0.457465
     6  C    0.002446  -0.040193  -0.061871   0.277525   0.457465   5.461013
     7  C    0.000184  -0.004960   0.040257  -0.080080  -0.020059   0.231273
     8  C   -0.000001   0.000997  -0.027906  -0.034486  -0.000089  -0.012786
     9  N    0.000000   0.000021   0.050847  -0.000781   0.000150   0.003985
    10  C    0.000000  -0.000011  -0.015574   0.000025  -0.000045  -0.000375
    11  C    0.000000   0.000000   0.002998  -0.000010   0.000000   0.000011
    12  N   -0.000000  -0.000000  -0.000053   0.000000   0.000000   0.000000
    13  C    0.000000   0.000000   0.000001  -0.000000  -0.000000   0.000000
    14  C    0.000000   0.000000   0.000001  -0.000000  -0.000000   0.000000
    15  C    0.000000   0.000000   0.000001  -0.000000   0.000000  -0.000000
    16  C    0.000000   0.000000   0.000077  -0.000000  -0.000000   0.000000
    17  N    0.000000   0.000008   0.038315   0.000033  -0.000005   0.000054
    18  N   -0.000000   0.000000   0.000212  -0.000000  -0.000000   0.000000
    19  H    0.074875  -0.000061   0.000000  -0.000340   0.003078  -0.000092
    20  H    0.080088  -0.026397   0.000886  -0.076646   0.067939  -0.063172
    21  H   -0.005292   0.000606  -0.000005   0.012570   0.361363  -0.036217
    22  H   -0.008720  -0.076047  -0.001249  -0.165993   0.037514   0.047130
    23  H   -0.000017  -0.002562   0.009838   0.020110   0.010533  -0.064225
    24  H    0.000000  -0.000940   0.152565   0.017596   0.000244   0.003558
    25  H    0.000000   0.000005   0.005304  -0.000198   0.000000   0.000092
    26  H   -0.000000  -0.000000  -0.000197   0.000000  -0.000000   0.000000
    27  H    0.000000  -0.000000   0.000000  -0.000000   0.000000  -0.000000
    28  H    0.000000   0.000000  -0.000000  -0.000000   0.000000   0.000000
    29  H    0.000000  -0.000000  -0.000000   0.000000   0.000000  -0.000000
    30  H    0.000000   0.000000   0.000000  -0.000000   0.000000  -0.000000
               7          8          9         10         11         12
     1  O    0.000184  -0.000001   0.000000   0.000000   0.000000  -0.000000
     2  O   -0.004960   0.000997   0.000021  -0.000011   0.000000  -0.000000
     3  C    0.040257  -0.027906   0.050847  -0.015574   0.002998  -0.000053
     4  C   -0.080080  -0.034486  -0.000781   0.000025  -0.000010   0.000000
     5  C   -0.020059  -0.000089   0.000150  -0.000045   0.000000   0.000000
     6  C    0.231273  -0.012786   0.003985  -0.000375   0.000011   0.000000
     7  C    5.251256   0.487819  -0.081651  -0.000389  -0.001145   0.000010
     8  C    0.487819   5.373068   0.316221  -0.020867   0.000794   0.000585
     9  N   -0.081651   0.316221   6.422689   0.338880  -0.050939  -0.000455
    10  C   -0.000389  -0.020867   0.338880   5.455363   0.329540  -0.030022
    11  C   -0.001145   0.000794  -0.050939   0.329540   5.038920   0.464522
    12  N    0.000010   0.000585  -0.000455  -0.030022   0.464522   6.614529
    13  C   -0.000000  -0.000029   0.000046   0.003722  -0.146343   0.299083
    14  C    0.000000  -0.000001   0.000022  -0.000639   0.010452  -0.083696
    15  C    0.000000   0.000000  -0.000005  -0.000105   0.008438   0.005959
    16  C   -0.000008  -0.000245   0.002351  -0.004085  -0.052630  -0.019467
    17  N    0.003185  -0.018162   0.003165  -0.018645   0.009360  -0.006193
    18  N    0.000006  -0.000122   0.002122  -0.003857   0.027492  -0.152025
    19  H    0.000005   0.000000  -0.000000   0.000000  -0.000000  -0.000000
    20  H    0.006054  -0.000167   0.000001   0.000000  -0.000000   0.000000
    21  H   -0.003560  -0.000062   0.000004  -0.000000   0.000000   0.000000
    22  H    0.014583   0.004723   0.000284  -0.000007   0.000000   0.000000
    23  H    0.338354  -0.033578   0.002409   0.000944   0.000056   0.000001
    24  H   -0.046335   0.087831  -0.021032  -0.008575   0.000440  -0.000003
    25  H    0.002360  -0.021232  -0.021507   0.128045  -0.017439   0.003031
    26  H   -0.000008   0.000050   0.007005  -0.041999   0.384706  -0.041365
    27  H   -0.000000   0.000000   0.000000  -0.000115  -0.005232  -0.020605
    28  H   -0.000000   0.000000  -0.000000  -0.000009  -0.000057   0.000845
    29  H   -0.000000   0.000000  -0.000000   0.000057  -0.000473   0.005092
    30  H    0.000000   0.000000  -0.000007   0.000151   0.001452   0.026974
              13         14         15         16         17         18
     1  O    0.000000   0.000000   0.000000   0.000000   0.000000  -0.000000
     2  O    0.000000   0.000000   0.000000   0.000000   0.000008   0.000000
     3  C    0.000001   0.000001   0.000001   0.000077   0.038315   0.000212
     4  C   -0.000000  -0.000000  -0.000000  -0.000000   0.000033  -0.000000
     5  C   -0.000000  -0.000000   0.000000  -0.000000  -0.000005  -0.000000
     6  C    0.000000   0.000000  -0.000000   0.000000   0.000054   0.000000
     7  C   -0.000000   0.000000   0.000000  -0.000008   0.003185   0.000006
     8  C   -0.000029  -0.000001   0.000000  -0.000245  -0.018162  -0.000122
     9  N    0.000046   0.000022  -0.000005   0.002351   0.003165   0.002122
    10  C    0.003722  -0.000639  -0.000105  -0.004085  -0.018645  -0.003857
    11  C   -0.146343   0.010452   0.008438  -0.052630   0.009360   0.027492
    12  N    0.299083  -0.083696   0.005959  -0.019467  -0.006193  -0.152025
    13  C    5.190838   0.323400  -0.057268  -0.047227   0.003693   0.298146
    14  C    0.323400   5.191208   0.692194  -0.058119   0.001245  -0.216988
    15  C   -0.057268   0.692194   4.894014   0.042540  -0.000923  -0.103759
    16  C   -0.047227  -0.058119   0.042540   5.479322   0.058815   0.640690
    17  N    0.003693   0.001245  -0.000923   0.058815   7.118237  -0.032742
    18  N    0.298146  -0.216988  -0.103759   0.640690  -0.032742   6.646101
    19  H    0.000000   0.000000   0.000000  -0.000000   0.000000   0.000000
    20  H   -0.000000  -0.000000   0.000000  -0.000000   0.000000   0.000000
    21  H    0.000000   0.000000   0.000000   0.000000  -0.000000  -0.000000
    22  H   -0.000000  -0.000000   0.000000  -0.000000  -0.000017  -0.000000
    23  H   -0.000000  -0.000000   0.000000  -0.000000  -0.000237  -0.000000
    24  H    0.000000  -0.000000   0.000000  -0.000141   0.002113   0.000009
    25  H   -0.000121   0.000082   0.000311   0.003176   0.113693   0.002362
    26  H   -0.006800  -0.000881  -0.000139   0.002429   0.001053  -0.002881
    27  H    0.353094  -0.054753   0.006354   0.002444  -0.000062  -0.007945
    28  H   -0.003652  -0.035074   0.384570   0.000171   0.000020   0.000799
    29  H    0.016460  -0.034885   0.289688   0.026261  -0.000036   0.019224
    30  H   -0.184149   0.289927   0.018027   0.006594  -0.000219  -0.044110
              19         20         21         22         23         24
     1  O    0.074875   0.080088  -0.005292  -0.008720  -0.000017   0.000000
     2  O   -0.000061  -0.026397   0.000606  -0.076047  -0.002562  -0.000940
     3  C    0.000000   0.000886  -0.000005  -0.001249   0.009838   0.152565
     4  C   -0.000340  -0.076646   0.012570  -0.165993   0.020110   0.017596
     5  C    0.003078   0.067939   0.361363   0.037514   0.010533   0.000244
     6  C   -0.000092  -0.063172  -0.036217   0.047130  -0.064225   0.003558
     7  C    0.000005   0.006054  -0.003560   0.014583   0.338354  -0.046335
     8  C    0.000000  -0.000167  -0.000062   0.004723  -0.033578   0.087831
     9  N   -0.000000   0.000001   0.000004   0.000284   0.002409  -0.021032
    10  C    0.000000   0.000000  -0.000000  -0.000007   0.000944  -0.008575
    11  C   -0.000000  -0.000000   0.000000   0.000000   0.000056   0.000440
    12  N   -0.000000   0.000000   0.000000   0.000000   0.000001  -0.000003
    13  C    0.000000  -0.000000   0.000000  -0.000000  -0.000000   0.000000
    14  C    0.000000  -0.000000   0.000000  -0.000000  -0.000000  -0.000000
    15  C    0.000000   0.000000   0.000000   0.000000   0.000000   0.000000
    16  C   -0.000000  -0.000000   0.000000  -0.000000  -0.000000  -0.000141
    17  N    0.000000   0.000000  -0.000000  -0.000017  -0.000237   0.002113
    18  N    0.000000   0.000000  -0.000000  -0.000000  -0.000000   0.000009
    19  H    0.864870   0.008901  -0.000944   0.000394  -0.000003   0.000000
    20  H    0.008901   0.710958  -0.004601   0.122381  -0.000368  -0.000000
    21  H   -0.000944  -0.004601   0.442341   0.000268   0.004538  -0.000007
    22  H    0.000394   0.122381   0.000268   1.080235   0.001177  -0.000989
    23  H   -0.000003  -0.000368   0.004538   0.001177   0.544016   0.000177
    24  H    0.000000  -0.000000  -0.000007  -0.000989   0.000177   0.633812
    25  H   -0.000000  -0.000000   0.000000  -0.000007   0.000001   0.008072
    26  H    0.000000   0.000000  -0.000000  -0.000000   0.000002  -0.000003
    27  H    0.000000  -0.000000   0.000000   0.000000   0.000000  -0.000000
    28  H    0.000000  -0.000000   0.000000   0.000000   0.000000  -0.000000
    29  H    0.000000   0.000000  -0.000000   0.000000   0.000000  -0.000000
    30  H    0.000000  -0.000000   0.000000   0.000000   0.000000   0.000000
              25         26         27         28         29         30
     1  O    0.000000  -0.000000   0.000000   0.000000   0.000000   0.000000
     2  O    0.000005  -0.000000  -0.000000   0.000000  -0.000000   0.000000
     3  C    0.005304  -0.000197   0.000000  -0.000000  -0.000000   0.000000
     4  C   -0.000198   0.000000  -0.000000  -0.000000   0.000000  -0.000000
     5  C    0.000000  -0.000000   0.000000   0.000000   0.000000   0.000000
     6  C    0.000092   0.000000  -0.000000   0.000000  -0.000000  -0.000000
     7  C    0.002360  -0.000008  -0.000000  -0.000000  -0.000000   0.000000
     8  C   -0.021232   0.000050   0.000000   0.000000   0.000000   0.000000
     9  N   -0.021507   0.007005   0.000000  -0.000000  -0.000000  -0.000007
    10  C    0.128045  -0.041999  -0.000115  -0.000009   0.000057   0.000151
    11  C   -0.017439   0.384706  -0.005232  -0.000057  -0.000473   0.001452
    12  N    0.003031  -0.041365  -0.020605   0.000845   0.005092   0.026974
    13  C   -0.000121  -0.006800   0.353094  -0.003652   0.016460  -0.184149
    14  C    0.000082  -0.000881  -0.054753  -0.035074  -0.034885   0.289927
    15  C    0.000311  -0.000139   0.006354   0.384570   0.289688   0.018027
    16  C    0.003176   0.002429   0.002444   0.000171   0.026261   0.006594
    17  N    0.113693   0.001053  -0.000062   0.000020  -0.000036  -0.000219
    18  N    0.002362  -0.002881  -0.007945   0.000799   0.019224  -0.044110
    19  H   -0.000000   0.000000   0.000000   0.000000   0.000000   0.000000
    20  H   -0.000000   0.000000  -0.000000  -0.000000   0.000000  -0.000000
    21  H    0.000000  -0.000000   0.000000   0.000000  -0.000000   0.000000
    22  H   -0.000007  -0.000000   0.000000   0.000000   0.000000   0.000000
    23  H    0.000001   0.000002   0.000000   0.000000   0.000000   0.000000
    24  H    0.008072  -0.000003  -0.000000  -0.000000  -0.000000   0.000000
    25  H    0.534709   0.000896   0.000001  -0.000007  -0.000016   0.000009
    26  H    0.000896   0.545824   0.005892  -0.000005   0.000031  -0.000687
    27  H    0.000001   0.005892   0.551216  -0.000010  -0.000437  -0.003085
    28  H   -0.000007  -0.000005  -0.000010   0.603588  -0.084531   0.010830
    29  H   -0.000016   0.000031  -0.000437  -0.084531   0.713661  -0.019404
    30  H    0.000009  -0.000687  -0.003085   0.010830  -0.019404   0.860943
 Mulliken charges:
               1
     1  O   -0.433791
     2  O    1.100055
     3  C   -0.256462
     4  C   -0.414606
     5  C   -0.259981
     6  C   -0.205621
     7  C   -0.137150
     8  C   -0.102357
     9  N    0.026176
    10  C   -0.111408
    11  C   -0.004913
    12  N   -0.066747
    13  C   -0.042892
    14  C   -0.023494
    15  C   -0.179897
    16  C   -0.082949
    17  N   -0.275747
    18  N   -0.072732
    19  H    0.049316
    20  H    0.174142
    21  H    0.228997
    22  H   -0.055661
    23  H    0.168835
    24  H    0.171607
    25  H    0.258378
    26  H    0.147076
    27  H    0.173243
    28  H    0.122523
    29  H    0.069309
    30  H    0.036752
 Sum of Mulliken charges =  -0.00000
 Mulliken charges with hydrogens summed into heavy atoms:
               1
     1  O   -0.210334
     2  O    1.100055
     3  C   -0.084855
     4  C   -0.470267
     5  C   -0.030984
     6  C   -0.205621
     7  C    0.031684
     8  C   -0.102357
     9  N    0.026176
    10  C   -0.111408
    11  C    0.142163
    12  N   -0.066747
    13  C    0.130350
    14  C    0.013259
    15  C    0.011936
    16  C   -0.082949
    17  N   -0.017369
    18  N   -0.072732
 Electronic spatial extent (au):  <R**2>=           6907.9678
 Charge=             -0.0000 electrons
 Dipole moment (field-independent basis, Debye):
    X=              1.3514    Y=             -3.3333    Z=             -1.8496  Tot=              4.0445
 Quadrupole moment (field-independent basis, Debye-Ang):
   XX=           -127.3848   YY=           -100.2604   ZZ=           -108.2814
   XY=             -1.8148   XZ=              2.2889   YZ=              6.4908
 Traceless Quadrupole moment (field-independent basis, Debye-Ang):
   XX=            -15.4093   YY=             11.7151   ZZ=              3.6942
   XY=             -1.8148   XZ=              2.2889   YZ=              6.4908
 Octapole moment (field-independent basis, Debye-Ang**2):
  XXX=            104.8676  YYY=             -9.8113  ZZZ=            -16.2057  XYY=              2.6940
  XXY=            -54.8811  XXZ=            -56.6119  XZZ=             -0.9718  YZZ=              0.3983
  YYZ=            -10.1462  XYZ=              5.9613
 Hexadecapole moment (field-independent basis, Debye-Ang**3):
 XXXX=         -10056.4444 YYYY=           -556.2934 ZZZZ=           -273.2060 XXXY=            105.4588
 XXXZ=             70.7426 YYYX=            -42.8910 YYYZ=              8.8339 ZZZX=             40.9974
 ZZZY=              7.2118 XXYY=          -1388.8855 XXZZ=          -1471.3719 YYZZ=           -130.2627
 XXYZ=            105.6122 YYXZ=             14.5470 ZZXY=             -1.8708
 N-N= 1.247481025345D+03 E-N=-4.434510246980D+03  KE= 8.367661301539D+02
 PrsmSu:  requested number of processors reduced to:  13 ShMem   1 Linda.
 Calling FoFJK, ICntrl=      2127 FMM=F ISym2X=0 I1Cent= 0 IOpClX= 0 NMat=1 NMatS=1 NMatT=0.
 ***** Axes restored to original set *****
 -------------------------------------------------------------------
 Center     Atomic                   Forces (Hartrees/Bohr)
 Number     Number              X              Y              Z
 -------------------------------------------------------------------
      1        8           0.043073801   -0.029326901    0.003554182
      2        8          -4.292824071    7.433965531   -0.292678848
      3        6           0.025061302   -0.040972974    0.023870000
      4        6           4.365053210   -7.143180259    0.125038881
      5        6          -0.068457717   -0.040777560    0.078434749
      6        6          -0.024933239   -0.132850835   -0.034733252
      7        6           0.003485985    0.022039586    0.081665144
      8        6          -0.071241393   -0.006036000    0.007790336
      9        7          -0.028947975    0.018737552   -0.049877407
     10        6           0.096594405   -0.009746947   -0.060463541
     11        6          -0.047548517    0.003322089    0.113541422
     12        7          -0.007456269   -0.091482210   -0.022071226
     13        6           0.017307093    0.030864075    0.074854628
     14        6           0.293222962   -0.208587309    0.394817577
     15        6           0.007003666   -0.464182143    0.166901125
     16        6          -0.026359077   -0.007748658   -0.030392337
     17        7           0.008013384   -0.005677611    0.074400047
     18        7          -0.071373387    0.055532847   -0.008000044
     19        1           0.045636174   -0.015450471   -0.020039729
     20        1          -0.092760312    0.023251884    0.049321419
     21        1           0.000909570   -0.022290288    0.006581060
     22        1          -0.004606722   -0.037175894    0.081533118
     23        1           0.021182840   -0.018459386   -0.008673965
     24        1          -0.027500511    0.017056521   -0.047912583
     25        1          -0.008553086    0.001323709   -0.063970687
     26        1          -0.033090432   -0.005175952   -0.029961962
     27        1          -0.033690318   -0.009785526    0.024582515
     28        1          -0.020175661   -0.036811945    0.006502792
     29        1           0.106005195    0.539045877   -0.152611471
     30        1          -0.173030901    0.180579196   -0.492001944
 -------------------------------------------------------------------
 Cartesian Forces:  Max     7.433965531 RMS     1.270086320

 GradGradGradGradGradGradGradGradGradGradGradGradGradGradGradGradGradGrad
 Berny optimization.
 FormGI is forming the generalized inverse of G from B-inverse, IUseBI=4.
 Internal  Forces:  Max     8.568776762 RMS     0.760002233
 Search for a local minimum.
 Step number   1 out of a maximum of  139
 All quantities printed in internal units (Hartrees-Bohrs-Radians)
 Mixed Optimization -- RFO/linear search
 Second derivative matrix not updated -- first step.
 ITU=  0
     Eigenvalues ---    0.00230   0.00230   0.00230   0.00230   0.00230
     Eigenvalues ---    0.00230   0.00230   0.00403   0.00532   0.00905
     Eigenvalues ---    0.01137   0.01381   0.01567   0.01574   0.01742
     Eigenvalues ---    0.02163   0.03034   0.03194   0.03360   0.03406
     Eigenvalues ---    0.04775   0.05196   0.05363   0.06492   0.06914
     Eigenvalues ---    0.08369   0.09182   0.09432   0.10367   0.10413
     Eigenvalues ---    0.10434   0.10715   0.10901   0.11076   0.11274
     Eigenvalues ---    0.11837   0.12338   0.12908   0.13930   0.14533
     Eigenvalues ---    0.15123   0.15163   0.15643   0.16000   0.16000
     Eigenvalues ---    0.16000   0.16000   0.16000   0.16916   0.17031
     Eigenvalues ---    0.17375   0.19187   0.20288   0.20886   0.21257
     Eigenvalues ---    0.21926   0.22158   0.22472   0.22486   0.22524
     Eigenvalues ---    0.24154   0.25000   0.25000   0.25000   0.25000
     Eigenvalues ---    0.25000   0.31849   0.32972   0.33504   0.33709
     Eigenvalues ---    0.33744   0.36166   0.39665   0.41540   0.42196
     Eigenvalues ---    0.50094   0.60250   0.62574   0.62816   0.63973
     Eigenvalues ---    0.67605   1.24237   1.26005  17.34000
 RFO step:  Lambda=-3.72765349D+00 EMin= 2.30000000D-03
 Linear search not attempted -- first point.
 Maximum step size (   0.300) exceeded in Quadratic search.
    -- Step size scaled by   0.651
 Iteration  1 RMS(Cart)=  0.05766028 RMS(Int)=  0.00576474
 Iteration  2 RMS(Cart)=  0.00982686 RMS(Int)=  0.00007120
 Iteration  3 RMS(Cart)=  0.00002474 RMS(Int)=  0.00006530
 Iteration  4 RMS(Cart)=  0.00000001 RMS(Int)=  0.00006530
 Variable       Old X    -DE/DX   Delta X   Delta X   Delta X     New X
                                 (Linear)    (Quad)   (Total)
    R1        3.27907  -0.05191   0.00000  -0.00890  -0.00890   3.27017
    R2        2.76526  -0.09208   0.00000  -0.01556  -0.01556   2.74969
    R3        1.19626   8.56878   0.00000   0.26474   0.26474   1.46101
    R4        2.86692   0.02876   0.00000   0.00488   0.00488   2.87180
    R5        2.90565  -0.04672   0.00000  -0.00794  -0.00794   2.89771
    R6        2.48366   0.27438   0.00000   0.04123   0.04116   2.52482
    R7        2.87609   0.04454   0.00000   0.00743   0.00752   2.88361
    R8        2.81476   0.03365   0.00000   0.00539   0.00539   2.82015
    R9        2.03823  -0.00329   0.00000  -0.00052  -0.00052   2.03771
   R10        3.06067   0.02672   0.00000   0.00440   0.00440   3.06507
   R11        3.09132  -0.00549   0.00000  -0.00107  -0.00110   3.09022
   R12        2.69513   0.00130   0.00000   0.00020   0.00020   2.69533
   R13        2.07765  -0.00924   0.00000  -0.00148  -0.00148   2.07617
   R14        2.53773   0.04235   0.00000   0.00646   0.00646   2.54420
   R15        3.35840   0.05339   0.00000   0.00882   0.00882   3.36722
   R16        2.90936  -0.03162   0.00000  -0.00537  -0.00537   2.90399
   R17        2.43186   0.05997   0.00000   0.00893   0.00893   2.44080
   R18        3.05955  -0.02385   0.00000  -0.00393  -0.00393   3.05563
   R19        2.90390   0.00260   0.00000   0.00044   0.00044   2.90434
   R20        2.45386   0.06955   0.00000   0.01028   0.01028   2.46414
   R21        1.95374   0.03984   0.00000   0.00625   0.00625   1.95999
   R22        2.81124   0.04307   0.00000   0.00690   0.00690   2.81814
   R23        2.72011   0.20716   0.00000   0.03269   0.03269   2.75280
   R24        3.16797   0.05982   0.00000   0.00993   0.00993   3.17791
   R25        2.11121  -0.01370   0.00000  -0.00220  -0.00220   2.10900
   R26        2.48779   0.07108   0.00000   0.01062   0.01062   2.49841
   R27        1.46955   0.53108   0.00000   0.06955   0.06955   1.53910
   R28        2.09101  -0.00624   0.00000  -0.00100  -0.00100   2.09001
   R29        1.46430   0.56658   0.00000   0.07394   0.07394   1.53824
   R30        2.47928  -0.03747   0.00000  -0.00558  -0.00558   2.47370
   R31        2.88143  -0.07259   0.00000  -0.01232  -0.01232   2.86910
    A1        2.56475  -0.00899   0.00000  -0.00150  -0.00150   2.56324
    A2        1.88490  -0.08404   0.00000  -0.01407  -0.01407   1.87083
    A3        2.30948   0.13408   0.00000   0.02216   0.02208   2.33156
    A4        1.67211   0.05417   0.00000   0.00835   0.00855   1.68065
    A5        2.65076  -0.01202   0.00000  -0.00201  -0.00201   2.64875
    A6        1.45613   0.14394   0.00000   0.02417   0.02423   1.48036
    A7        1.55561   0.01250   0.00000   0.00190   0.00189   1.55750
    A8        1.82077   0.05780   0.00000   0.00963   0.00956   1.83033
    A9        1.98366  -0.01770   0.00000  -0.00273  -0.00295   1.98071
   A10        2.21073   0.05165   0.00000   0.00896   0.00893   2.21966
   A11        1.94825   0.05165   0.00000   0.00854   0.00855   1.95680
   A12        1.84360   0.00126   0.00000   0.00032   0.00033   1.84393
   A13        2.39627  -0.04512   0.00000  -0.00752  -0.00753   2.38874
   A14        1.77981   0.03712   0.00000   0.00631   0.00631   1.78612
   A15        2.53408   0.05116   0.00000   0.00827   0.00827   2.54235
   A16        1.96678  -0.02523   0.00000  -0.00415  -0.00414   1.96263
   A17        2.05261  -0.01585   0.00000  -0.00272  -0.00271   2.04989
   A18        1.69995  -0.02380   0.00000  -0.00383  -0.00382   1.69612
   A19        2.72129   0.01875   0.00000   0.00302   0.00302   2.72431
   A20        1.54527  -0.01810   0.00000  -0.00296  -0.00297   1.54230
   A21        1.88557   0.01783   0.00000   0.00306   0.00306   1.88862
   A22        2.00933   0.00036   0.00000   0.00007   0.00006   2.00939
   A23        1.93343   0.00736   0.00000   0.00129   0.00129   1.93472
   A24        1.90019   0.02948   0.00000   0.00487   0.00487   1.90506
   A25        2.16996  -0.03291   0.00000  -0.00547  -0.00548   2.16448
   A26        2.12386   0.00792   0.00000   0.00138   0.00139   2.12524
   A27        1.75319   0.13876   0.00000   0.02271   0.02271   1.77590
   A28        1.99027   0.13166   0.00000   0.02168   0.02158   2.01184
   A29        1.18635   0.02060   0.00000   0.00373   0.00353   1.18988
   A30        2.47436  -0.07595   0.00000  -0.01264  -0.01271   2.46166
   A31        1.42487   0.21166   0.00000   0.03531   0.03523   1.46009
   A32        1.81386  -0.04541   0.00000  -0.00728  -0.00727   1.80659
   A33        2.01192  -0.05599   0.00000  -0.00939  -0.00942   2.00250
   A34        2.11657   0.12800   0.00000   0.02129   0.02140   2.13797
   A35        1.11709   0.07486   0.00000   0.01302   0.01298   1.13007
   A36        2.19497  -0.01903   0.00000  -0.00332  -0.00363   2.19134
   A37        2.44654  -0.03267   0.00000  -0.00548  -0.00548   2.44106
   A38        2.16807  -0.01475   0.00000  -0.00248  -0.00248   2.16559
   A39        1.63191   0.04101   0.00000   0.00686   0.00685   1.63876
   A40        2.06900   0.03390   0.00000   0.00555   0.00555   2.07455
   A41        2.03241  -0.05905   0.00000  -0.00966  -0.00966   2.02275
   A42        1.28866  -0.06158   0.00000  -0.01008  -0.01008   1.27859
   A43        1.21493   0.04950   0.00000   0.00810   0.00810   1.22303
    D1       -2.95139  -0.00808   0.00000  -0.00141  -0.00141  -2.95280
    D2        0.40023  -0.06632   0.00000  -0.01076  -0.01074   0.38950
    D3       -0.78918   0.02342   0.00000   0.00350   0.00347  -0.78571
    D4       -2.20009   0.08500   0.00000   0.01483   0.01483  -2.18526
    D5        0.74057  -0.04603   0.00000  -0.00791  -0.00785   0.73272
    D6        2.56487   0.00412   0.00000   0.00045   0.00054   2.56541
    D7        1.47597  -0.00331   0.00000  -0.00083  -0.00065   1.47532
    D8       -0.04963  -0.04652   0.00000  -0.00789  -0.00794  -0.05758
    D9        2.42333   0.07121   0.00000   0.01244   0.01232   2.43565
   D10        1.55592  -0.06478   0.00000  -0.01060  -0.01067   1.54524
   D11       -1.21422  -0.06527   0.00000  -0.01077  -0.01086  -1.22509
   D12        3.00443   0.08447   0.00000   0.01441   0.01447   3.01890
   D13        0.23429   0.08398   0.00000   0.01425   0.01428   0.24857
   D14        0.64935  -0.01856   0.00000  -0.00349  -0.00344   0.64591
   D15       -2.12079  -0.01906   0.00000  -0.00366  -0.00363  -2.12442
   D16       -2.70617  -0.02075   0.00000  -0.00363  -0.00362  -2.70979
   D17       -3.06827  -0.01755   0.00000  -0.00297  -0.00296  -3.07123
   D18       -0.48925  -0.02952   0.00000  -0.00507  -0.00507  -0.49432
   D19       -0.10605   0.00962   0.00000   0.00157   0.00156  -0.10449
   D20       -0.46815   0.01282   0.00000   0.00224   0.00223  -0.46592
   D21        2.11087   0.00085   0.00000   0.00013   0.00012   2.11099
   D22        0.17943  -0.01073   0.00000  -0.00186  -0.00186   0.17757
   D23        2.69872   0.00704   0.00000   0.00125   0.00124   2.69997
   D24       -2.44292   0.00438   0.00000   0.00076   0.00076  -2.44216
   D25        0.07637   0.02215   0.00000   0.00386   0.00386   0.08024
   D26       -1.12125  -0.02670   0.00000  -0.00455  -0.00456  -1.12581
   D27        0.94156  -0.00888   0.00000  -0.00143  -0.00143   0.94013
   D28        1.70829  -0.00808   0.00000  -0.00163  -0.00163   1.70667
   D29       -2.88771  -0.00779   0.00000  -0.00134  -0.00134  -2.88905
   D30       -0.18393   0.00703   0.00000   0.00122   0.00121  -0.18272
   D31       -3.14068  -0.00729   0.00000  -0.00127  -0.00127   3.14124
   D32       -0.43690   0.00753   0.00000   0.00129   0.00129  -0.43562
   D33        0.92676  -0.02568   0.00000  -0.00446  -0.00446   0.92231
   D34       -2.65264  -0.01085   0.00000  -0.00190  -0.00191  -2.65455
   D35       -1.82301   0.00618   0.00000   0.00116   0.00116  -1.82185
   D36       -1.08426  -0.00705   0.00000  -0.00124  -0.00124  -1.08550
   D37        1.06136   0.02300   0.00000   0.00395   0.00394   1.06531
   D38       -3.06074   0.00164   0.00000   0.00031   0.00032  -3.06042
   D39        0.50490  -0.00031   0.00000  -0.00008  -0.00009   0.50481
   D40        2.35572   0.11764   0.00000   0.01998   0.01998   2.37569
   D41        1.14480  -0.08057   0.00000  -0.01344  -0.01349   1.13131
   D42       -0.65880  -0.02348   0.00000  -0.00417  -0.00411  -0.66291
   D43       -0.23780  -0.07150   0.00000  -0.01219  -0.01223  -0.25003
   D44       -2.29176  -0.05130   0.00000  -0.00888  -0.00912  -2.30088
   D45        0.83166   0.02303   0.00000   0.00403   0.00421   0.83587
   D46       -1.22230   0.04324   0.00000   0.00734   0.00732  -1.21498
   D47        2.82291   0.01113   0.00000   0.00198   0.00213   2.82504
   D48        0.76895   0.03134   0.00000   0.00528   0.00525   0.77419
   D49        0.99859   0.02677   0.00000   0.00423   0.00436   1.00295
   D50       -1.09988   0.00062   0.00000   0.00031   0.00011  -1.09977
   D51       -2.87165  -0.04776   0.00000  -0.00809  -0.00803  -2.87967
   D52        1.75550  -0.09647   0.00000  -0.01646  -0.01643   1.73907
   D53       -1.75980  -0.11958   0.00000  -0.02046  -0.02042  -1.78023
   D54        3.13049   0.07195   0.00000   0.01222   0.01218  -3.14052
   D55       -0.38481   0.04884   0.00000   0.00822   0.00818  -0.37663
         Item               Value     Threshold  Converged?
 Maximum Force            8.568777     0.000450     NO 
 RMS     Force            0.760002     0.000300     NO 
 Maximum Displacement     0.258353     0.001800     NO 
 RMS     Displacement     0.064907     0.001200     NO 
 Predicted change in Energy=-1.810645D+00
 GradGradGradGradGradGradGradGradGradGradGradGradGradGradGradGradGradGrad

                          Input orientation:                          
 ---------------------------------------------------------------------
 Center     Atomic      Atomic             Coordinates (Angstroms)
 Number     Number       Type             X           Y           Z
 ---------------------------------------------------------------------
      1          8           0        4.377184   -0.300963   -1.256201
      2          8           0        6.637000   -0.579829   -2.339530
      3          6           0        8.923836   -1.520913   -3.281001
      4          6           0        7.024212   -1.248920   -2.328658
      5          6           0        5.397936   -2.218228   -2.068388
      6          6           0        6.831892   -2.414513   -1.704553
      7          6           0        7.483513   -3.179126   -2.977944
      8          6           0        8.899632   -3.303978   -2.862297
      9          7           0        9.284823   -3.412016   -4.147816
     10          6           0       10.398916   -3.845309   -3.658613
     11          6           0       11.314958   -4.376121   -4.880780
     12          7           0       12.446426   -4.818137   -4.406727
     13          6           0       13.191227   -5.147482   -5.656034
     14          6           0       14.584404   -4.722598   -5.679773
     15          6           0       15.079145   -3.860847   -4.807663
     16          6           0       13.320438   -2.856002   -4.473131
     17          7           0       11.043127   -2.312043   -4.216156
     18          7           0       12.884938   -3.498982   -5.526914
     19          1           0        2.858508    0.065312   -0.511826
     20          1           0        5.803188   -0.522757   -1.070292
     21          1           0        4.573532   -2.298030   -2.758849
     22          1           0        7.470645   -1.160211   -0.872183
     23          1           0        6.751288   -3.078121   -3.790777
     24          1           0        9.522355   -2.173004   -2.028850
     25          1           0       11.170229   -2.833808   -2.796039
     26          1           0       10.936870   -4.706437   -5.788351
     27          1           0       13.031258   -5.573767   -6.674968
     28          1           0       15.671669   -3.848833   -3.873867
     29          1           0       15.216615   -3.075232   -4.970473
     30          1           0       14.151155   -4.530205   -6.342058
 ---------------------------------------------------------------------
                    Distance matrix (angstroms):
                    1          2          3          4          5
     1  O    0.000000
     2  O    2.521535   0.000000
     3  C    5.124465   2.646058   0.000000
     4  C    3.009244   0.773132   2.142313   0.000000
     5  C    2.318941   2.071991   3.793237   1.911040   0.000000
     6  C    3.270124   1.951216   2.767659   1.336077   1.492358
     7  C    4.571379   2.807223   2.217216   2.087637   2.469868
     8  C    5.661288   3.579634   1.831726   2.832885   3.751136
     9  N    6.490379   4.278101   2.111387   3.619210   4.566951
    10  C    7.388859   5.153189   2.778718   4.460790   5.494180
    11  C    8.824806   6.538583   4.053267   5.890943   6.897622
    12  N    9.769511   7.482378   4.954552   6.816016   7.868199
    13  C   10.978827   8.649886   6.083043   8.018870   9.065711
    14  C   11.971057   9.564570   6.931589   8.969555  10.183574
    15  C   11.824451   9.387575   6.759720   8.823240  10.194490
    16  C    9.841680   7.375741   4.746972   6.842801   8.303949
    17  N    7.565751   5.092764   2.447815   4.565584   6.040686
    18  N   10.042321   7.597210   4.964596   7.045547   8.346073
    19  H    1.730499   4.246611   6.853659   4.730875   3.753150
    20  H    1.455075   1.519692   3.952466   1.897814   2.008742
    21  H    2.506947   2.717710   4.449911   2.700284   1.078308
    22  H    3.233463   1.784633   2.836243   1.525940   2.616568
    23  H    4.446691   2.891478   2.721164   2.357596   2.353211
    24  H    5.529405   3.310589   1.533404   2.680398   4.124856
    25  H    7.411603   5.083206   2.646726   4.463156   5.850451
    26  H    9.109229   6.885647   4.526220   6.263608   7.121031
    27  H   11.491671   9.199020   6.694442   8.583665   9.526165
    28  H   12.124561   9.729636   7.162678   9.161099  10.557851
    29  H   11.789218   9.314434   6.698454   8.799435  10.274386
    30  H   11.801819   9.385532   6.763932   8.812917  10.011410
                    6          7          8          9         10
     6  C    0.000000
     7  C    1.621964   0.000000
     8  C    2.531218   1.426308   0.000000
     9  N    3.602973   2.160453   1.346330   0.000000
    10  C    4.311518   3.067032   1.781856   1.291614   0.000000
    11  C    5.833883   4.442246   3.325291   2.363933   1.616967
    12  N    6.678483   5.418328   4.154237   3.469862   2.387124
    13  C    7.970223   6.604891   5.442542   4.532830   3.671831
[...]
            NFock= 12  Conv=0.93D-08     -V/T= 2.0065
 PrsmSu:  requested number of processors reduced to:  13 ShMem   1 Linda.
 Calling FoFJK, ICntrl=      2127 FMM=F ISym2X=0 I1Cent= 0 IOpClX= 0 NMat=1 NMatS=1 NMatT=0.
 ***** Axes restored to original set *****
 -------------------------------------------------------------------
 Center     Atomic                   Forces (Hartrees/Bohr)
 Number     Number              X              Y              Z
 -------------------------------------------------------------------
      1        8           0.017851202    0.004507630   -0.022283907
      2        8          -0.009378580    0.013331353   -0.001835446
      3        6          -0.006000607    0.007469619   -0.018005797
      4        6           0.020760593    0.020772561    0.020975000
      5        6          -0.029368600   -0.013604257    0.020384083
      6        6          -0.000230783   -0.058084124   -0.033989055
      7        6          -0.009375476    0.025626629    0.002366042
      8        6           0.024298658   -0.015073010   -0.017890428
      9        7          -0.031983329   -0.010079276   -0.002172266
     10        6          -0.001392828   -0.001672153   -0.004047909
     11        6          -0.009824089   -0.026202459    0.013096616
     12        7           0.001958332    0.002232260   -0.002535343
     13        6          -0.003963412   -0.007583642    0.010694128
     14        6           0.006688194    0.006407671   -0.015625367
     15        6           0.001724087   -0.003466302    0.010180050
     16        6          -0.001210069   -0.004881476    0.006915945
     17        7           0.036641143    0.031268675    0.007413004
     18        7           0.000034199    0.007491876   -0.008445887
     19        1          -0.000827645   -0.005042751    0.021930012
     20        1          -0.020643166    0.001120213    0.002810091
     21        1           0.000603047    0.005030850    0.003563896
     22        1           0.013639833    0.009516777    0.014700441
     23        1           0.002068158   -0.004526067   -0.001179751
     24        1           0.014302802   -0.005096753    0.000397818
     25        1          -0.010445243    0.016146740   -0.007560165
     26        1           0.001543247    0.001973070   -0.001303767
     27        1          -0.000207697    0.000270490    0.000496994
     28        1           0.000620059    0.002126450   -0.002419502
     29        1          -0.002771531   -0.000499467    0.000809606
     30        1          -0.005110500    0.000518873    0.002560866
 -------------------------------------------------------------------
 Cartesian Forces:  Max     0.058084124 RMS     0.014241274

 GradGradGradGradGradGradGradGradGradGradGradGradGradGradGradGradGradGrad
 Berny optimization.
 Using GEDIIS/GDIIS optimizer.
 FormGI is forming the generalized inverse of G from B-inverse, IUseBI=4.
 Internal  Forces:  Max     0.048950057 RMS     0.012141746
 Search for a local minimum.
 Step number  20 out of a maximum of  139
 All quantities printed in internal units (Hartrees-Bohrs-Radians)
 Mixed Optimization -- RFO/linear search
 Update second derivatives using D2CorX and points   18   19   20
 DE= -4.78D-03 DEPred=-4.81D-03 R= 9.95D-01
 TightC=F SS=  1.41D+00  RLast= 8.44D-02 DXNew= 1.9497D+00 2.5319D-01
 Trust test= 9.95D-01 RLast= 8.44D-02 DXMaxT set to 1.16D+00
 ITU=  1  1  1  0  0 -1  0  0  0  0  1  0  1  0 -1  1  0  0  1  0
 Use linear search instead of GDIIS.
     Eigenvalues ---    0.00229   0.00230   0.00231   0.00240   0.00285
     Eigenvalues ---    0.00308   0.00589   0.00863   0.00887   0.00910
     Eigenvalues ---    0.01069   0.01093   0.01421   0.01482   0.01584
     Eigenvalues ---    0.02383   0.02630   0.03018   0.03159   0.03217
     Eigenvalues ---    0.03909   0.04973   0.06897   0.07020   0.08100
     Eigenvalues ---    0.08629   0.09131   0.09236   0.10230   0.10622
     Eigenvalues ---    0.10968   0.11738   0.12413   0.13004   0.13754
     Eigenvalues ---    0.14992   0.15331   0.15484   0.15727   0.15834
     Eigenvalues ---    0.15951   0.15999   0.16004   0.16785   0.16845
     Eigenvalues ---    0.17431   0.17723   0.19034   0.19756   0.20370
     Eigenvalues ---    0.20881   0.21522   0.21745   0.21993   0.22420
     Eigenvalues ---    0.22832   0.23725   0.24627   0.25483   0.27870
     Eigenvalues ---    0.29462   0.31593   0.31845   0.32974   0.33749
     Eigenvalues ---    0.35977   0.36222   0.39064   0.40322   0.42155
     Eigenvalues ---    0.44369   0.48209   0.50038   0.57961   0.60225
     Eigenvalues ---    0.62634   0.66970   0.72168   0.84616   0.90700
     Eigenvalues ---    1.20360   1.26119   1.76780   3.37140
 RFO step:  Lambda=-1.73311056D-02 EMin= 2.29286190D-03
 Quartic linear search produced a step of  2.00000.
 Iteration  1 RMS(Cart)=  0.00280967 RMS(Int)=  0.03339836
 Iteration  2 RMS(Cart)=  0.09091045 RMS(Int)=  0.01266417
 SLEqS3 Cycle:    60 Max:0.478739E-01 RMS: 3132.08     Conv:0.230071E-01
 Iteration  3 RMS(Cart)=  0.02359323 RMS(Int)=  0.01064490
 SLEqS3 Cycle:    15 Max:0.416249E-01 RMS: 172.475     Conv:0.126421E-02
 Iteration  4 RMS(Cart)=  0.01027179 RMS(Int)=  0.00972403
 SLEqS3 Cycle:   901 Max:0.150966E-01 RMS:0.278499E-02 Conv:0.697523E-03
 SLEqS3 Cycle:   104 Max:0.389223E-01 RMS:0.815430E-02 Conv:0.697523E-03
 Iteration  5 RMS(Cart)=  0.00435764 RMS(Int)=  0.00948085
 SLEqS3 Cycle:   901 Max:0.415461E-01 RMS:0.778131E-02 Conv:0.304882E-04
 SLEqS3 Cycle:   105 Max:0.382229E-01 RMS: 4.16763     Conv:0.304882E-04
 Iteration  6 RMS(Cart)=  0.02669097 RMS(Int)=  0.00897310
 SLEqS3 Cycle:    72 Max:0.389212E-01 RMS:0.793203E-02 Conv:0.208151E-03
 Iteration  7 RMS(Cart)=  0.00514761 RMS(Int)=  0.00921241
 SLEqS3 Cycle:   901 Max:0.372483E-01 RMS:0.693195E-02 Conv:0.421823E-04
 SLEqS3 Cycle:   104 Max:0.380480E-01 RMS:0.802715E-02 Conv:0.421823E-04
 Iteration  8 RMS(Cart)=  0.00541706 RMS(Int)=  0.00892464
 SLEqS3 Cycle:   901 Max:0.450618E-01 RMS:0.803148E-02 Conv:0.134987E-04
 SLEqS3 Cycle:   105 Max:0.360666E-01 RMS: 1.84469     Conv:0.134987E-04
 Iteration  9 RMS(Cart)=  0.01432325 RMS(Int)=  0.00965701
 SLEqS3 Cycle:   489 Max:0.328696E-01 RMS:0.812755E-02 Conv:0.149974E-03
 Iteration 10 RMS(Cart)=  0.00871824 RMS(Int)=  0.01015030
 SLEqS3 Cycle:   901 Max:0.454605E-01 RMS:0.820387E-02 Conv:0.460155E-04
 SLEqS3 Cycle:   901 Max:0.478916E-01 RMS:0.814931E-02 Conv:0.460155E-04
 Iteration 11 RMS(Cart)=  0.04285621 RMS(Int)=  0.00859322
 SLEqS3 Cycle:   901 Max:0.854417E-02 RMS:0.117448E-02 Conv:0.853206E-03
 SLEqS3 Cycle:    90 Max:0.421751E-01 RMS: 116.885     Conv:0.853206E-03
 Iteration 12 RMS(Cart)=  0.00347888 RMS(Int)=  0.00845169
 SLEqS3 Cycle:    29 Max:0.411748E-01 RMS:0.776642E-02 Conv:0.264687E-04
 Iteration 13 RMS(Cart)=  0.00250166 RMS(Int)=  0.00857028
 SLEqS3 Cycle:    45 Max:0.408726E-01 RMS: 10.7396     Conv:0.784264E-04
 Iteration 14 RMS(Cart)=  0.00135233 RMS(Int)=  0.00863376
 SLEqS3 Cycle:    29 Max:0.419417E-01 RMS:0.788555E-02 Conv:0.346597E-04
 Iteration 15 RMS(Cart)=  0.00273632 RMS(Int)=  0.00851390
 SLEqS3 Cycle:    30 Max:0.420794E-01 RMS: 13.1218     Conv:0.957964E-04
 Iteration 16 RMS(Cart)=  0.00087121 RMS(Int)=  0.00847456
 SLEqS3 Cycle:   901 Max:0.436844E-01 RMS:0.779085E-02 Conv:0.143529E-04
 SLEqS3 Cycle:   901 Max:0.437119E-01 RMS:0.779309E-02 Conv:0.143529E-04
 Iteration 17 RMS(Cart)=  0.00789228 RMS(Int)=  0.00814745
 SLEqS3 Cycle:    19 Max:0.354737E-01 RMS: 26.2209     Conv:0.191076E-03
 Iteration 18 RMS(Cart)=  0.02302217 RMS(Int)=  0.00696038
 SLEqS3 Cycle:   901 Max: 5513.31     RMS: 760.910     Conv:0.551331E-02
 SLEqS3 Cycle:    90 Max:0.352913E-01 RMS: 760.910     Conv:0.551331E-02
 Iteration 19 RMS(Cart)=  0.00002022 RMS(Int)=  0.00695808
 SLEqS3 Cycle:    29 Max:0.353223E-01 RMS:0.679243E-02 Conv:0.161518E-04
 Iteration 20 RMS(Cart)=  0.00046477 RMS(Int)=  0.00693720
 SLEqS3 Cycle:   901 Max:0.354494E-01 RMS:0.679415E-02 Conv:0.784844E-06
 SLEqS3 Cycle:   901 Max:0.354548E-01 RMS:0.678938E-02 Conv:0.784844E-06
 Iteration 21 RMS(Cart)=  0.00305995 RMS(Int)=  0.00679836
 SLEqS3 Cycle:    29 Max:0.344122E-01 RMS:0.676054E-02 Conv:0.169704E-04
 Iteration 22 RMS(Cart)=  0.01446372 RMS(Int)=  0.00771205
 SLEqS3 Cycle:   901 Max:0.163158E-01 RMS:0.272957E-02 Conv:0.173287E-03
 SLEqS3 Cycle:   105 Max:0.340699E-01 RMS: 23.8576     Conv:0.173287E-03
 Iteration 23 RMS(Cart)=  0.00374694 RMS(Int)=  0.00754367
 SLEqS3 Cycle:   901 Max:0.345642E-01 RMS:0.695600E-02 Conv:0.141943E-04
 SLEqS3 Cycle:   104 Max:0.342047E-01 RMS:0.695609E-02 Conv:0.141943E-04
 Iteration 24 RMS(Cart)=  0.00029687 RMS(Int)=  0.00755390
 SLEqS3 Cycle:   901 Max:0.343138E-01 RMS:0.691265E-02 Conv:0.339836E-06
 SLEqS3 Cycle:   901 Max:0.343842E-01 RMS:0.692484E-02 Conv:0.339836E-06
 Iteration 25 RMS(Cart)=  0.00131001 RMS(Int)=  0.00747899
 SLEqS3 Cycle:   901 Max:0.346927E-01 RMS:0.693825E-02 Conv:0.260351E-06
 SLEqS3 Cycle:   901 Max:0.346705E-01 RMS:0.693824E-02 Conv:0.260351E-06
 Iteration 26 RMS(Cart)=  0.00354578 RMS(Int)=  0.00726912
 SLEqS3 Cycle:   901 Max:0.347962E-01 RMS:0.691316E-02 Conv:0.722409E-06
 SLEqS3 Cycle:   901 Max:0.349250E-01 RMS:0.687863E-02 Conv:0.722409E-06
 Iteration 27 RMS(Cart)=  0.00247226 RMS(Int)=  0.00711026
 SLEqS3 Cycle:   901 Max:0.409067E-01 RMS:0.694986E-02 Conv:0.355221E-04
 SLEqS3 Cycle:    90 Max:0.348785E-01 RMS: 4.89782     Conv:0.355221E-04
 Iteration 28 RMS(Cart)=  0.00188654 RMS(Int)=  0.00702386
 SLEqS3 Cycle:   901 Max:0.354140E-01 RMS:0.682816E-02 Conv:0.498600E-05
 SLEqS3 Cycle:   901 Max:0.354131E-01 RMS:0.682807E-02 Conv:0.498600E-05
 Iteration 29 RMS(Cart)=  0.00266475 RMS(Int)=  0.00687404
 SLEqS3 Cycle:   901 Max:0.356618E-01 RMS:0.679695E-02 Conv:0.198214E-05
 SLEqS3 Cycle:   901 Max:0.356745E-01 RMS:0.679507E-02 Conv:0.198214E-05
 Iteration 30 RMS(Cart)=  0.00233883 RMS(Int)=  0.00673097
 SLEqS3 Cycle:   901 Max:0.418022E-01 RMS:0.686644E-02 Conv:0.317506E-04
 SLEqS3 Cycle:    90 Max:0.357092E-01 RMS: 4.38358     Conv:0.317506E-04
 Iteration 31 RMS(Cart)=  0.00002855 RMS(Int)=  0.00673037
 SLEqS3 Cycle:   901 Max:0.358391E-01 RMS:0.676613E-02 Conv:0.416685E-07
 SLEqS3 Cycle:   901 Max:0.357797E-01 RMS:0.677251E-02 Conv:0.416685E-07
 Iteration 32 RMS(Cart)=  0.00097121 RMS(Int)=  0.00667318
 SLEqS3 Cycle:   901 Max:0.359552E-01 RMS:0.676255E-02 Conv:0.397577E-05
 SLEqS3 Cycle:   901 Max:0.360248E-01 RMS:0.675715E-02 Conv:0.397577E-05
 Iteration 33 RMS(Cart)=  0.00209685 RMS(Int)=  0.00655197
 SLEqS3 Cycle:   901 Max:0.421971E-01 RMS:0.682079E-02 Conv:0.226900E-04
 SLEqS3 Cycle:   105 Max:0.360614E-01 RMS: 3.13446     Conv:0.226900E-04
 Iteration 34 RMS(Cart)=  0.00003681 RMS(Int)=  0.00655125
 SLEqS3 Cycle:   901 Max:0.364329E-01 RMS:0.672100E-02 Conv:0.113623E-06
 SLEqS3 Cycle:   901 Max:0.361476E-01 RMS:0.672988E-02 Conv:0.113623E-06
 Iteration 35 RMS(Cart)=  0.00143037 RMS(Int)=  0.00647035
 SLEqS3 Cycle:    29 Max:0.360757E-01 RMS:0.672149E-02 Conv:0.764402E-05
 Iteration 36 RMS(Cart)=  0.00125220 RMS(Int)=  0.00654154
 SLEqS3 Cycle:   901 Max:0.361943E-01 RMS:0.672941E-02 Conv:0.413148E-05
 SLEqS3 Cycle:   901 Max:0.362335E-01 RMS:0.672821E-02 Conv:0.413148E-05
 Iteration 37 RMS(Cart)=  0.00197616 RMS(Int)=  0.00643021
 SLEqS3 Cycle:   901 Max:0.424663E-01 RMS:0.678880E-02 Conv:0.259590E-04
 SLEqS3 Cycle:   105 Max:0.362869E-01 RMS: 3.58803     Conv:0.259590E-04
 Iteration 38 RMS(Cart)=  0.00002876 RMS(Int)=  0.00642965
 SLEqS3 Cycle:   901 Max:0.364334E-01 RMS:0.672364E-02 Conv:0.520503E-07
 SLEqS3 Cycle:   901 Max:0.364084E-01 RMS:0.672487E-02 Conv:0.520503E-07
 Iteration 39 RMS(Cart)=  0.00102406 RMS(Int)=  0.00637313
 SLEqS3 Cycle:    29 Max:0.362921E-01 RMS:0.670884E-02 Conv:0.630531E-05
 Iteration 40 RMS(Cart)=  0.00097334 RMS(Int)=  0.00642711
 SLEqS3 Cycle:    29 Max:0.363074E-01 RMS:0.671140E-02 Conv:0.570223E-05
 Iteration 41 RMS(Cart)=  0.00044511 RMS(Int)=  0.00640239
 SLEqS3 Cycle:   901 Max:0.364755E-01 RMS:0.671404E-02 Conv:0.123873E-05
 SLEqS3 Cycle:   901 Max:0.365097E-01 RMS:0.671143E-02 Conv:0.123873E-05
 Iteration 42 RMS(Cart)=  0.00177424 RMS(Int)=  0.00630548
 SLEqS3 Cycle:    29 Max:0.363272E-01 RMS:0.670021E-02 Conv:0.842511E-05
 Iteration 43 RMS(Cart)=  0.00196082 RMS(Int)=  0.00641322
 SLEqS3 Cycle:    29 Max:0.363503E-01 RMS:0.670919E-02 Conv:0.916986E-05
 Iteration 44 RMS(Cart)=  0.00057941 RMS(Int)=  0.00638108
 SLEqS3 Cycle:   901 Max:0.364343E-01 RMS:0.671509E-02 Conv:0.120167E-05
 SLEqS3 Cycle:   901 Max:0.365513E-01 RMS:0.670878E-02 Conv:0.120167E-05
 Iteration 45 RMS(Cart)=  0.00174826 RMS(Int)=  0.00628601
 SLEqS3 Cycle:    29 Max:0.363251E-01 RMS:0.669440E-02 Conv:0.825462E-05
 Iteration 46 RMS(Cart)=  0.00215665 RMS(Int)=  0.00640405
 SLEqS3 Cycle:    29 Max:0.363645E-01 RMS:0.670617E-02 Conv:0.111720E-04
 Iteration 47 RMS(Cart)=  0.00063029 RMS(Int)=  0.00636919
 SLEqS3 Cycle:   901 Max:0.364564E-01 RMS:0.670898E-02 Conv:0.147849E-05
 SLEqS3 Cycle:   901 Max:0.365600E-01 RMS:0.670387E-02 Conv:0.147849E-05
 Iteration 48 RMS(Cart)=  0.00175436 RMS(Int)=  0.00627406
 SLEqS3 Cycle:    29 Max:0.363746E-01 RMS:0.670348E-02 Conv:0.913917E-05
 Iteration 49 RMS(Cart)=  0.00238939 RMS(Int)=  0.00640473
 SLEqS3 Cycle:    29 Max:0.363818E-01 RMS:0.670831E-02 Conv:0.148698E-04
 Iteration 50 RMS(Cart)=  0.00070899 RMS(Int)=  0.00636550
 SLEqS3 Cycle:   901 Max:0.365062E-01 RMS:0.671491E-02 Conv:0.180232E-05
 SLEqS3 Cycle:   901 Max:0.366080E-01 RMS:0.671168E-02 Conv:0.180232E-05
 Iteration 51 RMS(Cart)=  0.00176615 RMS(Int)=  0.00626975
 SLEqS3 Cycle:   901 Max:0.428342E-01 RMS:0.674886E-02 Conv:0.195367E-04
 SLEqS3 Cycle:   105 Max:0.365943E-01 RMS: 2.70183     Conv:0.195367E-04
 Iteration 52 RMS(Cart)=  0.00003782 RMS(Int)=  0.00626908
 SLEqS3 Cycle:   901 Max:0.366250E-01 RMS:0.670246E-02 Conv:0.550361E-07
 SLEqS3 Cycle:   901 Max:0.369119E-01 RMS:0.669919E-02 Conv:0.550361E-07
 Iteration 53 RMS(Cart)=  0.00275581 RMS(Int)=  0.00612311
 SLEqS3 Cycle:    30 Max:0.370678E-01 RMS: 2.78541     Conv:0.201277E-04
 Iteration 54 RMS(Cart)=  0.00110189 RMS(Int)=  0.00606674
 SLEqS3 Cycle:    29 Max:0.371751E-01 RMS:0.669137E-02 Conv:0.277048E-05
 Iteration 55 RMS(Cart)=  0.00076660 RMS(Int)=  0.00603063
 SLEqS3 Cycle:    15 Max:0.373125E-01 RMS:0.172301     Conv:0.125404E-05
 Iteration 56 RMS(Cart)=  0.00120592 RMS(Int)=  0.00597386
 SLEqS3 Cycle:   901 Max:0.374947E-01 RMS:0.669885E-02 Conv:0.315333E-05
 SLEqS3 Cycle:   901 Max:0.374951E-01 RMS:0.669888E-02 Conv:0.315333E-05
 Iteration 57 RMS(Cart)=  0.00144577 RMS(Int)=  0.00590713
 SLEqS3 Cycle:    29 Max:0.376149E-01 RMS:0.670636E-02 Conv:0.155561E-04
 Iteration 58 RMS(Cart)=  0.00077981 RMS(Int)=  0.00587128
 SLEqS3 Cycle:   901 Max:0.377644E-01 RMS:0.670750E-02 Conv:0.176107E-05
 SLEqS3 Cycle:   901 Max:0.377635E-01 RMS:0.670745E-02 Conv:0.176107E-05
 Iteration 59 RMS(Cart)=  0.00128087 RMS(Int)=  0.00581405
 SLEqS3 Cycle:    29 Max:0.378726E-01 RMS:0.671154E-02 Conv:0.119707E-04
 Iteration 60 RMS(Cart)=  0.00092992 RMS(Int)=  0.00577380
 SLEqS3 Cycle:   901 Max:0.380097E-01 RMS:0.671377E-02 Conv:0.502577E-05
 SLEqS3 Cycle:   104 Max:0.378656E-01 RMS:0.671376E-02 Conv:0.502577E-05
 Iteration 61 RMS(Cart)=  0.00000892 RMS(Int)=  0.00577394
 SLEqS3 Cycle:   901 Max:0.378463E-01 RMS:0.670578E-02 Conv:0.343033E-07
 SLEqS3 Cycle:   901 Max:0.378904E-01 RMS:0.670821E-02 Conv:0.343033E-07
 Iteration 62 RMS(Cart)=  0.00001630 RMS(Int)=  0.00577339
 SLEqS3 Cycle:   901 Max:0.381188E-01 RMS:0.672421E-02 Conv:0.638033E-07
 SLEqS3 Cycle:   901 Max:0.378880E-01 RMS:0.670788E-02 Conv:0.638033E-07
 Iteration 63 RMS(Cart)=  0.00001393 RMS(Int)=  0.00577383
 SLEqS3 Cycle:   901 Max:0.379075E-01 RMS:0.670898E-02 Conv:0.639336E-07
 SLEqS3 Cycle:   901 Max:0.379190E-01 RMS:0.670976E-02 Conv:0.639336E-07
 Iteration 64 RMS(Cart)=  0.00026557 RMS(Int)=  0.00576250
 SLEqS3 Cycle:   901 Max:0.378827E-01 RMS:0.670523E-02 Conv:0.362029E-07
 SLEqS3 Cycle:   901 Max:0.378211E-01 RMS:0.670260E-02 Conv:0.362029E-07
 Iteration 65 RMS(Cart)=  0.00074188 RMS(Int)=  0.00579508
 SLEqS3 Cycle:   901 Max:0.380122E-01 RMS:0.672383E-02 Conv:0.234726E-05
 SLEqS3 Cycle:   901 Max:0.380057E-01 RMS:0.672263E-02 Conv:0.234726E-05
 Iteration 66 RMS(Cart)=  0.00119503 RMS(Int)=  0.00574335
 SLEqS3 Cycle:    44 Max:0.380821E-01 RMS:0.672054E-02 Conv:0.554606E-05
 Iteration 67 RMS(Cart)=  0.00101036 RMS(Int)=  0.00570191
 SLEqS3 Cycle:   901 Max:0.382951E-01 RMS:0.674261E-02 Conv:0.206080E-05
 SLEqS3 Cycle:   901 Max:0.382958E-01 RMS:0.674269E-02 Conv:0.206080E-05
 Iteration 68 RMS(Cart)=  0.00111315 RMS(Int)=  0.00565793
 SLEqS3 Cycle:    29 Max:0.383711E-01 RMS:0.675337E-02 Conv:0.128792E-04
 Iteration 69 RMS(Cart)=  0.00052327 RMS(Int)=  0.00563768
 SLEqS3 Cycle:   901 Max:0.384352E-01 RMS:0.674476E-02 Conv:0.181976E-05
 SLEqS3 Cycle:   901 Max:0.384417E-01 RMS:0.674551E-02 Conv:0.181976E-05
 Iteration 70 RMS(Cart)=  0.00102403 RMS(Int)=  0.00559917
 SLEqS3 Cycle:    29 Max:0.385399E-01 RMS:0.676803E-02 Conv:0.593098E-05
 Iteration 71 RMS(Cart)=  0.00028731 RMS(Int)=  0.00558864
 SLEqS3 Cycle:   901 Max:0.385992E-01 RMS:0.675896E-02 Conv:0.782525E-06
 SLEqS3 Cycle:   901 Max:0.386039E-01 RMS:0.675953E-02 Conv:0.782525E-06
 Iteration 72 RMS(Cart)=  0.00089928 RMS(Int)=  0.00555644
 SLEqS3 Cycle:    15 Max:0.386836E-01 RMS:0.608536     Conv:0.439371E-05
 Iteration 73 RMS(Cart)=  0.00023904 RMS(Int)=  0.00554808
 SLEqS3 Cycle:   901 Max:0.387009E-01 RMS:0.677341E-02 Conv:0.362167E-06
 SLEqS3 Cycle:   901 Max:0.387996E-01 RMS:0.678540E-02 Conv:0.362167E-06
 Iteration 74 RMS(Cart)=  0.00073165 RMS(Int)=  0.00552300
 SLEqS3 Cycle:   901 Max:0.388771E-01 RMS:0.678917E-02 Conv:0.432580E-05
 SLEqS3 Cycle:   901 Max:0.388763E-01 RMS:0.678906E-02 Conv:0.432580E-05
 Iteration 75 RMS(Cart)=  0.00090727 RMS(Int)=  0.00549301
 SLEqS3 Cycle:    29 Max:0.389157E-01 RMS:0.680016E-02 Conv:0.558041E-05
 Iteration 76 RMS(Cart)=  0.00028816 RMS(Int)=  0.00548374
 SLEqS3 Cycle:   901 Max:0.390845E-01 RMS:0.681740E-02 Conv:0.220283E-06
 SLEqS3 Cycle:   901 Max:0.391399E-01 RMS:0.682511E-02 Conv:0.220283E-06
 Iteration 77 RMS(Cart)=  0.00136433 RMS(Int)=  0.00544166
 SLEqS3 Cycle:    15 Max:0.392574E-01 RMS: 1.15685     Conv:0.833540E-05
 Iteration 78 RMS(Cart)=  0.00048228 RMS(Int)=  0.00542751
 SLEqS3 Cycle:   901 Max:0.387482E-01 RMS:0.677476E-02 Conv:0.224345E-05
 SLEqS3 Cycle:   901 Max:0.392763E-01 RMS:0.683631E-02 Conv:0.224345E-05
 Iteration 79 RMS(Cart)=  0.00075532 RMS(Int)=  0.00540613
 SLEqS3 Cycle:    29 Max:0.393168E-01 RMS:0.685140E-02 Conv:0.484784E-05
 Iteration 80 RMS(Cart)=  0.00016791 RMS(Int)=  0.00540146
 SLEqS3 Cycle:   901 Max:0.395145E-01 RMS:0.687724E-02 Conv:0.306544E-06
 SLEqS3 Cycle:   901 Max:0.395411E-01 RMS:0.688126E-02 Conv:0.306544E-06
 Iteration 81 RMS(Cart)=  0.00104666 RMS(Int)=  0.00537341
 SLEqS3 Cycle:    29 Max:0.394438E-01 RMS:0.687820E-02 Conv:0.105895E-04
 Iteration 82 RMS(Cart)=  0.00059622 RMS(Int)=  0.00535829
 SLEqS3 Cycle:   901 Max:0.396240E-01 RMS:0.688479E-02 Conv:0.144291E-05
 SLEqS3 Cycle:   901 Max:0.396347E-01 RMS:0.688675E-02 Conv:0.144291E-05
 Iteration 83 RMS(Cart)=  0.00062076 RMS(Int)=  0.00534316
 SLEqS3 Cycle:    29 Max:0.396715E-01 RMS:0.690203E-02 Conv:0.463173E-05
 Iteration 84 RMS(Cart)=  0.00012755 RMS(Int)=  0.00534011
 SLEqS3 Cycle:   901 Max:0.397469E-01 RMS:0.690456E-02 Conv:0.496950E-06
 SLEqS3 Cycle:   901 Max:0.397474E-01 RMS:0.690440E-02 Conv:0.496950E-06
 Iteration 85 RMS(Cart)=  0.00050701 RMS(Int)=  0.00532828
 SLEqS3 Cycle:   901 Max:0.397428E-01 RMS:0.690007E-02 Conv:0.105244E-06
 SLEqS3 Cycle:   901 Max:0.398947E-01 RMS:0.692807E-02 Conv:0.105244E-06
 Iteration 86 RMS(Cart)=  0.00137180 RMS(Int)=  0.00529787
 SLEqS3 Cycle:    29 Max:0.399439E-01 RMS:0.693688E-02 Conv:0.795929E-05
 Iteration 87 RMS(Cart)=  0.00036977 RMS(Int)=  0.00529032
 SLEqS3 Cycle:   901 Max:0.400315E-01 RMS:0.694695E-02 Conv:0.185612E-06
slurmstepd: error: *** JOB 27448835 ON lewis4-r630-hpc4-node670 CANCELLED AT 2023-05-20T20:05:39 ***
