### Starting Gaussian ###
 Entering Gaussian System, Link 0=g16
 Initial command:
 /cluster/software/gaussian/gaussian-16-A.03/avx2/g16/l1.exe "/local/scratch/cz9n3/Gau-26091.inp" -scrdir="/local/scratch/cz9n3/"
 Entering Link 1 = /cluster/software/gaussian/gaussian-16-A.03/avx2/g16/l1.exe PID=     26092.
  
 Copyright (c) 1988,1990,1992,1993,1995,1998,2003,2009,2016,
            Gaussian, Inc.  All Rights Reserved.
  
 This is part of the Gaussian(R) 16 program.  It is based on
 the Gaussian(R) 09 system (copyright 2009, Gaussian, Inc.),
 the Gaussian(R) 03 system (copyright 2003, Gaussian, Inc.),
 the Gaussian(R) 98 system (copyright 1998, Gaussian, Inc.),
 the Gaussian(R) 94 system (copyright 1995, Gaussian, Inc.),
 the Gaussian 92(TM) system (copyright 1992, Gaussian, Inc.),
 the Gaussian 90(TM) system (copyright 1990, Gaussian, Inc.),
 the Gaussian 88(TM) system (copyright 1988, Gaussian, Inc.),
 the Gaussian 86(TM) system (copyright 1986, Carnegie Mellon
 University), and the Gaussian 82(TM) system (copyright 1983,
 Carnegie Mellon University). Gaussian is a federally registered
 trademark of Gaussian, Inc.
  
 This software contains proprietary and confidential information,
 including trade secrets, belonging to Gaussian, Inc.
  
 This software is provided under written license and may be
 used, copied, transmitted, or stored only in accord with that
 written license.
  
 The following legend is applicable only to US Government
 contracts under FAR:
  
                    RESTRICTED RIGHTS LEGEND
  
 Use, reproduction and disclosure by the US Government is
 subject to restrictions as set forth in subparagraphs (a)
 and (c) of the Commercial Computer Software - Restricted
 Rights clause in FAR 52.227-19.
  
 Gaussian, Inc.
 340 Quinnipiac St., Bldg. 40, Wallingford CT 06492
  
  
 ---------------------------------------------------------------
 Warning -- This program may not be used in any manner that
 competes with the business of Gaussian, Inc. or will provide
 assistance to any competitor of Gaussian, Inc.  The licensee
 of this program is prohibited from giving any competitor of
 Gaussian, Inc. access to this program.  By using this program,
 the user acknowledges that Gaussian, Inc. is engaged in the
 business of creating and licensing software in the field of
 computational chemistry and represents and warrants to the
 licensee that it is not a competitor of Gaussian, Inc. and that
 it will not use this program in any manner prohibited above.
 ---------------------------------------------------------------
  

 Cite this work as:
 Gaussian 16, Revision A.03,
 M. J. Frisch, G. W. Trucks, H. B. Schlegel, G. E. Scuseria, 
 M. A. Robb, J. R. Cheeseman, G. Scalmani, V. Barone, 
 G. A. Petersson, H. Nakatsuji, X. Li, M. Caricato, A. V. Marenich, 
 J. Bloino, B. G. Janesko, R. Gomperts, B. Mennucci, H. P. Hratchian, 
 J. V. Ortiz, A. F. Izmaylov, J. L. Sonnenberg, D. Williams-Young, 
 F. Ding, F. Lipparini, F. Egidi, J. Goings, B. Peng, A. Petrone, 
 T. Henderson, D. Ranasinghe, V. G. Zakrzewski, J. Gao, N. Rega, 
 G. Zheng, W. Liang, M. Hada, M. Ehara, K. Toyota, R. Fukuda, 
 J. Hasegawa, M. Ishida, T. Nakajima, Y. Honda, O. Kitao, H. Nakai, 
 T. Vreven, K. Throssell, J. A. Montgomery, Jr., J. E. Peralta, 
 F. Ogliaro, M. J. Bearpark, J. J. Heyd, E. N. Brothers, K. N. Kudin, 
 V. N. Staroverov, T. A. Keith, R. Kobayashi, J. Normand, 
 K. Raghavachari, A. P. Rendell, J. C. Burant, S. S. Iyengar, 
 J. Tomasi, M. Cossi, J. M. Millam, M. Klene, C. Adamo, R. Cammi, 
 J. W. Ochterski, R. L. Martin, K. Morokuma, O. Farkas, 
 J. B. Foresman, and D. J. Fox, Gaussian, Inc., Wallingford CT, 2016.
 
 ******************************************
 Gaussian 16:  ES64L-G16RevA.03 25-Dec-2016
                19-May-2023 
 ******************************************
 %chk=OOCC1dNCdCCdCCdCNNNNNN1.chk
 %NProcShared=20
 Will use up to   20 processors via shared memory.
 -----------------------------
 # opt freq b3lyp/6-31g(2df,p)
 -----------------------------
 1/18=20,19=15,26=3,38=1/1,3;
 2/9=110,12=2,17=6,18=5,40=1/2;
 3/5=1,6=6,7=104,11=2,25=1,30=1,71=1,74=-5/1,2,3;
 4//1;
 5/5=2,38=5/2;
 6/7=2,8=2,9=2,10=2,28=1/1;
 7//1,2,3,16;
 1/18=20,19=15,26=3/3(2);
 2/9=110/2;
 99//99;
 2/9=110/2;
 3/5=1,6=6,7=104,11=2,25=1,30=1,71=1,74=-5/1,2,3;
 4/5=5,16=3,69=1/1;
 5/5=2,38=5/2;
 7//1,2,3,16;
 1/18=20,19=15,26=3/3(-5);
 2/9=110/2;
 6/7=2,8=2,9=2,10=2,19=2,28=1/1;
 99/9=1/99;
 -------------------
 Title Card Required
 -------------------
 Symbolic Z-matrix:
 Charge =  0 Multiplicity = 1
 O                     1.27749  -0.15567  -0.20341 
 O                     3.26588  -0.11747  -0.3132 
 C                     4.77067  -0.55941  -1.63183 
 C                     6.85732  -0.52988  -2.57878 
 N                     5.77467  -1.44523  -2.4084 
 C                     6.72798  -2.15591  -2.01346 
 C                     7.13817  -2.63545  -3.17523 
 C                     8.50451  -2.89268  -3.14994 
 C                     9.13611  -3.00811  -4.27568 
 C                     10.48793  -3.29628  -3.98464 
 C                     11.22961  -3.71534  -5.00035 
 N                     12.55899  -4.06086  -4.74871 
 N                     13.52382  -4.30772  -6.064 
 N                     14.4838  -3.43884  -5.38361 
 N                     12.91205  -2.06837  -5.2937 
 N                     11.00294  -1.2709   -4.19002 
 N                     9.0359   -0.88003  -3.14029 
 H                     0.83224   0.36697   0.66597 
 H                     3.3522   -0.39237  -2.10554 
 H                     3.56803  -1.54057  -1.34583 
 H                     7.38244  -1.69701  -1.12469 
 H                     6.42632  -2.62057  -4.00381 
 H                     9.42829  -2.57742  -2.48171 
 H                     8.59277  -3.26856  -5.10622 
 H                     11.03259  -2.63739  -2.95978 
 H                     10.83065  -3.91883  -5.9812 
 H                     13.12428  -3.39232  -4.01699 
 H                     13.16462  -3.75809  -6.95953 
 H                     15.15141  -4.24019  -4.80468 
 H                     13.81304  -2.80005  -6.23033 
 H                     12.29657  -1.98992  -4.14409 
 H                     8.94996  -0.74066  -1.90743 
 
 Add virtual bond connecting atoms H32        and N17        Dist= 2.35D+00.
 Add virtual bond connecting atoms H30        and N14        Dist= 2.37D+00.
 Add virtual bond connecting atoms H30        and H28        Dist= 2.58D+00.
 Add virtual bond connecting atoms H31        and N15        Dist= 2.47D+00.
 Add virtual bond connecting atoms H25        and C10        Dist= 2.52D+00.
 Add virtual bond connecting atoms H20        and H19        Dist= 2.63D+00.
 Add virtual bond connecting atoms H31        and N16        Dist= 2.80D+00.
 Add virtual bond connecting atoms H27        and H31        Dist= 3.09D+00.
 Add virtual bond connecting atoms H30        and N15        Dist= 2.82D+00.
 Add virtual bond connecting atoms H19        and C3         Dist= 2.84D+00.
 Add virtual bond connecting atoms H20        and C3         Dist= 2.98D+00.
 Add virtual bond connecting atoms H19        and O2         Dist= 3.43D+00.
 Add virtual bond connecting atoms H20        and O2         Dist= 3.37D+00.
 Add virtual bond connecting atoms H21        and H32        Dist= 3.77D+00.
 Add virtual bond connecting atoms H23        and N17        Dist= 3.52D+00.
 Add virtual bond connecting atoms H23        and H32        Dist= 3.75D+00.
 Add virtual bond connecting atoms O2         and O1         Dist= 3.76D+00.

 GradGradGradGradGradGradGradGradGradGradGradGradGradGradGradGradGradGrad
 Berny optimization.
 Initialization pass.
                           ----------------------------
                           !    Initial Parameters    !
                           ! (Angstroms and Degrees)  !
 --------------------------                            --------------------------
 ! Name  Definition              Value          Derivative Info.                !
 --------------------------------------------------------------------------------
 ! R1    R(1,2)                  1.9918         estimate D2E/DX2                !
 ! R2    R(1,18)                 1.1078         estimate D2E/DX2                !
 ! R3    R(2,19)                 1.8154         estimate D2E/DX2                !
 ! R4    R(2,20)                 1.784          estimate D2E/DX2                !
 ! R5    R(3,5)                  1.5478         estimate D2E/DX2                !
 ! R6    R(3,19)                 1.5048         estimate D2E/DX2                !
 ! R7    R(3,20)                 1.5782         estimate D2E/DX2                !
 ! R8    R(4,5)                  1.4279         estimate D2E/DX2                !
 ! R9    R(4,6)                  1.7264         estimate D2E/DX2                !
 ! R10   R(5,6)                  1.2529         estimate D2E/DX2                !
 ! R11   R(6,7)                  1.3221         estimate D2E/DX2                !
 ! R12   R(6,21)                 1.1953         estimate D2E/DX2                !
 ! R13   R(7,8)                  1.3906         estimate D2E/DX2                !
 ! R14   R(7,22)                 1.0925         estimate D2E/DX2                !
 ! R15   R(8,9)                  1.296          estimate D2E/DX2                !
 ! R16   R(8,23)                 1.1829         estimate D2E/DX2                !
 ! R17   R(9,10)                 1.4125         estimate D2E/DX2                !
 ! R18   R(9,24)                 1.0261         estimate D2E/DX2                !
 ! R19   R(10,11)                1.3257         estimate D2E/DX2                !
 ! R20   R(10,25)                1.3346         estimate D2E/DX2                !
 ! R21   R(11,12)                1.3964         estimate D2E/DX2                !
 ! R22   R(11,26)                1.0783         estimate D2E/DX2                !
 ! R23   R(12,13)                1.6498         estimate D2E/DX2                !
 ! R24   R(12,27)                1.141          estimate D2E/DX2                !
 ! R25   R(13,14)                1.4627         estimate D2E/DX2                !
 ! R26   R(13,28)                1.1104         estimate D2E/DX2                !
 ! R27   R(14,29)                1.1929         estimate D2E/DX2                !
 ! R28   R(14,30)                1.255          estimate D2E/DX2                !
 ! R29   R(15,30)                1.4914         estimate D2E/DX2                !
 ! R30   R(15,31)                1.3064         estimate D2E/DX2                !
 ! R31   R(16,31)                1.4807         estimate D2E/DX2                !
 ! R32   R(17,23)                1.8625         estimate D2E/DX2                !
 ! R33   R(17,32)                1.2437         estimate D2E/DX2                !
 ! R34   R(19,20)                1.3936         estimate D2E/DX2                !
 ! R35   R(21,32)                1.9961         estimate D2E/DX2                !
 ! R36   R(23,32)                1.983          estimate D2E/DX2                !
 ! R37   R(27,31)                1.6334         estimate D2E/DX2                !
 ! R38   R(28,30)                1.3675         estimate D2E/DX2                !
 ! A1    A(2,1,18)             115.8138         estimate D2E/DX2                !
 ! A2    A(1,2,19)              95.6809         estimate D2E/DX2                !
 ! A3    A(1,2,20)             100.7008         estimate D2E/DX2                !
 ! A4    A(5,3,19)             121.1336         estimate D2E/DX2                !
 ! A5    A(5,3,20)             103.2626         estimate D2E/DX2                !
 ! A6    A(3,5,4)              100.6498         estimate D2E/DX2                !
 ! A7    A(3,5,6)              131.3002         estimate D2E/DX2                !
 ! A8    A(4,6,7)               91.7555         estimate D2E/DX2                !
 ! A9    A(4,6,21)              80.8431         estimate D2E/DX2                !
 ! A10   A(5,6,7)               99.4863         estimate D2E/DX2                !
 ! A11   A(5,6,21)             115.6704         estimate D2E/DX2                !
 ! A12   A(7,6,21)             128.5172         estimate D2E/DX2                !
 ! A13   A(6,7,8)              110.8526         estimate D2E/DX2                !
 ! A14   A(6,7,22)             117.3465         estimate D2E/DX2                !
 ! A15   A(8,7,22)             131.0376         estimate D2E/DX2                !
 ! A16   A(7,8,9)              118.6556         estimate D2E/DX2                !
 ! A17   A(7,8,23)             136.7441         estimate D2E/DX2                !
 ! A18   A(9,8,23)              97.6917         estimate D2E/DX2                !
 ! A19   A(8,9,10)             107.7949         estimate D2E/DX2                !
 ! A20   A(8,9,24)             117.8816         estimate D2E/DX2                !
 ! A21   A(10,9,24)            128.4457         estimate D2E/DX2                !
 ! A22   A(9,10,11)            116.2358         estimate D2E/DX2                !
 ! A23   A(9,10,25)            116.6207         estimate D2E/DX2                !
 ! A24   A(11,10,25)           121.0719         estimate D2E/DX2                !
 ! A25   A(10,11,12)           118.2143         estimate D2E/DX2                !
 ! A26   A(10,11,26)           123.3412         estimate D2E/DX2                !
 ! A27   A(12,11,26)           118.0001         estimate D2E/DX2                !
 ! A28   A(11,12,13)           116.7503         estimate D2E/DX2                !
 ! A29   A(11,12,27)           116.2465         estimate D2E/DX2                !
 ! A30   A(13,12,27)           108.0111         estimate D2E/DX2                !
 ! A31   A(12,13,14)            85.6464         estimate D2E/DX2                !
 ! A32   A(12,13,28)           112.3157         estimate D2E/DX2                !
 ! A33   A(14,13,28)           107.0624         estimate D2E/DX2                !
 ! A34   A(13,14,29)           101.1868         estimate D2E/DX2                !
 ! A35   A(13,14,30)            68.7603         estimate D2E/DX2                !
 ! A36   A(30,15,31)           150.0805         estimate D2E/DX2                !
 ! A37   A(2,19,3)              75.571          estimate D2E/DX2                !
 ! A38   A(2,20,3)              74.8138         estimate D2E/DX2                !
 ! A39   A(6,21,32)            108.8037         estimate D2E/DX2                !
 ! A40   A(8,23,17)             83.0275         estimate D2E/DX2                !
 ! A41   A(8,23,32)            102.8312         estimate D2E/DX2                !
 ! A42   A(12,27,31)           101.6599         estimate D2E/DX2                !
 ! A43   A(13,28,30)            76.3108         estimate D2E/DX2                !
 ! A44   A(14,30,15)            98.5625         estimate D2E/DX2                !
 ! A45   A(14,30,28)           104.869          estimate D2E/DX2                !
 ! A46   A(15,30,28)           113.0867         estimate D2E/DX2                !
 ! A47   A(15,31,16)           114.4231         estimate D2E/DX2                !
 ! A48   A(15,31,27)            77.1834         estimate D2E/DX2                !
 ! A49   A(16,31,27)           149.5458         estimate D2E/DX2                !
 ! A50   A(17,32,21)           112.9107         estimate D2E/DX2                !
 ! A51   A(21,32,23)            81.9065         estimate D2E/DX2                !
 ! A52   L(29,14,30,13,-1)     169.947          estimate D2E/DX2                !
 ! A53   L(29,14,30,13,-2)     190.7818         estimate D2E/DX2                !
 ! D1    D(18,1,2,19)         -156.6264         estimate D2E/DX2                !
 ! D2    D(18,1,2,20)          157.5952         estimate D2E/DX2                !
 ! D3    D(1,2,19,3)          -169.0707         estimate D2E/DX2                !
 ! D4    D(1,2,20,3)           151.2341         estimate D2E/DX2                !
 ! D5    D(19,3,5,4)           127.3565         estimate D2E/DX2                !
 ! D6    D(19,3,5,6)          -146.814          estimate D2E/DX2                !
 ! D7    D(20,3,5,4)          -177.2892         estimate D2E/DX2                !
 ! D8    D(20,3,5,6)           -91.4598         estimate D2E/DX2                !
 ! D9    D(5,3,19,2)           153.4739         estimate D2E/DX2                !
 ! D10   D(20,3,19,2)           69.8673         estimate D2E/DX2                !
 ! D11   D(5,3,20,2)           167.442          estimate D2E/DX2                !
 ! D12   D(3,5,6,7)            179.3018         estimate D2E/DX2                !
 ! D13   D(3,5,6,21)           -39.361          estimate D2E/DX2                !
 ! D14   D(4,6,7,8)             95.8786         estimate D2E/DX2                !
 ! D15   D(4,6,7,22)           -75.223          estimate D2E/DX2                !
 ! D16   D(5,6,7,8)            150.1695         estimate D2E/DX2                !
 ! D17   D(5,6,7,22)           -20.9321         estimate D2E/DX2                !
 ! D18   D(21,6,7,8)            16.1956         estimate D2E/DX2                !
 ! D19   D(21,6,7,22)         -154.906          estimate D2E/DX2                !
 ! D20   D(4,6,21,32)          -51.0727         estimate D2E/DX2                !
 ! D21   D(5,6,21,32)          -94.2013         estimate D2E/DX2                !
 ! D22   D(7,6,21,32)           33.842          estimate D2E/DX2                !
 ! D23   D(6,7,8,9)           -161.1643         estimate D2E/DX2                !
 ! D24   D(6,7,8,23)           -17.7101         estimate D2E/DX2                !
 ! D25   D(22,7,8,9)             8.3403         estimate D2E/DX2                !
 ! D26   D(22,7,8,23)          151.7945         estimate D2E/DX2                !
 ! D27   D(7,8,9,10)          -178.6241         estimate D2E/DX2                !
 ! D28   D(7,8,9,24)           -23.3135         estimate D2E/DX2                !
 ! D29   D(23,8,9,10)           25.6909         estimate D2E/DX2                !
 ! D30   D(23,8,9,24)         -178.9985         estimate D2E/DX2                !
 ! D31   D(7,8,23,17)          -64.4266         estimate D2E/DX2                !
 ! D32   D(7,8,23,32)          -32.2893         estimate D2E/DX2                !
 ! D33   D(9,8,23,17)           83.7518         estimate D2E/DX2                !
 ! D34   D(9,8,23,32)          115.8891         estimate D2E/DX2                !
 ! D35   D(8,9,10,11)          166.7335         estimate D2E/DX2                !
 ! D36   D(8,9,10,25)          -40.3134         estimate D2E/DX2                !
 ! D37   D(24,9,10,11)          14.8596         estimate D2E/DX2                !
 ! D38   D(24,9,10,25)         167.8126         estimate D2E/DX2                !
 ! D39   D(9,10,11,12)        -177.6004         estimate D2E/DX2                !
 ! D40   D(9,10,11,26)          -5.4141         estimate D2E/DX2                !
 ! D41   D(25,10,11,12)         30.7338         estimate D2E/DX2                !
 ! D42   D(25,10,11,26)       -157.0798         estimate D2E/DX2                !
 ! D43   D(10,11,12,13)       -169.0467         estimate D2E/DX2                !
 ! D44   D(10,11,12,27)        -39.657          estimate D2E/DX2                !
 ! D45   D(26,11,12,13)         18.3439         estimate D2E/DX2                !
 ! D46   D(26,11,12,27)        147.7336         estimate D2E/DX2                !
 ! D47   D(11,12,13,14)        132.0022         estimate D2E/DX2                !
 ! D48   D(11,12,13,28)         25.3335         estimate D2E/DX2                !
 ! D49   D(27,12,13,14)         -1.2048         estimate D2E/DX2                !
 ! D50   D(27,12,13,28)       -107.8736         estimate D2E/DX2                !
 ! D51   D(11,12,27,31)        -24.6637         estimate D2E/DX2                !
 ! D52   D(13,12,27,31)        108.8095         estimate D2E/DX2                !
 ! D53   D(12,13,14,29)         93.26           estimate D2E/DX2                !
 ! D54   D(12,13,14,30)        -97.5217         estimate D2E/DX2                !
 ! D55   D(28,13,14,29)       -154.7172         estimate D2E/DX2                !
 ! D56   D(28,13,14,30)         14.5011         estimate D2E/DX2                !
 ! D57   D(12,13,28,30)         79.5654         estimate D2E/DX2                !
 ! D58   D(14,13,28,30)        -12.7352         estimate D2E/DX2                !
 ! D59   D(13,14,30,15)        105.1579         estimate D2E/DX2                !
 ! D60   D(13,14,30,28)        -11.6023         estimate D2E/DX2                !
 ! D61   D(31,15,30,14)        -26.7588         estimate D2E/DX2                !
 ! D62   D(31,15,30,28)         83.5008         estimate D2E/DX2                !
 ! D63   D(30,15,31,16)       -148.7218         estimate D2E/DX2                !
 ! D64   D(30,15,31,27)          1.4632         estimate D2E/DX2                !
 ! D65   D(6,21,32,17)          -5.6397         estimate D2E/DX2                !
 ! D66   D(6,21,32,23)         -65.1752         estimate D2E/DX2                !
 ! D67   D(8,23,32,21)          59.6218         estimate D2E/DX2                !
 ! D68   D(12,27,31,15)        -70.3405         estimate D2E/DX2                !
 ! D69   D(12,27,31,16)         46.3834         estimate D2E/DX2                !
 ! D70   D(13,28,30,14)         14.7224         estimate D2E/DX2                !
 ! D71   D(13,28,30,15)        -91.5755         estimate D2E/DX2                !
 --------------------------------------------------------------------------------
 Trust Radius=3.00D-01 FncErr=1.00D-07 GrdErr=1.00D-06 EigMax=2.50D+02 EigMin=1.00D-04
 Number of steps in this run=    172 maximum allowed number of steps=    192.
 GradGradGradGradGradGradGradGradGradGradGradGradGradGradGradGradGradGrad

                          Input orientation:                          
 ---------------------------------------------------------------------
 Center     Atomic      Atomic             Coordinates (Angstroms)
 Number     Number       Type             X           Y           Z
 ---------------------------------------------------------------------
      1          8           0        1.277490   -0.155670   -0.203410
      2          8           0        3.265880   -0.117470   -0.313200
      3          6           0        4.770670   -0.559410   -1.631830
      4          6           0        6.857320   -0.529880   -2.578780
      5          7           0        5.774670   -1.445230   -2.408400
      6          6           0        6.727980   -2.155910   -2.013460
      7          6           0        7.138170   -2.635450   -3.175230
      8          6           0        8.504510   -2.892680   -3.149940
      9          6           0        9.136110   -3.008110   -4.275680
     10          6           0       10.487930   -3.296280   -3.984640
     11          6           0       11.229610   -3.715340   -5.000350
     12          7           0       12.558990   -4.060860   -4.748710
     13          7           0       13.523820   -4.307720   -6.064000
     14          7           0       14.483800   -3.438840   -5.383610
     15          7           0       12.912050   -2.068370   -5.293700
     16          7           0       11.002940   -1.270900   -4.190020
     17          7           0        9.035900   -0.880030   -3.140290
     18          1           0        0.832240    0.366970    0.665970
     19          1           0        3.352200   -0.392370   -2.105540
     20          1           0        3.568030   -1.540570   -1.345830
     21          1           0        7.382440   -1.697010   -1.124690
     22          1           0        6.426320   -2.620570   -4.003810
     23          1           0        9.428290   -2.577420   -2.481710
     24          1           0        8.592770   -3.268560   -5.106220
     25          1           0       11.032590   -2.637390   -2.959780
     26          1           0       10.830650   -3.918830   -5.981200
     27          1           0       13.124280   -3.392320   -4.016990
     28          1           0       13.164620   -3.758090   -6.959530
     29          1           0       15.151410   -4.240190   -4.804680
     30          1           0       13.813040   -2.800050   -6.230330
     31          1           0       12.296570   -1.989920   -4.144090
     32          1           0        8.949960   -0.740660   -1.907430
 ---------------------------------------------------------------------
                    Distance matrix (angstroms):
                    1          2          3          4          5
     1  O    0.000000
     2  O    1.991785   0.000000
     3  C    3.795484   2.049021   0.000000
     4  C    6.075929   4.266307   2.291658   0.000000
     5  N    5.171999   3.528008   1.547822   1.427945   0.000000
     6  C    6.081536   4.362598   2.554509   1.726351   1.252934
     7  C    7.023432   5.433790   3.506720   2.206367   1.965651
     8  C    8.270616   6.572072   4.657292   2.936372   3.177581
     9  C    9.299339   7.649617   5.660666   3.770143   4.150736
    10  C   10.439987   8.703006   6.761156   4.776059   5.303370
    11  C   11.607178   9.916403   7.938811   5.926894   6.451974
    12  N   12.774291  11.026603   9.090271   7.048791   7.638427
    13  N   14.197135  12.484199  10.502933   8.417901   9.033636
    14  N   14.560917  12.750776  10.803327   8.630893   9.416756
    15  N   12.842603  11.029959   9.053636   6.811571   7.723694
    16  N   10.569824   8.730534   6.774345   4.509032   5.526244
    17  N    8.327238   6.470477   4.535464   2.276864   3.389799
    18  H    1.107800   2.667594   4.652880   6.901763   6.096182
    19  H    2.824632   1.815352   1.504779   3.539595   2.658684
    20  H    2.910265   1.784050   1.578231   3.655282   2.451001
    21  H    6.363560   4.483250   2.893556   1.937091   2.072735
    22  H    6.857786   5.465756   3.551879   2.566604   2.086002
    23  H    8.802901   6.980622   5.146658   3.288119   3.825724
    24  H    9.340286   7.828037   5.832609   4.110974   4.306327
    25  H   10.436402   8.583482   6.730014   4.692509   5.419501
    26  H   11.781642  10.188342   8.180836   6.232880   6.666823
    27  H   12.859461  11.028633   9.137678   7.038238   7.771453
    28  H   14.139535  12.466470  10.443866   8.330327   8.981841
    29  H   15.176977  13.357995  11.461888   9.354836  10.073590
    30  H   14.158267  12.387544  10.388991   8.177379   9.003226
    31  H   11.845402   9.986749   8.062070   5.845285   6.770856
    32  H    7.881161   5.936219   4.192287   2.207777   3.290875
                    6          7          8          9         10
     6  C    0.000000
     7  C    1.322091   0.000000
     8  C    2.233937   1.390572   0.000000
     9  C    3.412180   2.311197   1.295968   0.000000
    10  C    4.395818   3.508950   2.189423   1.412503   0.000000
    11  C    5.622989   4.608374   3.395137   2.325524   1.325657
    12  N    6.716480   5.821763   4.512152   3.612222   2.336167
    13  N    8.198817   7.205415   5.973906   4.913153   3.816199
    14  N    8.553161   7.712370   6.406206   5.478214   4.236085
    15  N    7.000740   6.176341   4.970071   4.022089   3.016249
    16  N    4.878108   4.222350   3.155010   2.551527   2.099900
    17  N    2.867771   2.585363   2.081641   2.414100   2.942717
    18  H    6.950109   7.970828   9.167890  10.235493  11.326073
    19  H    3.809782   4.528710   5.821393   6.708593   7.929839
    20  H    3.287804   4.158289   5.426956   6.460744   7.611232
    21  H    1.195332   2.268271   2.605821   3.837067   4.514537
    22  H    2.066011   1.092473   2.263186   2.750829   4.117478
    23  H    2.772833   2.393530   1.182916   1.867938   1.974435
    24  H    3.778968   2.499082   1.994018   1.026084   2.202349
    25  H    4.433623   3.900376   2.548043   2.337876   1.334589
    26  H    5.973504   4.811958   3.805252   2.570929   2.119263
    27  H    6.815827   6.092202   4.726911   4.014977   2.638297
    28  H    8.274112   7.204120   6.080998   4.898409   4.028388
    29  H    9.115334   8.333205   6.981062   6.162929   4.828196
    30  H    8.270126   7.342657   6.138230   5.073226   4.042985
    31  H    5.964590   5.288146   4.022814   3.323031   2.236779
    32  H    2.636545   2.912066   2.524569   3.283990   3.634742
                   11         12         13         14         15
    11  C    0.000000
    12  N    1.396409   0.000000
    13  N    2.597242   1.649795   0.000000
    14  N    3.288327   2.120118   1.462684   0.000000
    15  N    2.372587   2.095634   2.445877   2.087264   0.000000
    16  N    2.585208   3.243039   4.369086   4.270949   2.344945
    17  N    4.038709   5.011672   6.359132   6.423364   4.590628
    18  H   12.525084  13.654344  15.106999  15.409306  13.688329
    19  H    9.026386  10.257151  11.595742  11.997468  10.215874
    20  H    8.762702   9.938250  11.359401  11.792418  10.157508
    21  H    5.821951   6.746701   8.302357   8.461778   6.935066
    22  H    5.026252   6.343418   7.580591   8.215619   6.635769
    23  H    3.298964   4.140189   5.709650   5.892474   4.505885
    24  H    2.676518   4.060351   5.129566   5.900015   4.486846
    25  H    2.316186   2.748897   4.316528   4.292799   3.050137
    26  H    1.078260   2.127525   2.722362   3.732695   2.868638
    27  H    2.158961   1.141014   2.277683   1.928240   1.851452
    28  H    2.753993   2.312181   1.110447   2.079827   2.386197
    29  H    3.961599   2.599218   2.059004   1.192906   3.157638
    30  H    3.004117   2.314623   1.544145   1.254953   1.491447
    31  H    2.201967   2.173298   3.250291   2.901681   1.306359
    32  H    4.859185   5.667601   7.135908   7.070176   5.378457
                   16         17         18         19         20
    16  N    0.000000
    17  N    2.263616   0.000000
    18  H   11.388872   9.129220   0.000000
    19  H    7.978139   5.797669   3.822050   0.000000
    20  H    7.964925   5.792582   3.894945   1.393594   0.000000
    21  H    4.762965   2.732038   7.097295   4.348216   3.824016
    22  H    4.775116   3.253468   7.875657   4.244822   4.049825
    23  H    2.665491   1.862480   9.616101   6.467984   6.058707
    24  H    3.261746   3.125111  10.332525   6.688806   6.509569
    25  H    1.838930   2.666021  11.234740   8.047250   7.715407
    26  H    3.201491   4.530585  12.748378   9.131477   8.938032
    27  H    3.005070   4.878018  13.680520  10.399370  10.093859
    28  H    4.304551   6.317923  15.074879  11.453073  11.336911
    29  H    5.138511   7.173586  16.006016  12.700883  12.386536
    30  H    3.794447   6.004656  15.036294  11.499565  11.419495
    31  H    1.480736   3.587679  12.653951   9.311799   9.177123
    32  H    3.115461   1.243685   8.587585   5.612083   5.469956
                   21         22         23         24         25
    21  H    0.000000
    22  H    3.171192   0.000000
    23  H    2.608089   3.366077   0.000000
    24  H    4.448286   2.515692   2.839687   0.000000
    25  H    4.192310   4.723135   1.675090   3.310333   0.000000
    26  H    6.357069   4.999367   4.001553   2.489287   3.288137
    27  H    6.648925   6.742287   4.084298   4.662223   2.462271
    28  H    8.469180   7.445463   5.950211   4.957440   4.668996
    29  H    8.964764   8.910205   6.396491   6.637074   4.789290
    30  H    8.284737   7.717074   5.773019   5.360442   4.295795
    31  H    5.775054   5.905695   3.366852   4.034693   1.849176
    32  H    1.996098   3.781221   1.982999   4.092691   3.007054
                   26         27         28         29         30
    26  H    0.000000
    27  H    3.065301   0.000000
    28  H    2.535820   2.965461   0.000000
    29  H    4.489592   2.334223   2.970376   0.000000
    30  H    3.195056   2.392498   1.367487   2.428521   0.000000
    31  H    3.040491   1.633396   3.436079   3.694618   2.703403
    32  H    5.498487   5.376476   7.238229   7.687571   6.824815
                   31         32
    31  H    0.000000
    32  H    4.214629   0.000000
 Stoichiometry    C8H15N7O2
 Framework group  C1[X(C8H15N7O2)]
 Deg. of freedom    90
 Full point group                 C1      NOp   1
 Largest Abelian subgroup         C1      NOp   1
 Largest concise Abelian subgroup C1      NOp   1
                         Standard orientation:                         
 ---------------------------------------------------------------------
 Center     Atomic      Atomic             Coordinates (Angstroms)
 Number     Number       Type             X           Y           Z
 ---------------------------------------------------------------------
      1          8           0       -8.331710   -0.295699   -0.100797
      2          8           0       -6.551014    0.444901    0.397037
      3          6           0       -4.588116    0.324925   -0.178398
      4          6           0       -2.386446    0.922172   -0.396663
      5          7           0       -3.162799   -0.270364   -0.277669
      6          6           0       -2.293509   -0.485289    0.598680
      7          6           0       -1.344761   -1.008252   -0.159153
      8          6           0       -0.085987   -0.736010    0.365312
      9          6           0        0.946501   -0.839996   -0.411017
     10          6           0        2.095221   -0.546721    0.356834
     11          6           0        3.261242   -0.863435   -0.188559
     12          7           0        4.421086   -0.638505    0.555838
     13          7           0        5.856475   -0.778537   -0.245333
     14          7           0        6.199618    0.501151    0.374423
     15          7           0        4.419530    1.187697   -0.472106
     16          7           0        2.092438    1.438225   -0.328410
     17          7           0       -0.156364    1.287428   -0.118394
     18          1           0       -9.206619    0.193648    0.370685
     19          1           0       -5.690779   -0.140128   -1.090659
     20          1           0       -5.498361   -0.947617    0.028734
     21          1           0       -2.192883    0.353039    1.444789
     22          1           0       -1.645296   -1.425246   -1.123151
     23          1           0        0.376920    0.025428    1.143270
     24          1           0        0.867799   -1.445565   -1.235603
     25          1           0        1.992329    0.460782    1.226018
     26          1           0        3.353981   -1.395201   -1.121977
     27          1           0        4.450134    0.325269    1.165928
     28          1           0        5.750654   -0.594686   -1.335329
     29          1           0        6.768851    0.136955    1.357459
     30          1           0        5.777013    0.661791   -0.796263
     31          1           0        3.401533    1.268912    0.342547
     32          1           0       -0.758240    1.634980    0.912968
 ---------------------------------------------------------------------
 Rotational constants (GHZ):           2.4412083           0.1117343           0.1088913
 Standard basis: 6-31G(2df,p) (6D, 7F)
 There are   602 symmetry adapted cartesian basis functions of A   symmetry.
 There are   551 symmetry adapted basis functions of A   symmetry.
   551 basis functions,   853 primitive gaussians,   602 cartesian basis functions
    64 alpha electrons       64 beta electrons
       nuclear repulsion energy      1113.6401787996 Hartrees.
 NAtoms=   32 NActive=   32 NUniq=   32 SFac= 1.00D+00 NAtFMM=   60 NAOKFM=F Big=F
 Integral buffers will be    131072 words long.
 Raffenetti 2 integral format.
 Two-electron integral symmetry is turned on.
 One-electron integrals computed using PRISM.
 PrsmSu:  requested number of processors reduced to:  12 ShMem   1 Linda.
 NBasis=   551 RedAO= T EigKep=  2.03D-04  NBF=   551
 NBsUse=   551 1.00D-06 EigRej= -1.00D+00 NBFU=   551
 ExpMin= 1.61D-01 ExpMax= 5.48D+03 ExpMxC= 8.25D+02 IAcc=3 IRadAn=         5 AccDes= 0.00D+00
 Harris functional with IExCor=  402 and IRadAn=       5 diagonalized for initial guess.
 HarFok:  IExCor=  402 AccDes= 0.00D+00 IRadAn=         5 IDoV= 1 UseB2=F ITyADJ=14
 ICtDFT=  3500011 ScaDFX=  1.000000  1.000000  1.000000  1.000000
 FoFCou: FMM=F IPFlag=           0 FMFlag=      100000 FMFlg1=           0
         NFxFlg=           0 DoJE=T BraDBF=F KetDBF=T FulRan=T
         wScrn=  0.000000 ICntrl=       500 IOpCl=  0 I1Cent=   200000004 NGrid=           0
         NMat0=    1 NMatS0=      1 NMatT0=    0 NMatD0=    1 NMtDS0=    0 NMtDT0=    0
 Petite list used in FoFCou.
 Requested convergence on RMS density matrix=1.00D-08 within 128 cycles.
 Requested convergence on MAX density matrix=1.00D-06.
 Requested convergence on             energy=1.00D-06.
 No special actions if energy rises.
 Integral accuracy reduced to 1.0D-05 until final iterations.
 Rare condition: small coef for last iteration:  0.000D+00
 EnCoef did   100 forward-backward iterations
 Problem detected with inexpensive integrals.
 Switching to full accuracy and repeating last cycle.
 EnCoef did     2 forward-backward iterations
 EnCoef did   100 forward-backward iterations
 EnCoef did   100 forward-backward iterations
 EnCoef did     3 forward-backward iterations
 EnCoef did    17 forward-backward iterations
 EnCoef did   100 forward-backward iterations
 EnCoef did   100 forward-backward iterations
 EnCoef did     5 forward-backward iterations
 EnCoef did     3 forward-backward iterations
 EnCoef did     5 forward-backward iterations
 EnCoef did     7 forward-backward iterations
 EnCoef did     7 forward-backward iterations
 EnCoef did   100 forward-backward iterations
 EnCoef did    14 forward-backward iterations
 EnCoef did   100 forward-backward iterations
 EnCoef did   100 forward-backward iterations
 EnCoef did   100 forward-backward iterations
 EnCoef did   100 forward-backward iterations
 Restarting incremental Fock formation.
 EnCoef did    30 forward-backward iterations
 EnCoef did     5 forward-backward iterations
 EnCoef did     8 forward-backward iterations
 EnCoef did   100 forward-backward iterations
 EnCoef did   100 forward-backward iterations
 EnCoef did   100 forward-backward iterations
 EnCoef did   100 forward-backward iterations
 EnCoef did   100 forward-backward iterations
 EnCoef did    72 forward-backward iterations
 EnCoef did   100 forward-backward iterations
 EnCoef did     7 forward-backward iterations
 EnCoef did    35 forward-backward iterations
 Restarting incremental Fock formation.
 SCF Done:  E(RB3LYP) =  -845.700754654     A.U. after   58 cycles
            NFock= 58  Conv=0.72D-08     -V/T= 2.0067

 **********************************************************************

            Population analysis using the SCF density.

 **********************************************************************

 Orbital symmetries:
       Occupied  (A) (A) (A) (A) (A) (A) (A) (A) (A) (A) (A) (A)
                 (A) (A) (A) (A) (A) (A) (A) (A) (A) (A) (A) (A)
                 (A) (A) (A) (A) (A) (A) (A) (A) (A) (A) (A) (A)
                 (A) (A) (A) (A) (A) (A) (A) (A) (A) (A) (A) (A)
                 (A) (A) (A) (A) (A) (A) (A) (A) (A) (A) (A) (A)
                 (A) (A) (A) (A)
       Virtual   (A) (A) (A) (A) (A) (A) (A) (A) (A) (A) (A) (A)
                 (A) (A) (A) (A) (A) (A) (A) (A) (A) (A) (A) (A)
                 (A) (A) (A) (A) (A) (A) (A) (A) (A) (A) (A) (A)
                 (A) (A) (A) (A) (A) (A) (A) (A) (A) (A) (A) (A)
                 (A) (A) (A) (A) (A) (A) (A) (A) (A) (A) (A) (A)
                 (A) (A) (A) (A) (A) (A) (A) (A) (A) (A) (A) (A)
                 (A) (A) (A) (A) (A) (A) (A) (A) (A) (A) (A) (A)
                 (A) (A) (A) (A) (A) (A) (A) (A) (A) (A) (A) (A)
                 (A) (A) (A) (A) (A) (A) (A) (A) (A) (A) (A) (A)
                 (A) (A) (A) (A) (A) (A) (A) (A) (A) (A) (A) (A)
                 (A) (A) (A) (A) (A) (A) (A) (A) (A) (A) (A) (A)
                 (A) (A) (A) (A) (A) (A) (A) (A) (A) (A) (A) (A)
                 (A) (A) (A) (A) (A) (A) (A) (A) (A) (A) (A) (A)
                 (A) (A) (A) (A) (A) (A) (A) (A) (A) (A) (A) (A)
                 (A) (A) (A) (A) (A) (A) (A) (A) (A) (A) (A) (A)
                 (A) (A) (A) (A) (A) (A) (A) (A) (A) (A) (A) (A)
                 (A) (A) (A) (A) (A) (A) (A) (A) (A) (A) (A) (A)
                 (A) (A) (A) (A) (A) (A) (A) (A) (A) (A) (A) (A)
                 (A) (A) (A) (A) (A) (A) (A) (A) (A) (A) (A) (A)
                 (A) (A) (A) (A) (A) (A) (A) (A) (A) (A) (A) (A)
                 (A) (A) (A) (A) (A) (A) (A) (A) (A) (A) (A) (A)
                 (A) (A) (A) (A) (A) (A) (A) (A) (A) (A) (A) (A)
                 (A) (A) (A) (A) (A) (A) (A) (A) (A) (A) (A) (A)
                 (A) (A) (A) (A) (A) (A) (A) (A) (A) (A) (A) (A)
                 (A) (A) (A) (A) (A) (A) (A) (A) (A) (A) (A) (A)
                 (A) (A) (A) (A) (A) (A) (A) (A) (A) (A) (A) (A)
                 (A) (A) (A) (A) (A) (A) (A) (A) (A) (A) (A) (A)
                 (A) (A) (A) (A) (A) (A) (A) (A) (A) (A) (A) (A)
                 (A) (A) (A) (A) (A) (A) (A) (A) (A) (A) (A) (A)
                 (A) (A) (A) (A) (A) (A) (A) (A) (A) (A) (A) (A)
                 (A) (A) (A) (A) (A) (A) (A) (A) (A) (A) (A) (A)
                 (A) (A) (A) (A) (A) (A) (A) (A) (A) (A) (A) (A)
                 (A) (A) (A) (A) (A) (A) (A) (A) (A) (A) (A) (A)
                 (A) (A) (A) (A) (A) (A) (A) (A) (A) (A) (A) (A)
                 (A) (A) (A) (A) (A) (A) (A) (A) (A) (A) (A) (A)
                 (A) (A) (A) (A) (A) (A) (A) (A) (A) (A) (A) (A)
                 (A) (A) (A) (A) (A) (A) (A) (A) (A) (A) (A) (A)
                 (A) (A) (A) (A) (A) (A) (A) (A) (A) (A) (A) (A)
                 (A) (A) (A) (A) (A) (A) (A) (A) (A) (A) (A) (A)
                 (A) (A) (A) (A) (A) (A) (A) (A) (A) (A) (A) (A)
                 (A) (A) (A) (A) (A) (A) (A)
 The electronic state is 1-A.
 Alpha  occ. eigenvalues --  -19.16998 -19.13420 -14.45341 -14.43215 -14.41387
 Alpha  occ. eigenvalues --  -14.39897 -14.39354 -14.38886 -14.36720 -10.30315
 Alpha  occ. eigenvalues --  -10.28959 -10.28048 -10.26117 -10.24428 -10.23750
 Alpha  occ. eigenvalues --  -10.23434 -10.22129  -1.09262  -1.04700  -0.93599
 Alpha  occ. eigenvalues --   -0.89962  -0.89550  -0.84160  -0.82581  -0.77708
 Alpha  occ. eigenvalues --   -0.76830  -0.75002  -0.72985  -0.69005  -0.68221
 Alpha  occ. eigenvalues --   -0.64292  -0.62235  -0.60971  -0.59459  -0.56509
 Alpha  occ. eigenvalues --   -0.54301  -0.52035  -0.49562  -0.48656  -0.48237
 Alpha  occ. eigenvalues --   -0.45494  -0.44126  -0.42394  -0.41250  -0.40814
 Alpha  occ. eigenvalues --   -0.39683  -0.38668  -0.37925  -0.36063  -0.35211
 Alpha  occ. eigenvalues --   -0.33986  -0.33460  -0.30891  -0.30074  -0.29675
 Alpha  occ. eigenvalues --   -0.28777  -0.24931  -0.24734  -0.23697  -0.22781
 Alpha  occ. eigenvalues --   -0.22400  -0.21803  -0.19822  -0.18224
 Alpha virt. eigenvalues --   -0.15979  -0.14172  -0.13294  -0.10704  -0.09600
 Alpha virt. eigenvalues --   -0.08354  -0.07050  -0.03693  -0.01224  -0.00581
 Alpha virt. eigenvalues --    0.00189   0.01769   0.02518   0.02620   0.03145
 Alpha virt. eigenvalues --    0.04071   0.05030   0.06773   0.08583   0.09385
 Alpha virt. eigenvalues --    0.09938   0.10968   0.11838   0.13306   0.14669
 Alpha virt. eigenvalues --    0.17758   0.18432   0.19472   0.20598   0.23418
 Alpha virt. eigenvalues --    0.25009   0.29070   0.31629   0.33650   0.34563
 Alpha virt. eigenvalues --    0.38082   0.39515   0.40415   0.42405   0.43789
 Alpha virt. eigenvalues --    0.44433   0.44972   0.46919   0.47270   0.47947
 Alpha virt. eigenvalues --    0.48848   0.50179   0.50787   0.51229   0.52126
 Alpha virt. eigenvalues --    0.52752   0.53810   0.54580   0.55951   0.57092
 Alpha virt. eigenvalues --    0.57591   0.58088   0.58540   0.59712   0.61225
 Alpha virt. eigenvalues --    0.62364   0.63175   0.63642   0.64447   0.65410
 Alpha virt. eigenvalues --    0.65941   0.66419   0.66670   0.67264   0.67799
 Alpha virt. eigenvalues --    0.68106   0.68862   0.69810   0.70165   0.71328
 Alpha virt. eigenvalues --    0.71524   0.72165   0.72832   0.73145   0.73252
 Alpha virt. eigenvalues --    0.74057   0.75512   0.75790   0.76228   0.76978
 Alpha virt. eigenvalues --    0.77811   0.78982   0.80482   0.81103   0.81680
 Alpha virt. eigenvalues --    0.82134   0.82653   0.82960   0.83563   0.84395
 Alpha virt. eigenvalues --    0.85188   0.85567   0.85890   0.86349   0.87233
 Alpha virt. eigenvalues --    0.88084   0.88318   0.89447   0.89909   0.90380
 Alpha virt. eigenvalues --    0.91188   0.93064   0.93276   0.93753   0.94326
 Alpha virt. eigenvalues --    0.96059   0.96565   0.97139   0.97421   0.97934
 Alpha virt. eigenvalues --    0.98475   0.98920   1.00075   1.02027   1.03222
 Alpha virt. eigenvalues --    1.03726   1.04476   1.05129   1.05179   1.06021
 Alpha virt. eigenvalues --    1.07430   1.08191   1.09284   1.10190   1.11250
 Alpha virt. eigenvalues --    1.12277   1.14116   1.15709   1.17077   1.17626
 Alpha virt. eigenvalues --    1.18692   1.20230   1.22184   1.23543   1.24754
 Alpha virt. eigenvalues --    1.26852   1.27422   1.28219   1.30159   1.31041
 Alpha virt. eigenvalues --    1.32164   1.32240   1.32959   1.34982   1.36924
 Alpha virt. eigenvalues --    1.37379   1.38683   1.40488   1.41095   1.42601
 Alpha virt. eigenvalues --    1.42897   1.45164   1.45831   1.46728   1.48332
 Alpha virt. eigenvalues --    1.49862   1.51524   1.52264   1.54022   1.54246
 Alpha virt. eigenvalues --    1.56003   1.58361   1.59383   1.61236   1.62265
 Alpha virt. eigenvalues --    1.63081   1.64276   1.65183   1.67220   1.68100
 Alpha virt. eigenvalues --    1.68642   1.68814   1.70101   1.71138   1.74785
 Alpha virt. eigenvalues --    1.75484   1.76837   1.78150   1.78326   1.81023
 Alpha virt. eigenvalues --    1.82609   1.83463   1.84287   1.85777   1.86418
 Alpha virt. eigenvalues --    1.90790   1.92292   1.93163   1.93945   1.95629
 Alpha virt. eigenvalues --    1.96370   1.99176   2.03800   2.04583   2.06100
 Alpha virt. eigenvalues --    2.08830   2.12749   2.14252   2.17812   2.19386
 Alpha virt. eigenvalues --    2.23731   2.26716   2.27007   2.27684   2.28266
 Alpha virt. eigenvalues --    2.29294   2.30787   2.32067   2.33412   2.34624
 Alpha virt. eigenvalues --    2.35997   2.38339   2.40183   2.41692   2.42520
 Alpha virt. eigenvalues --    2.42669   2.46282   2.46698   2.47503   2.48870
 Alpha virt. eigenvalues --    2.48959   2.50288   2.53289   2.55487   2.58784
 Alpha virt. eigenvalues --    2.59740   2.61096   2.61737   2.63306   2.65947
 Alpha virt. eigenvalues --    2.66338   2.67941   2.69524   2.71601   2.72683
 Alpha virt. eigenvalues --    2.73958   2.77177   2.78130   2.80894   2.81464
 Alpha virt. eigenvalues --    2.82482   2.82883   2.85113   2.86204   2.87212
 Alpha virt. eigenvalues --    2.88023   2.89398   2.90318   2.91451   2.92714
 Alpha virt. eigenvalues --    2.95625   2.96455   2.98543   2.99639   3.01072
 Alpha virt. eigenvalues --    3.01748   3.03508   3.03945   3.05611   3.08212
 Alpha virt. eigenvalues --    3.11236   3.11686   3.12478   3.16270   3.17946
 Alpha virt. eigenvalues --    3.19348   3.21205   3.21818   3.22561   3.24537
 Alpha virt. eigenvalues --    3.24848   3.25706   3.30095   3.31332   3.32635
 Alpha virt. eigenvalues --    3.33102   3.33950   3.34682   3.37053   3.38343
 Alpha virt. eigenvalues --    3.39606   3.40607   3.42363   3.43060   3.44590
 Alpha virt. eigenvalues --    3.46068   3.48738   3.52338   3.52867   3.53824
 Alpha virt. eigenvalues --    3.55307   3.56654   3.58212   3.58693   3.59849
 Alpha virt. eigenvalues --    3.61196   3.62550   3.63347   3.64689   3.66018
 Alpha virt. eigenvalues --    3.66435   3.66895   3.68122   3.69051   3.70213
 Alpha virt. eigenvalues --    3.70804   3.72824   3.73959   3.74814   3.78195
 Alpha virt. eigenvalues --    3.78319   3.79783   3.79966   3.83279   3.83951
 Alpha virt. eigenvalues --    3.84641   3.85939   3.86798   3.88325   3.91547
 Alpha virt. eigenvalues --    3.94329   3.95678   3.97957   3.98635   4.00903
 Alpha virt. eigenvalues --    4.01408   4.02217   4.04425   4.05304   4.08942
 Alpha virt. eigenvalues --    4.09465   4.11435   4.12390   4.14325   4.15064
 Alpha virt. eigenvalues --    4.15766   4.16666   4.17013   4.17547   4.17938
 Alpha virt. eigenvalues --    4.19504   4.20178   4.21418   4.21783   4.23917
 Alpha virt. eigenvalues --    4.25730   4.27028   4.27273   4.28148   4.28184
 Alpha virt. eigenvalues --    4.28831   4.29349   4.30277   4.31558   4.32607
 Alpha virt. eigenvalues --    4.33248   4.35144   4.35744   4.36568   4.37502
 Alpha virt. eigenvalues --    4.38758   4.39314   4.39544   4.40004   4.40230
 Alpha virt. eigenvalues --    4.41252   4.42452   4.44410   4.44766   4.45116
 Alpha virt. eigenvalues --    4.45436   4.46542   4.48808   4.49132   4.50478
 Alpha virt. eigenvalues --    4.51719   4.52947   4.53913   4.54510   4.55351
 Alpha virt. eigenvalues --    4.57374   4.58085   4.58982   4.59543   4.60854
 Alpha virt. eigenvalues --    4.62774   4.64103   4.65337   4.66380   4.66723
 Alpha virt. eigenvalues --    4.68582   4.69410   4.69963   4.70862   4.71104
 Alpha virt. eigenvalues --    4.74395   4.75995   4.77393   4.78751   4.79902
 Alpha virt. eigenvalues --    4.81189   4.83342   4.84992   4.86074   4.86653
 Alpha virt. eigenvalues --    4.88592   4.91402   4.91722   4.93817   4.94352
 Alpha virt. eigenvalues --    4.97662   4.99199   4.99672   5.01872   5.03154
 Alpha virt. eigenvalues --    5.04048   5.04382   5.08057   5.08458   5.08815
 Alpha virt. eigenvalues --    5.09884   5.10097   5.11624   5.13128   5.14876
 Alpha virt. eigenvalues --    5.16598   5.17393   5.18230   5.20906   5.21545
 Alpha virt. eigenvalues --    5.21833   5.24217   5.25998   5.28342   5.31842
 Alpha virt. eigenvalues --    5.33098   5.33592   5.34903   5.36928   5.39707
 Alpha virt. eigenvalues --    5.40228   5.45489   5.46037   5.50078   5.53019
 Alpha virt. eigenvalues --    5.57255   5.58763   5.62458   5.67652   5.74003
 Alpha virt. eigenvalues --    5.85745   5.87909   5.93742   6.11957   6.24286
 Alpha virt. eigenvalues --    6.43391   6.45488   6.60822   6.62807   7.27117
 Alpha virt. eigenvalues --    8.30770   8.77731  10.35605  10.65513  10.76138
 Alpha virt. eigenvalues --   11.09517  11.20496  11.27543  11.32292  11.34088
 Alpha virt. eigenvalues --   11.36923  11.41624  11.43819  11.62354  11.85645
 Alpha virt. eigenvalues --   12.19635  12.27619  12.52582  12.76278  12.88981
 Alpha virt. eigenvalues --   18.27289  18.42050
          Condensed to atoms (all electrons):
               1          2          3          4          5          6
     1  O    8.124647   0.096722   0.000617  -0.000000  -0.000007   0.000001
     2  O    0.096722   8.163609  -0.004339  -0.000018   0.001568  -0.000083
     3  C    0.000617  -0.004339   5.779422  -0.044951   0.221123  -0.036088
     4  C   -0.000000  -0.000018  -0.044951   5.742067   0.310776   0.039401
     5  N   -0.000007   0.001568   0.221123   0.310776   6.264167   0.274932
     6  C    0.000001  -0.000083  -0.036088   0.039401   0.274932   5.204361
     7  C    0.000000   0.000005   0.007309  -0.028203  -0.035103   0.347462
     8  C   -0.000000   0.000000  -0.000100  -0.003376   0.001614   0.011959
     9  C    0.000000   0.000000  -0.000004   0.000509   0.000128  -0.004137
    10  C   -0.000000  -0.000000   0.000000   0.000150  -0.000006  -0.000442
    11  C    0.000000   0.000000   0.000000   0.000006  -0.000000   0.000019
    12  N    0.000000   0.000000  -0.000000  -0.000000   0.000000  -0.000000
    13  N    0.000000   0.000000   0.000000  -0.000000  -0.000000  -0.000000
    14  N    0.000000   0.000000  -0.000000   0.000000   0.000000  -0.000000
    15  N    0.000000   0.000000  -0.000000  -0.000000  -0.000000  -0.000000
    16  N    0.000000   0.000000   0.000000   0.000272  -0.000008   0.000267
    17  N   -0.000000   0.000000   0.000055   0.019174  -0.000333   0.010332
    18  H    0.214832  -0.000157  -0.000061   0.000000   0.000000  -0.000000
    19  H   -0.000370  -0.011933   0.168358   0.001518  -0.008998   0.000628
    20  H   -0.000542   0.021387   0.109230   0.001542  -0.023591   0.000314
    21  H    0.000000   0.000070   0.001103  -0.007866  -0.045797   0.356847
    22  H   -0.000000   0.000000   0.000177   0.002939  -0.001207  -0.037969
    23  H    0.000000  -0.000000  -0.000001  -0.001455   0.000233  -0.004554
    24  H   -0.000000   0.000000   0.000000  -0.000006  -0.000039   0.000891
    25  H    0.000000  -0.000000  -0.000000  -0.000039   0.000001  -0.000127
    26  H    0.000000  -0.000000   0.000000   0.000000  -0.000000   0.000001
    27  H    0.000000   0.000000  -0.000000   0.000000   0.000000   0.000000
    28  H    0.000000   0.000000  -0.000000   0.000000   0.000000  -0.000000
    29  H    0.000000   0.000000   0.000000   0.000000  -0.000000   0.000000
    30  H    0.000000   0.000000   0.000000   0.000000   0.000000  -0.000000
    31  H    0.000000  -0.000000  -0.000000  -0.000000   0.000000  -0.000002
    32  H    0.000000   0.000000  -0.000070  -0.001867  -0.001741  -0.000104
               7          8          9         10         11         12
     1  O    0.000000  -0.000000   0.000000  -0.000000   0.000000   0.000000
     2  O    0.000005   0.000000   0.000000  -0.000000   0.000000   0.000000
     3  C    0.007309  -0.000100  -0.000004   0.000000   0.000000  -0.000000
     4  C   -0.028203  -0.003376   0.000509   0.000150   0.000006  -0.000000
     5  N   -0.035103   0.001614   0.000128  -0.000006  -0.000000   0.000000
     6  C    0.347462   0.011959  -0.004137  -0.000442   0.000019  -0.000000
     7  C    5.229238   0.368811  -0.018881   0.003631  -0.000686   0.000003
     8  C    0.368811   4.819164   0.550423  -0.011571  -0.004261  -0.000018
     9  C   -0.018881   0.550423   4.665742   0.446033  -0.013521   0.000191
    10  C    0.003631  -0.011571   0.446033   5.147808   0.465557   0.006302
    11  C   -0.000686  -0.004261  -0.013521   0.465557   4.867881   0.336225
    12  N    0.000003  -0.000018   0.000191   0.006302   0.336225   6.753067
    13  N   -0.000000  -0.000001  -0.000118   0.001475  -0.037821   0.241331
    14  N   -0.000000   0.000000   0.000004  -0.001095   0.015220  -0.202013
    15  N    0.000002  -0.000017   0.002249  -0.025730   0.014674  -0.152401
    16  N   -0.001437  -0.010785   0.016696  -0.052793   0.025391  -0.013234
    17  N   -0.090026   0.014842  -0.013692  -0.018498  -0.000027  -0.000021
    18  H   -0.000000  -0.000000  -0.000000   0.000000   0.000000   0.000000
    19  H   -0.000377   0.000001  -0.000000  -0.000000  -0.000000   0.000000
    20  H    0.000033  -0.000017   0.000000   0.000000  -0.000000   0.000000
    21  H   -0.043195   0.000297   0.000665  -0.000071   0.000000  -0.000000
    22  H    0.385335  -0.035174  -0.002214  -0.000017   0.000001   0.000000
    23  H   -0.023003   0.347405  -0.051658  -0.032419   0.002142   0.000063
    24  H   -0.006870  -0.050272   0.385227  -0.055683   0.000796   0.000141
    25  H    0.001696  -0.014414  -0.024187   0.312365  -0.040932  -0.001274
    26  H    0.000010   0.000926  -0.006484  -0.031530   0.376183  -0.034196
    27  H   -0.000000   0.000017  -0.000005   0.002277  -0.034711   0.274195
    28  H   -0.000000  -0.000000   0.000011  -0.000375   0.000224  -0.031827
    29  H   -0.000000  -0.000000  -0.000000  -0.000038  -0.000102   0.005125
    30  H    0.000000   0.000000  -0.000020   0.000710  -0.001771   0.016857
    31  H    0.000011   0.000323  -0.001257  -0.003169  -0.030117  -0.008778
    32  H   -0.004507  -0.006478   0.000964   0.000813  -0.000016  -0.000000
              13         14         15         16         17         18
     1  O    0.000000   0.000000   0.000000   0.000000  -0.000000   0.214832
     2  O    0.000000   0.000000   0.000000   0.000000   0.000000  -0.000157
     3  C    0.000000  -0.000000  -0.000000   0.000000   0.000055  -0.000061
     4  C   -0.000000   0.000000  -0.000000   0.000272   0.019174   0.000000
     5  N   -0.000000   0.000000  -0.000000  -0.000008  -0.000333   0.000000
     6  C   -0.000000  -0.000000  -0.000000   0.000267   0.010332  -0.000000
     7  C   -0.000000  -0.000000   0.000002  -0.001437  -0.090026  -0.000000
     8  C   -0.000001   0.000000  -0.000017  -0.010785   0.014842  -0.000000
     9  C   -0.000118   0.000004   0.002249   0.016696  -0.013692  -0.000000
    10  C    0.001475  -0.001095  -0.025730  -0.052793  -0.018498   0.000000
    11  C   -0.037821   0.015220   0.014674   0.025391  -0.000027   0.000000
    12  N    0.241331  -0.202013  -0.152401  -0.013234  -0.000021   0.000000
    13  N    6.780512   0.162431  -0.075870  -0.000190   0.000000   0.000000
    14  N    0.162431   7.119482   0.026032   0.000706  -0.000000   0.000000
    15  N   -0.075870   0.026032   7.455724  -0.005526   0.000251   0.000000
    16  N   -0.000190   0.000706  -0.005526   7.208225   0.098618  -0.000000
    17  N    0.000000  -0.000000   0.000251   0.098618   7.169083   0.000000
    18  H    0.000000   0.000000   0.000000  -0.000000   0.000000   0.495970
    19  H    0.000000   0.000000  -0.000000  -0.000000   0.000001   0.000020
    20  H    0.000000   0.000000   0.000000  -0.000000  -0.000003   0.000015
    21  H    0.000000  -0.000000   0.000000   0.000047  -0.000195  -0.000000
    22  H   -0.000000   0.000000   0.000000  -0.000020  -0.000288   0.000000
    23  H    0.000001  -0.000000   0.000104  -0.000857  -0.023502  -0.000000
    24  H    0.000000  -0.000000   0.000046   0.000625   0.001451   0.000000
    25  H    0.000049  -0.000360  -0.004837   0.010529   0.000716  -0.000000
    26  H   -0.003582   0.000332   0.001822   0.001960  -0.000021   0.000000
    27  H   -0.023933   0.042514   0.006467  -0.003221  -0.000013   0.000000
    28  H    0.284008  -0.057133   0.013160   0.000179  -0.000000   0.000000
    29  H   -0.037344   0.265126   0.000178   0.000011   0.000000   0.000000
    30  H   -0.046818   0.122024   0.113093   0.000726  -0.000001   0.000000
    31  H    0.002204   0.001178   0.131358   0.089499   0.000513   0.000000
    32  H    0.000000   0.000000   0.000005   0.001098   0.185746  -0.000000
              19         20         21         22         23         24
     1  O   -0.000370  -0.000542   0.000000  -0.000000   0.000000  -0.000000
     2  O   -0.011933   0.021387   0.000070   0.000000  -0.000000   0.000000
     3  C    0.168358   0.109230   0.001103   0.000177  -0.000001   0.000000
     4  C    0.001518   0.001542  -0.007866   0.002939  -0.001455  -0.000006
     5  N   -0.008998  -0.023591  -0.045797  -0.001207   0.000233  -0.000039
     6  C    0.000628   0.000314   0.356847  -0.037969  -0.004554   0.000891
     7  C   -0.000377   0.000033  -0.043195   0.385335  -0.023003  -0.006870
     8  C    0.000001  -0.000017   0.000297  -0.035174   0.347405  -0.050272
     9  C   -0.000000   0.000000   0.000665  -0.002214  -0.051658   0.385227
    10  C   -0.000000   0.000000  -0.000071  -0.000017  -0.032419  -0.055683
    11  C   -0.000000  -0.000000   0.000000   0.000001   0.002142   0.000796
    12  N    0.000000   0.000000  -0.000000   0.000000   0.000063   0.000141
    13  N    0.000000   0.000000   0.000000  -0.000000   0.000001   0.000000
    14  N    0.000000   0.000000  -0.000000   0.000000  -0.000000  -0.000000
    15  N   -0.000000   0.000000   0.000000   0.000000   0.000104   0.000046
    16  N   -0.000000  -0.000000   0.000047  -0.000020  -0.000857   0.000625
    17  N    0.000001  -0.000003  -0.000195  -0.000288  -0.023502   0.001451
    18  H    0.000020   0.000015  -0.000000   0.000000  -0.000000   0.000000
    19  H    0.591839   0.043271  -0.000117  -0.000039  -0.000000   0.000000
    20  H    0.043271   0.698485  -0.000633   0.000038   0.000000  -0.000000
    21  H   -0.000117  -0.000633   0.557511   0.003413   0.001561  -0.000006
    22  H   -0.000039   0.000038   0.003413   0.509794   0.002047   0.002646
    23  H   -0.000000   0.000000   0.001561   0.002047   0.616735   0.010384
    24  H    0.000000  -0.000000  -0.000006   0.002646   0.010384   0.595064
    25  H    0.000000   0.000000  -0.000071  -0.000011   0.009128   0.002026
    26  H    0.000000   0.000000  -0.000000  -0.000004  -0.000010   0.001326
    27  H    0.000000  -0.000000   0.000000  -0.000000  -0.000040   0.000003
    28  H   -0.000000   0.000000  -0.000000   0.000000  -0.000000  -0.000002
    29  H    0.000000  -0.000000   0.000000  -0.000000  -0.000000  -0.000000
    30  H    0.000000   0.000000  -0.000000   0.000000  -0.000001  -0.000000
    31  H    0.000000   0.000000  -0.000000   0.000000  -0.000706  -0.000071
    32  H   -0.000001   0.000001   0.010361  -0.000239   0.007505  -0.000145
              25         26         27         28         29         30
     1  O    0.000000   0.000000   0.000000   0.000000   0.000000   0.000000
     2  O   -0.000000  -0.000000   0.000000   0.000000   0.000000   0.000000
     3  C   -0.000000   0.000000  -0.000000  -0.000000   0.000000   0.000000
     4  C   -0.000039   0.000000   0.000000   0.000000   0.000000   0.000000
     5  N    0.000001  -0.000000   0.000000   0.000000  -0.000000   0.000000
     6  C   -0.000127   0.000001   0.000000  -0.000000   0.000000  -0.000000
     7  C    0.001696   0.000010  -0.000000  -0.000000  -0.000000   0.000000
     8  C   -0.014414   0.000926   0.000017  -0.000000  -0.000000   0.000000
     9  C   -0.024187  -0.006484  -0.000005   0.000011  -0.000000  -0.000020
    10  C    0.312365  -0.031530   0.002277  -0.000375  -0.000038   0.000710
    11  C   -0.040932   0.376183  -0.034711   0.000224  -0.000102  -0.001771
    12  N   -0.001274  -0.034196   0.274195  -0.031827   0.005125   0.016857
    13  N    0.000049  -0.003582  -0.023933   0.284008  -0.037344  -0.046818
    14  N   -0.000360   0.000332   0.042514  -0.057133   0.265126   0.122024
    15  N   -0.004837   0.001822   0.006467   0.013160   0.000178   0.113093
    16  N    0.010529   0.001960  -0.003221   0.000179   0.000011   0.000726
    17  N    0.000716  -0.000021  -0.000013  -0.000000   0.000000  -0.000001
    18  H   -0.000000   0.000000   0.000000   0.000000   0.000000   0.000000
    19  H    0.000000   0.000000   0.000000  -0.000000   0.000000   0.000000
    20  H    0.000000   0.000000  -0.000000   0.000000  -0.000000   0.000000
    21  H   -0.000071  -0.000000   0.000000  -0.000000   0.000000  -0.000000
    22  H   -0.000011  -0.000004  -0.000000   0.000000  -0.000000   0.000000
    23  H    0.009128  -0.000010  -0.000040  -0.000000  -0.000000  -0.000001
    24  H    0.002026   0.001326   0.000003  -0.000002  -0.000000  -0.000000
    25  H    0.542479   0.002773   0.003454   0.000001   0.000021   0.000105
    26  H    0.002773   0.537786   0.003835   0.002779  -0.000020  -0.000243
    27  H    0.003454   0.003835   0.419056   0.001148  -0.004729  -0.007369
    28  H    0.000001   0.002779   0.001148   0.492755   0.005894   0.020431
    29  H    0.000021  -0.000020  -0.004729   0.005894   0.461286   0.003208
    30  H    0.000105  -0.000243  -0.007369   0.020431   0.003208   0.413146
    31  H    0.012569  -0.001283   0.008331  -0.000331  -0.000353  -0.002739
    32  H   -0.000043   0.000000   0.000001  -0.000000  -0.000000  -0.000000
              31         32
     1  O    0.000000   0.000000
     2  O   -0.000000   0.000000
     3  C   -0.000000  -0.000070
     4  C   -0.000000  -0.001867
     5  N    0.000000  -0.001741
     6  C   -0.000002  -0.000104
     7  C    0.000011  -0.004507
     8  C    0.000323  -0.006478
     9  C   -0.001257   0.000964
    10  C   -0.003169   0.000813
    11  C   -0.030117  -0.000016
    12  N   -0.008778  -0.000000
    13  N    0.002204   0.000000
    14  N    0.001178   0.000000
    15  N    0.131358   0.000005
    16  N    0.089499   0.001098
    17  N    0.000513   0.185746
    18  H    0.000000  -0.000000
    19  H    0.000000  -0.000001
    20  H    0.000000   0.000001
    21  H   -0.000000   0.010361
    22  H    0.000000  -0.000239
    23  H   -0.000706   0.007505
    24  H   -0.000071  -0.000145
    25  H    0.012569  -0.000043
    26  H   -0.001283   0.000000
    27  H    0.008331   0.000001
    28  H   -0.000331  -0.000000
    29  H   -0.000353  -0.000000
    30  H   -0.002739  -0.000000
    31  H    0.528926  -0.000170
    32  H   -0.000170   0.611245
 Mulliken charges:
               1
     1  O   -0.435899
     2  O   -0.266831
     3  C   -0.201780
     4  C   -0.030572
     5  N    0.042287
     6  C   -0.163907
     7  C   -0.091258
     8  C    0.020700
     9  C    0.067339
    10  C   -0.153684
    11  C    0.059647
    12  N   -0.189738
    13  N   -0.246335
    14  N   -0.494446
    15  N   -0.500783
    16  N   -0.366778
    17  N   -0.354162
    18  H    0.289379
    19  H    0.216198
    20  H    0.150468
    21  H    0.166076
    22  H    0.170791
    23  H    0.140896
    24  H    0.112465
    25  H    0.188382
    26  H    0.147639
    27  H    0.312722
    28  H    0.269077
    29  H    0.301737
    30  H    0.368663
    31  H    0.274062
    32  H    0.197644
 Sum of Mulliken charges =  -0.00000
 Mulliken charges with hydrogens summed into heavy atoms:
               1
     1  O   -0.146520
     2  O   -0.266831
     3  C    0.164886
     4  C   -0.030572
     5  N    0.042287
     6  C    0.002169
     7  C    0.079534
     8  C    0.161597
     9  C    0.179804
    10  C    0.034697
    11  C    0.207286
    12  N    0.122983
    13  N    0.022742
    14  N    0.175954
    15  N   -0.226720
    16  N   -0.366778
    17  N   -0.156518
 Electronic spatial extent (au):  <R**2>=           9226.2336
 Charge=             -0.0000 electrons
 Dipole moment (field-independent basis, Debye):
    X=              9.3542    Y=             -5.2252    Z=              0.9719  Tot=             10.7587
 Quadrupole moment (field-independent basis, Debye-Ang):
   XX=           -127.9660   YY=           -111.9598   ZZ=            -94.5833
   XY=             -6.3656   XZ=              1.3222   YZ=             10.0334
 Traceless Quadrupole moment (field-independent basis, Debye-Ang):
   XX=            -16.4630   YY=             -0.4568   ZZ=             16.9198
   XY=             -6.3656   XZ=              1.3222   YZ=             10.0334
 Octapole moment (field-independent basis, Debye-Ang**2):
  XXX=            363.5931  YYY=            -19.0917  ZZZ=              0.9606  XYY=            -31.3991
  XXY=            -21.9098  XXZ=             31.9248  XZZ=             30.3099  YZZ=             -3.0349
  YYZ=             -1.4117  XYZ=             13.2915
 Hexadecapole moment (field-independent basis, Debye-Ang**3):
 XXXX=         -11046.2461 YYYY=           -557.3322 ZZZZ=           -223.1119 XXXY=           -390.0227
 XXXZ=           -121.8202 YYYX=            -21.2919 YYYZ=             21.7104 ZZZX=              6.8424
 ZZZY=             22.0667 XXYY=          -2119.4680 XXZZ=          -1629.7370 YYZZ=           -124.1727
 XXYZ=             94.5148 YYXZ=             -8.2219 ZZXY=             -4.1520
 N-N= 1.113640178800D+03 E-N=-4.202067907583D+03  KE= 8.400443067151D+02
 PrsmSu:  requested number of processors reduced to:  13 ShMem   1 Linda.
 Calling FoFJK, ICntrl=      2127 FMM=F ISym2X=0 I1Cent= 0 IOpClX= 0 NMat=1 NMatS=1 NMatT=0.
 ***** Axes restored to original set *****
 -------------------------------------------------------------------
 Center     Atomic                   Forces (Hartrees/Bohr)
 Number     Number              X              Y              Z
 -------------------------------------------------------------------
      1        8           0.006654701    0.025459782    0.048923127
      2        8          -0.046169223    0.005084204    0.003956403
      3        6          -0.080423491   -0.043867683   -0.020169373
      4        6          -0.025380544   -0.014586807   -0.022422979
      5        7          -0.192923559    0.210380359    0.003891165
      6        6           0.100252191   -0.033571423    0.132768448
      7        6           0.057448929   -0.060847567   -0.018771437
      8        6           0.006345969    0.044626320    0.041887149
      9        6           0.060176373   -0.060562228   -0.010777465
     10        6           0.013313896    0.069682407    0.033483018
     11        6           0.087563974   -0.069657821   -0.003237544
     12        7          -0.063655993   -0.041658829   -0.036879812
     13        7          -0.028463329   -0.017671650    0.061017401
     14        7           0.052346731   -0.039493585   -0.041178176
     15        7           0.026067234    0.071798994    0.032702994
     16        7           0.001830322   -0.005389659    0.017374332
     17        7           0.017261881    0.034388213    0.057902024
     18        1           0.049237878   -0.037283964   -0.057010716
     19        1           0.064030159   -0.016015823    0.015070091
     20        1           0.022742163    0.039732133   -0.006329725
     21        1          -0.024755717   -0.052710457   -0.020828066
     22        1           0.015716930   -0.012321462   -0.000593056
     23        1          -0.062762242   -0.027823173    0.018854554
     24        1          -0.011065134   -0.005502056   -0.051502117
     25        1          -0.031682902   -0.049987417   -0.055336701
     26        1           0.001475861   -0.001883757   -0.003715443
     27        1          -0.023481423   -0.045484162   -0.044669520
     28        1          -0.004850813   -0.021195389    0.042366749
     29        1          -0.038457982    0.065640123   -0.035375718
     30        1           0.024040097    0.051702776    0.046672264
     31        1           0.002181310    0.041027604   -0.051697854
     32        1           0.025385754   -0.002008004   -0.076374017
 -------------------------------------------------------------------
 Cartesian Forces:  Max     0.210380359 RMS     0.051606371

 GradGradGradGradGradGradGradGradGradGradGradGradGradGradGradGradGradGrad
 Berny optimization.
 FormGI is forming the generalized inverse of G from B-inverse, IUseBI=4.
 Internal  Forces:  Max     0.226560437 RMS     0.039453256
 Search for a local minimum.
 Step number   1 out of a maximum of  172
 All quantities printed in internal units (Hartrees-Bohrs-Radians)
 Mixed Optimization -- RFO/linear search
 Second derivative matrix not updated -- first step.
 ITU=  0
     Eigenvalues ---    0.00230   0.00230   0.00235   0.00387   0.01040
     Eigenvalues ---    0.01103   0.01286   0.01478   0.01739   0.01923
     Eigenvalues ---    0.02116   0.02246   0.02305   0.02478   0.02576
     Eigenvalues ---    0.02598   0.02744   0.03027   0.03065   0.03072
     Eigenvalues ---    0.03109   0.03465   0.03783   0.03927   0.04557
     Eigenvalues ---    0.05091   0.05189   0.05295   0.05872   0.05876
     Eigenvalues ---    0.05937   0.06520   0.07572   0.08111   0.08539
     Eigenvalues ---    0.09019   0.09155   0.09288   0.11130   0.11133
     Eigenvalues ---    0.11335   0.11775   0.11846   0.11893   0.12227
     Eigenvalues ---    0.12291   0.13609   0.13764   0.14111   0.14729
     Eigenvalues ---    0.14956   0.15669   0.15785   0.15915   0.16000
     Eigenvalues ---    0.16969   0.17309   0.17578   0.18001   0.18404
     Eigenvalues ---    0.18528   0.18885   0.19501   0.19926   0.20039
     Eigenvalues ---    0.20887   0.21378   0.22018   0.22158   0.22259
     Eigenvalues ---    0.23800   0.24724   0.25190   0.25563   0.27778
     Eigenvalues ---    0.27837   0.28605   0.31993   0.32834   0.33821
     Eigenvalues ---    0.34528   0.36205   0.43381   0.43610   0.45151
     Eigenvalues ---    0.46221   0.58542   0.60543   0.68325   0.76330
 RFO step:  Lambda=-3.87897956D-01 EMin= 2.30000000D-03
 Linear search not attempted -- first point.
 Maximum step size (   0.300) exceeded in Quadratic search.
    -- Step size scaled by   0.441
 Iteration  1 RMS(Cart)=  0.14386395 RMS(Int)=  0.00334144
 Iteration  2 RMS(Cart)=  0.00800118 RMS(Int)=  0.00052073
 Iteration  3 RMS(Cart)=  0.00001269 RMS(Int)=  0.00052067
 Iteration  4 RMS(Cart)=  0.00000002 RMS(Int)=  0.00052067
 Variable       Old X    -DE/DX   Delta X   Delta X   Delta X     New X
                                 (Linear)    (Quad)   (Total)
    R1        3.76393  -0.05602   0.00000  -0.05167  -0.05167   3.71226
    R2        2.09344  -0.08212   0.00000  -0.05056  -0.05056   2.04288
    R3        3.43052   0.00426   0.00000   0.00423   0.00416   3.43468
    R4        3.37137  -0.01366   0.00000  -0.01305  -0.01304   3.35832
    R5        2.92496  -0.03362   0.00000  -0.02225  -0.02225   2.90271
    R6        2.84362  -0.06275   0.00000  -0.05536  -0.05532   2.78830
    R7        2.98242  -0.03933   0.00000  -0.03661  -0.03655   2.94587
    R8        2.69842  -0.02273   0.00000  -0.01398  -0.01340   2.68503
    R9        3.26233   0.02194   0.00000   0.01395   0.01376   3.27609
   R10        2.36770   0.22656   0.00000   0.08589   0.08550   2.45320
   R11        2.49839   0.12233   0.00000   0.05573   0.05567   2.55406
   R12        2.25885  -0.04012   0.00000  -0.02718  -0.02713   2.23172
   R13        2.62780   0.02913   0.00000   0.01692   0.01681   2.64461
   R14        2.06447  -0.00996   0.00000  -0.00599  -0.00599   2.05848
   R15        2.44902   0.12556   0.00000   0.05169   0.05169   2.50071
   R16        2.23539  -0.03069   0.00000  -0.02037  -0.02045   2.21494
   R17        2.66924   0.00800   0.00000   0.00428   0.00428   2.67352
   R18        1.93902   0.04894   0.00000   0.02626   0.02626   1.96528
   R19        2.50513   0.03709   0.00000   0.01646   0.01646   2.52159
   R20        2.52201  -0.08010   0.00000  -0.06335  -0.06335   2.45866
   R21        2.63883  -0.06634   0.00000  -0.03441  -0.03441   2.60442
   R22        2.03762   0.00319   0.00000   0.00188   0.00188   2.03949
   R23        3.11766  -0.05689   0.00000  -0.04089  -0.04032   3.07734
   R24        2.15620  -0.00616   0.00000  -0.00552  -0.00585   2.15035
   R25        2.76407   0.03298   0.00000   0.02294   0.02297   2.78704
   R26        2.09844  -0.00653   0.00000  -0.00376  -0.00404   2.09440
   R27        2.25427  -0.08279   0.00000  -0.05706  -0.05706   2.19721
   R28        2.37152  -0.03200   0.00000  -0.02502  -0.02584   2.34568
   R29        2.81843   0.00652   0.00000   0.00476   0.00388   2.82230
   R30        2.46866  -0.02824   0.00000  -0.02310  -0.02340   2.44526
   R31        2.79818  -0.00476   0.00000  -0.00414  -0.00414   2.79404
   R32        3.51958   0.01970   0.00000   0.01943   0.01945   3.53902
   R33        2.35022  -0.05929   0.00000  -0.04440  -0.04439   2.30584
   R34        2.63351  -0.01342   0.00000  -0.01239  -0.01242   2.62109
   R35        3.77208   0.02971   0.00000   0.02815   0.02827   3.80035
   R36        3.74732  -0.00306   0.00000  -0.00543  -0.00544   3.74189
   R37        3.08667   0.05385   0.00000   0.05436   0.05559   3.14226
   R38        2.58418   0.04443   0.00000   0.03994   0.04023   2.62440
    A1        2.02133  -0.03679   0.00000  -0.02961  -0.02961   1.99172
    A2        1.66995   0.00902   0.00000   0.00876   0.00882   1.67877
    A3        1.75756  -0.01114   0.00000  -0.01063  -0.01060   1.74696
    A4        2.11418  -0.00881   0.00000  -0.00602  -0.00608   2.10810
    A5        1.80227  -0.01014   0.00000  -0.00777  -0.00782   1.79445
    A6        1.75667   0.07105   0.00000   0.03797   0.03879   1.79546
    A7        2.29162  -0.01039   0.00000  -0.00855  -0.00853   2.28309
    A8        1.60144   0.00170   0.00000   0.00162   0.00280   1.60424
    A9        1.41098   0.02823   0.00000   0.02201   0.02261   1.43358
   A10        1.73636   0.09540   0.00000   0.07271   0.07251   1.80887
   A11        2.01883  -0.03802   0.00000  -0.02468  -0.02445   1.99438
   A12        2.24305  -0.05668   0.00000  -0.04055  -0.04045   2.20259
   A13        1.93474   0.02630   0.00000   0.02416   0.02397   1.95872
   A14        2.04808   0.00056   0.00000  -0.00093  -0.00087   2.04722
   A15        2.28704  -0.02829   0.00000  -0.02430  -0.02420   2.26284
   A16        2.07093   0.00722   0.00000   0.00553   0.00556   2.07649
   A17        2.38663  -0.02425   0.00000  -0.01775  -0.01791   2.36873
   A18        1.70504   0.01421   0.00000   0.01020   0.01032   1.71536
   A19        1.88138   0.05631   0.00000   0.04283   0.04205   1.92343
   A20        2.05742   0.00316   0.00000   0.00787   0.00725   2.06468
   A21        2.24180  -0.02957   0.00000  -0.01997  -0.02105   2.22075
   A22        2.02870   0.02755   0.00000   0.01901   0.01895   2.04764
   A23        2.03542  -0.01262   0.00000  -0.01001  -0.01010   2.02532
   A24        2.11310  -0.02515   0.00000  -0.02051  -0.02056   2.09254
   A25        2.06323   0.00601   0.00000   0.00469   0.00447   2.06769
   A26        2.15271   0.00286   0.00000   0.00298   0.00275   2.15546
   A27        2.05949  -0.00457   0.00000  -0.00308  -0.00331   2.05618
   A28        2.03768  -0.01168   0.00000  -0.01000  -0.00888   2.02879
   A29        2.02888   0.04371   0.00000   0.03662   0.03555   2.06444
   A30        1.88515  -0.05171   0.00000  -0.04607  -0.04616   1.83899
   A31        1.49481   0.07056   0.00000   0.05934   0.05993   1.55474
   A32        1.96028  -0.02970   0.00000  -0.02505  -0.02494   1.93534
   A33        1.86859  -0.04616   0.00000  -0.03723  -0.03671   1.83188
   A34        1.76604  -0.00600   0.00000  -0.00149  -0.00143   1.76461
   A35        1.20009   0.04270   0.00000   0.03826   0.03815   1.23825
   A36        2.61940  -0.03807   0.00000  -0.03097  -0.03142   2.58798
   A37        1.31896  -0.01099   0.00000  -0.00839  -0.00845   1.31051
   A38        1.30575  -0.01021   0.00000  -0.00692  -0.00687   1.29888
   A39        1.89898   0.03520   0.00000   0.02575   0.02585   1.92483
   A40        1.44910   0.04817   0.00000   0.03558   0.03545   1.48456
   A41        1.79474   0.02894   0.00000   0.01944   0.01948   1.81422
   A42        1.77430   0.10387   0.00000   0.09118   0.09143   1.86573
   A43        1.33187   0.03735   0.00000   0.03139   0.03069   1.36257
   A44        1.72024   0.03218   0.00000   0.02553   0.02424   1.74449
   A45        1.83031  -0.03516   0.00000  -0.03232  -0.03193   1.79838
   A46        1.97374   0.01286   0.00000   0.01337   0.01353   1.98726
   A47        1.99706   0.01630   0.00000   0.01367   0.01241   2.00947
   A48        1.34711   0.01448   0.00000   0.01305   0.01449   1.36159
   A49        2.61007  -0.03314   0.00000  -0.02338  -0.02347   2.58660
   A50        1.97066   0.03342   0.00000   0.02345   0.02354   1.99420
   A51        1.42954   0.00075   0.00000  -0.00475  -0.00464   1.42489
   A52        2.96614   0.03670   0.00000   0.03677   0.03672   3.00286
   A53        3.32977  -0.00602   0.00000  -0.00321  -0.00351   3.32626
    D1       -2.73365  -0.00390   0.00000  -0.00423  -0.00434  -2.73799
    D2        2.75056  -0.00262   0.00000  -0.00314  -0.00303   2.74753
    D3       -2.95084   0.01742   0.00000   0.01850   0.01859  -2.93225
    D4        2.63953   0.01009   0.00000   0.01071   0.01062   2.65016
    D5        2.22279   0.00035   0.00000  -0.00821  -0.00812   2.21467
    D6       -2.56239  -0.00429   0.00000   0.00553   0.00531  -2.55708
    D7       -3.09428   0.01004   0.00000   0.00096   0.00118  -3.09310
    D8       -1.59627   0.00540   0.00000   0.01470   0.01462  -1.58166
    D9        2.67862  -0.00014   0.00000  -0.00070  -0.00068   2.67795
   D10        1.21941  -0.00127   0.00000  -0.00205  -0.00204   1.21737
   D11        2.92241  -0.01059   0.00000  -0.01022  -0.01030   2.91211
   D12        3.12941   0.02116   0.00000   0.01495   0.01524  -3.13854
   D13       -0.68698   0.00162   0.00000   0.00752   0.00764  -0.67933
   D14        1.67340   0.02018   0.00000   0.01288   0.01342   1.68682
   D15       -1.31289   0.03120   0.00000   0.02141   0.02205  -1.29084
   D16        2.62095  -0.02135   0.00000  -0.00976  -0.01067   2.61028
[...]
      9          6           0        8.838940   -2.580493   -3.772420
     10          6           0       10.100332   -2.998649   -3.533322
     11          6           0       10.876178   -3.795478   -4.445717
     12          7           0       12.092984   -4.120296   -4.182968
     13          7           0       12.725383   -4.940170   -5.074830
     14          7           0       14.123015   -4.746725   -5.060148
     15          7           0       13.688497   -0.938473   -3.994878
     16          7           0       12.769997   -0.125601   -4.547583
     17          7           0       12.042637   -0.704363   -5.383466
     18          1           0        2.990984   -3.227384    0.273322
     19          1           0        2.527158   -1.125989   -2.329267
     20          1           0        3.618922   -2.559333   -2.292299
     21          1           0        6.397681   -0.292971   -1.264268
     22          1           0        6.330666   -1.622299   -4.084657
     23          1           0        8.493353   -1.550763   -1.902218
     24          1           0        8.358992   -2.857332   -4.711469
     25          1           0       10.585246   -2.723756   -2.600413
     26          1           0       10.390465   -4.108778   -5.380921
     27          1           0       13.476352   -1.937173   -4.012567
     28          1           0       12.314804   -4.908980   -6.011104
     29          1           0       14.565659   -5.623115   -5.319278
     30          1           0       14.397079   -4.031538   -5.729486
     31          1           0       14.070316   -0.572265   -3.139074
     32          1           0       11.398005    0.016749   -5.722787
 ---------------------------------------------------------------------
                    Distance matrix (angstroms):
                    1          2          3          4          5
     1  O    0.000000
     2  O    1.442319   0.000000
     3  C    2.274889   1.419324   0.000000
     4  C    4.679540   3.382180   2.582044   0.000000
     5  N    3.528863   2.276798   1.434687   1.283993   0.000000
     6  C    4.570295   3.251280   2.727791   1.620012   1.436151
     7  C    5.414247   4.287317   3.558976   2.672501   2.501658
     8  C    6.287592   5.208934   4.699117   3.897749   3.718592
     9  C    7.368861   6.424125   5.797930   5.096012   4.932375
    10  C    8.401433   7.487449   7.000858   6.320695   6.152443
    11  C    9.562825   8.737883   8.165984   7.546283   7.385631
    12  N   10.592901   9.774441   9.302853   8.671239   8.514085
    13  N   11.664855  10.916367  10.374108   9.804100   9.641591
    14  N   12.875721  12.072744  11.582024  10.863806  10.775099
    15  N   12.013014  10.876466  10.469877   9.033728   9.313806
    16  N   11.503316  10.301706   9.793649   8.138440   8.559562
    17  N   11.107950   9.959649   9.310380   7.731713   8.125601
    18  H    0.968844   1.875942   2.788918   5.131342   3.906514
    19  H    2.616264   2.089524   1.097154   2.825232   2.061236
    20  H    2.458080   2.070289   1.094911   3.267229   2.083795
    21  H    4.708612   3.337052   3.270522   2.319810   2.144892
    22  H    5.626892   4.632230   3.614287   2.833115   2.719504
    23  H    6.397461   5.274501   5.046228   4.258034   4.060951
    24  H    7.494027   6.631689   5.805520   5.173615   5.027474
    25  H    8.522996   7.567003   7.267310   6.559478   6.386185
    26  H    9.657594   8.894280   8.175058   7.613846   7.458744
    27  H   11.724950  10.670140  10.255248   9.036719   9.190454
    28  H   11.736423  10.997451  10.332959   9.724850   9.606708
    29  H   13.548145  12.814458  12.323342  11.726146  11.583461
    30  H   13.292268  12.418809  11.860734  10.942804  10.969723
    31  H   12.186892  11.027882  10.738929   9.293698   9.570598
    32  H   10.875236   9.678954   8.957096   7.186564   7.713847
                    6          7          8          9         10
     6  C    0.000000
     7  C    1.460225   0.000000
     8  C    2.489945   1.347259   0.000000
     9  C    3.831570   2.466545   1.442537   0.000000
    10  C    4.968499   3.712744   2.478666   1.350234   0.000000
    11  C    6.279135   4.932173   3.814469   2.465736   1.438520
    12  N    7.345252   6.067431   4.855623   3.623305   2.377140
    13  N    8.537248   7.195789   6.061136   4.729564   3.610629
    14  N    9.590596   8.302745   7.109126   5.854251   4.644239
    15  N    7.926491   6.970456   5.822118   5.124834   4.163207
    16  N    7.197861   6.275994   5.288368   4.698998   4.050956
    17  N    6.845011   5.759841   4.851070   4.047098   3.529778
    18  H    4.713622   5.421280   6.117141   7.140385   8.067570
    19  H    3.490779   4.340118   5.579643   6.636028   7.893641
    20  H    3.084769   3.482649   4.524688   5.425846   6.613759
    21  H    1.086704   2.188398   2.740695   4.181308   5.116535
    22  H    2.168565   1.089594   2.106770   2.703159   4.050765
    23  H    2.727682   2.107891   1.091630   2.162737   2.709106
    24  H    4.139701   2.680156   2.154709   1.090322   2.107194
    25  H    5.108276   4.065399   2.722763   2.108010   1.086750
    26  H    6.484389   5.054352   4.149084   2.707426   2.174899
    27  H    7.836268   6.771969   5.556956   4.687976   3.571263
    28  H    8.570049   7.167644   6.154382   4.745016   3.833100
    29  H   10.441597   9.130912   7.954387   6.666755   5.478742
    30  H    9.761876   8.471028   7.322436   6.068653   4.934778
    31  H    8.150680   7.328265   6.157494   5.639273   4.669427
    32  H    6.482116   5.472576   4.764506   4.135022   3.945927
                   11         12         13         14         15
    11  C    0.000000
    12  N    1.286531   0.000000
    13  N    2.263992   1.366579   0.000000
    14  N    3.438655   2.298453   1.411033   0.000000
    15  N    4.034213   3.564413   4.255287   3.978240   0.000000
    16  N    4.130971   4.068031   4.843558   4.842331   1.345320
    17  N    3.434384   3.621096   4.301565   4.557763   2.166066
    18  H    9.206973  10.173604  11.238099  12.436898  11.742803
    19  H    9.017298  10.193484  11.228975  12.451159  11.286492
    20  H    7.670269   8.821619   9.815217  11.080689  10.340324
    21  H    6.515068   7.456790   8.726778   9.691514   7.812100
    22  H    5.051213   6.281240   7.271940   8.451884   7.390085
    23  H    4.145599   4.976109   6.282008   7.202763   5.634150
    24  H    2.699438   3.977070   4.851351   6.075800   5.709566
    25  H    2.153689   2.593854   3.951634   4.760096   3.842127
    26  H    1.099400   2.081777   2.497347   3.800237   4.780059
    27  H    3.225186   2.590129   3.272667   3.067440   1.021137
    28  H    2.399993   2.003324   1.022819   2.049456   4.660164
    29  H    4.208995   3.108663   1.978076   1.015451   4.946648
    30  H    3.755068   2.776410   2.012153   1.017161   3.616352
    31  H    4.722175   4.193815   4.963325   4.595588   1.006128
    32  H    4.054169   4.468689   5.172314   5.527699   3.023983
                   16         17         18         19         20
    16  N    0.000000
    17  N    1.250088   0.000000
    18  H   11.335399  10.968013   0.000000
    19  H   10.527937  10.002512   3.377050   0.000000
    20  H    9.734040   9.162707   2.724520   1.802163   0.000000
    21  H    7.170397   7.000184   4.751899   4.099889   3.730247
    22  H    6.627171   5.929260   5.720293   4.218340   3.382918
    23  H    5.226732   5.043104   6.149805   5.996523   4.992941
    24  H    5.190971   4.319270   7.334889   6.533202   5.330052
    25  H    3.913441   3.734612   8.135404   8.219438   6.975073
    26  H    4.714056   3.784141   9.354124   8.946576   7.602247
    27  H    2.016673   2.335536  11.400720  11.107491  10.025734
    28  H    5.022928   4.259907  11.369054  11.120475   9.745190
    29  H    5.834602   5.528462  13.076307  13.194310  11.763521
    30  H    4.393249   4.090626  12.914309  12.684587  11.408344
    31  H    1.968307   3.027578  11.893095  11.584770  10.672259
    32  H    1.812106   1.025032  10.823850   9.566282   8.883613
                   21         22         23         24         25
    21  H    0.000000
    22  H    3.118686   0.000000
    23  H    2.526037   3.073333   0.000000
    24  H    4.722911   2.456076   3.101140   0.000000
    25  H    5.022918   4.638711   2.497880   3.070929   0.000000
    26  H    6.888363   4.934050   4.716338   2.478137   3.112466
    27  H    7.769436   7.152984   5.425234   5.246192   3.312308
    28  H    8.879884   7.093897   6.539423   4.641848   4.404473
    29  H   10.562643   9.238286   8.070517   6.822148   5.625140
    30  H    9.894718   8.577699   7.460309   6.234871   5.102104
    31  H    7.903306   7.867584   5.795670   6.349266   4.130955
    32  H    6.706531   5.572062   5.048846   4.303336   4.233221
                   26         27         28         29         30
    26  H    0.000000
    27  H    4.013846   0.000000
    28  H    2.177277   3.764968   0.000000
    29  H    4.441763   4.059588   2.460683   0.000000
    30  H    4.022490   2.860405   2.277078   1.652213   0.000000
    31  H    5.574415   1.725907   5.489761   5.523563   4.334002
    32  H    4.260515   3.325987   5.018610   6.481120   5.038166
                   31         32
    31  H    0.000000
    32  H    3.763476   0.000000
 Stoichiometry    C8H15N7O2
 Framework group  C1[X(C8H15N7O2)]
 Deg. of freedom    90
 Full point group                 C1      NOp   1
 Largest Abelian subgroup         C1      NOp   1
 Largest concise Abelian subgroup C1      NOp   1
                         Standard orientation:                         
 ---------------------------------------------------------------------
 Center     Atomic      Atomic             Coordinates (Angstroms)
 Number     Number       Type             X           Y           Z
 ---------------------------------------------------------------------
      1          8           0       -6.812199   -1.601353    0.725693
      2          8           0       -5.940444   -0.454215    0.792046
      3          6           0       -5.429011   -0.295950   -0.522439
      4          6           0       -4.147972    1.927994   -0.805224
      5          7           0       -4.432535    0.732377   -0.433523
      6          6           0       -3.139154    1.046688    0.105833
      7          6           0       -1.948074    0.444384   -0.486462
      8          6           0       -0.806653    0.178322    0.177974
      9          6           0        0.367094   -0.404204   -0.425265
     10          6           0        1.522157   -0.669329    0.221781
     11          6           0        2.678637   -1.261943   -0.395228
     12          7           0        3.769388   -1.443340    0.262433
     13          7           0        4.789632   -2.080042   -0.386606
     14          7           0        6.049110   -1.701940    0.125027
     15          7           0        4.674458    1.891521    1.136841
     16          7           0        3.880383    2.622551    0.333769
     17          7           0        3.582625    2.034535   -0.728444
     18          1           0       -6.322670   -2.223686    1.284014
     19          1           0       -6.206175    0.037847   -1.221253
     20          1           0       -4.977031   -1.231688   -0.867312
     21          1           0       -3.113527    1.278924    1.167123
     22          1           0       -2.005442    0.232124   -1.553641
     23          1           0       -0.752954    0.383443    1.248813
     24          1           0        0.285281   -0.651089   -1.484112
     25          1           0        1.610969   -0.423096    1.276536
     26          1           0        2.596020   -1.545934   -1.454097
     27          1           0        4.643895    0.879768    1.002148
     28          1           0        4.721806   -2.014081   -1.405039
     29          1           0        6.687803   -2.481267   -0.000918
     30          1           0        6.415660   -0.894871   -0.373869
     31          1           0        4.679242    2.221340    2.087362
     32          1           0        2.984690    2.691409   -1.239991
 ---------------------------------------------------------------------
 Rotational constants (GHZ):           0.8355263           0.1112621           0.1019390
 Standard basis: 6-31G(2df,p) (6D, 7F)
 There are   602 symmetry adapted cartesian basis functions of A   symmetry.
 There are   551 symmetry adapted basis functions of A   symmetry.
   551 basis functions,   853 primitive gaussians,   602 cartesian basis functions
    64 alpha electrons       64 beta electrons
       nuclear repulsion energy      1061.0544272822 Hartrees.
 NAtoms=   32 NActive=   32 NUniq=   32 SFac= 1.00D+00 NAtFMM=   60 NAOKFM=F Big=F
 Integral buffers will be    131072 words long.
 Raffenetti 2 integral format.
 Two-electron integral symmetry is turned on.
 One-electron integrals computed using PRISM.
 PrsmSu:  requested number of processors reduced to:  12 ShMem   1 Linda.
 NBasis=   551 RedAO= T EigKep=  2.18D-04  NBF=   551
 NBsUse=   551 1.00D-06 EigRej= -1.00D+00 NBFU=   551
 Initial guess from the checkpoint file:  "OOCC1dNCdCCdCCdCNNNNNN1.chk"
 B after Tr=    -0.000000   -0.000000    0.000000
         Rot=    0.999997   -0.000282    0.000597   -0.002298 Ang=  -0.27 deg.
 ExpMin= 1.61D-01 ExpMax= 5.48D+03 ExpMxC= 8.25D+02 IAcc=2 IRadAn=         4 AccDes= 0.00D+00
 Harris functional with IExCor=  402 and IRadAn=       4 diagonalized for initial guess.
 HarFok:  IExCor=  402 AccDes= 0.00D+00 IRadAn=         4 IDoV= 1 UseB2=F ITyADJ=14
 ICtDFT=  3500011 ScaDFX=  1.000000  1.000000  1.000000  1.000000
 FoFCou: FMM=F IPFlag=           0 FMFlag=      100000 FMFlg1=           0
         NFxFlg=           0 DoJE=T BraDBF=F KetDBF=T FulRan=T
         wScrn=  0.000000 ICntrl=       500 IOpCl=  0 I1Cent=   200000004 NGrid=           0
         NMat0=    1 NMatS0=      1 NMatT0=    0 NMatD0=    1 NMtDS0=    0 NMtDT0=    0
 Petite list used in FoFCou.
 Requested convergence on RMS density matrix=1.00D-08 within 128 cycles.
 Requested convergence on MAX density matrix=1.00D-06.
 Requested convergence on             energy=1.00D-06.
 No special actions if energy rises.
 Integral accuracy reduced to 1.0D-05 until final iterations.
 Initial convergence to 1.0D-05 achieved.  Increase integral accuracy.
 SCF Done:  E(RB3LYP) =  -847.251827873     A.U. after   13 cycles
            NFock= 13  Conv=0.32D-08     -V/T= 2.0071
 PrsmSu:  requested number of processors reduced to:  13 ShMem   1 Linda.
 Calling FoFJK, ICntrl=      2127 FMM=F ISym2X=0 I1Cent= 0 IOpClX= 0 NMat=1 NMatS=1 NMatT=0.
 ***** Axes restored to original set *****
 -------------------------------------------------------------------
 Center     Atomic                   Forces (Hartrees/Bohr)
 Number     Number              X              Y              Z
 -------------------------------------------------------------------
      1        8           0.000491881   -0.000160577    0.000443883
      2        8          -0.000429559   -0.000125446   -0.000727008
      3        6           0.000535192    0.001459532    0.000105885
      4        6           0.000084073   -0.000606705    0.000514867
      5        7          -0.000684335    0.000826473    0.000121594
      6        6          -0.000321458   -0.000027540   -0.000643113
      7        6          -0.000020983    0.000210633   -0.000082808
      8        6           0.002287417   -0.002775455    0.000940148
      9        6          -0.003299594    0.000516412   -0.000651397
     10        6           0.000187149    0.000263249    0.001592554
     11        6          -0.002249004    0.000696868    0.000032748
     12        7           0.000056107    0.000555739   -0.000712624
     13        7           0.001103628    0.000594892    0.001419181
     14        7           0.000351354   -0.001546501    0.000298247
     15        7           0.001014232   -0.004070360   -0.001164611
     16        7           0.002143234    0.001657418    0.003268677
     17        7          -0.003706932   -0.001276085   -0.001412891
     18        1          -0.000531641   -0.000121590    0.000027113
     19        1           0.000453017   -0.000246331    0.000321621
     20        1           0.000154840   -0.000686159   -0.000247413
     21        1           0.000301411    0.000115341    0.000157559
     22        1           0.000094885   -0.000378172    0.000011719
     23        1          -0.000641846    0.000935215   -0.001425982
     24        1           0.000900463   -0.000042482   -0.000380440
     25        1           0.001252052   -0.000351308    0.000060695
     26        1           0.000252440   -0.000192171    0.000280759
     27        1           0.000496225    0.000551096   -0.000369687
     28        1          -0.000575218    0.000385670    0.000007564
     29        1          -0.000766992    0.001239164    0.000387300
     30        1           0.000997323    0.000751073   -0.001348363
     31        1          -0.000788602    0.001024095    0.001064455
     32        1           0.000859242    0.000824011   -0.001890234
 -------------------------------------------------------------------
 Cartesian Forces:  Max     0.004070360 RMS     0.001132846

 GradGradGradGradGradGradGradGradGradGradGradGradGradGradGradGradGradGrad
 Berny optimization.
 Using GEDIIS/GDIIS optimizer.
 FormGI is forming the generalized inverse of G from B-inverse, IUseBI=4.
 Internal  Forces:  Max     0.013202830 RMS     0.003745540
 Search for a local minimum.
 Step number 104 out of a maximum of  172
 All quantities printed in internal units (Hartrees-Bohrs-Radians)
 Mixed Optimization -- RFO/linear search
 Update second derivatives using D2CorX and points  103  104
 DE= -3.29D-04 DEPred=-3.22D-04 R= 1.02D+00
 TightC=F SS=  1.41D+00  RLast= 3.11D-01 DXNew= 1.6324D+00 9.3339D-01
 Trust test= 1.02D+00 RLast= 3.11D-01 DXMaxT set to 9.71D-01
 ITU=  1  1  1  1  0  1  1  1  1  1  1  0  1  1  1  1  0  1  1 -1
 ITU=  1  1  0  1 -1  1  0  1  0  1  0  1  0 -1 -1 -1 -1  1  1  0
 ITU= -1  1  1  1 -1  1  1  1  1 -1  1  0  1  1  1  1  1  1 -1 -1
 ITU=  1  0  1  1  1  0 -1  1 -1  0  0  1 -1  0 -1 -1  1  1  0  1
 ITU=  0  1  0  1  0 -1  1  1  1  0  0  0  1  0  1  0 -1  0 -1 -1
 Use linear search instead of GDIIS.
     Eigenvalues ---    0.00100   0.00134   0.00244   0.00259   0.00667
     Eigenvalues ---    0.00855   0.00954   0.01306   0.01556   0.01868
     Eigenvalues ---    0.02238   0.02356   0.02512   0.02562   0.02658
     Eigenvalues ---    0.02770   0.03034   0.03125   0.03358   0.03445
     Eigenvalues ---    0.03942   0.04348   0.05257   0.05566   0.06403
     Eigenvalues ---    0.07017   0.07729   0.07881   0.08519   0.08942
     Eigenvalues ---    0.09449   0.09858   0.10512   0.10936   0.11381
     Eigenvalues ---    0.11885   0.12234   0.12979   0.13868   0.14344
     Eigenvalues ---    0.14703   0.15252   0.15416   0.16245   0.16735
     Eigenvalues ---    0.17097   0.17402   0.19349   0.20065   0.21842
     Eigenvalues ---    0.22783   0.23014   0.24209   0.24725   0.25198
     Eigenvalues ---    0.26253   0.26729   0.27806   0.28683   0.29065
     Eigenvalues ---    0.31607   0.32348   0.33315   0.33924   0.34044
     Eigenvalues ---    0.34584   0.35467   0.36611   0.38883   0.41132
     Eigenvalues ---    0.43019   0.44751   0.45470   0.49332   0.50417
     Eigenvalues ---    0.53921   0.56521   0.58375   0.61813   0.63250
     Eigenvalues ---    0.69675   0.86607   0.92303   1.30718   1.55184
     Eigenvalues ---    1.96076   3.82627   5.07426  34.07656 295.12034
 RFO step:  Lambda=-4.46134625D-04 EMin= 1.00040498D-03
 Quartic linear search produced a step of  0.17376.
slurmstepd: error: *** JOB 27448829 ON lewis4-r630-hpc4-node673 CANCELLED AT 2023-05-20T18:28:35 DUE TO TIME LIMIT ***
