### Starting Gaussian ###
 Entering Gaussian System, Link 0=g16
 Initial command:
 /cluster/software/gaussian/gaussian-16-A.03/avx2/g16/l1.exe "/local/scratch/cz9n3/Gau-9546.inp" -scrdir="/local/scratch/cz9n3/"
 Entering Link 1 = /cluster/software/gaussian/gaussian-16-A.03/avx2/g16/l1.exe PID=      9547.
  
 Copyright (c) 1988,1990,1992,1993,1995,1998,2003,2009,2016,
            Gaussian, Inc.  All Rights Reserved.
  
 This is part of the Gaussian(R) 16 program.  It is based on
 the Gaussian(R) 09 system (copyright 2009, Gaussian, Inc.),
 the Gaussian(R) 03 system (copyright 2003, Gaussian, Inc.),
 the Gaussian(R) 98 system (copyright 1998, Gaussian, Inc.),
 the Gaussian(R) 94 system (copyright 1995, Gaussian, Inc.),
 the Gaussian 92(TM) system (copyright 1992, Gaussian, Inc.),
 the Gaussian 90(TM) system (copyright 1990, Gaussian, Inc.),
 the Gaussian 88(TM) system (copyright 1988, Gaussian, Inc.),
 the Gaussian 86(TM) system (copyright 1986, Carnegie Mellon
 University), and the Gaussian 82(TM) system (copyright 1983,
 Carnegie Mellon University). Gaussian is a federally registered
 trademark of Gaussian, Inc.
  
 This software contains proprietary and confidential information,
 including trade secrets, belonging to Gaussian, Inc.
  
 This software is provided under written license and may be
 used, copied, transmitted, or stored only in accord with that
 written license.
  
 The following legend is applicable only to US Government
 contracts under FAR:
  
                    RESTRICTED RIGHTS LEGEND
  
 Use, reproduction and disclosure by the US Government is
 subject to restrictions as set forth in subparagraphs (a)
 and (c) of the Commercial Computer Software - Restricted
 Rights clause in FAR 52.227-19.
  
 Gaussian, Inc.
 340 Quinnipiac St., Bldg. 40, Wallingford CT 06492
  
  
 ---------------------------------------------------------------
 Warning -- This program may not be used in any manner that
 competes with the business of Gaussian, Inc. or will provide
 assistance to any competitor of Gaussian, Inc.  The licensee
 of this program is prohibited from giving any competitor of
 Gaussian, Inc. access to this program.  By using this program,
 the user acknowledges that Gaussian, Inc. is engaged in the
 business of creating and licensing software in the field of
 computational chemistry and represents and warrants to the
 licensee that it is not a competitor of Gaussian, Inc. and that
 it will not use this program in any manner prohibited above.
 ---------------------------------------------------------------
  

 Cite this work as:
 Gaussian 16, Revision A.03,
 M. J. Frisch, G. W. Trucks, H. B. Schlegel, G. E. Scuseria, 
 M. A. Robb, J. R. Cheeseman, G. Scalmani, V. Barone, 
 G. A. Petersson, H. Nakatsuji, X. Li, M. Caricato, A. V. Marenich, 
 J. Bloino, B. G. Janesko, R. Gomperts, B. Mennucci, H. P. Hratchian, 
 J. V. Ortiz, A. F. Izmaylov, J. L. Sonnenberg, D. Williams-Young, 
 F. Ding, F. Lipparini, F. Egidi, J. Goings, B. Peng, A. Petrone, 
 T. Henderson, D. Ranasinghe, V. G. Zakrzewski, J. Gao, N. Rega, 
 G. Zheng, W. Liang, M. Hada, M. Ehara, K. Toyota, R. Fukuda, 
 J. Hasegawa, M. Ishida, T. Nakajima, Y. Honda, O. Kitao, H. Nakai, 
 T. Vreven, K. Throssell, J. A. Montgomery, Jr., J. E. Peralta, 
 F. Ogliaro, M. J. Bearpark, J. J. Heyd, E. N. Brothers, K. N. Kudin, 
 V. N. Staroverov, T. A. Keith, R. Kobayashi, J. Normand, 
 K. Raghavachari, A. P. Rendell, J. C. Burant, S. S. Iyengar, 
 J. Tomasi, M. Cossi, J. M. Millam, M. Klene, C. Adamo, R. Cammi, 
 J. W. Ochterski, R. L. Martin, K. Morokuma, O. Farkas, 
 J. B. Foresman, and D. J. Fox, Gaussian, Inc., Wallingford CT, 2016.
 
 ******************************************
 Gaussian 16:  ES64L-G16RevA.03 25-Dec-2016
                16-May-2023 
 ******************************************
 %chk=OSc1cc2cqc3c1dCCdC3rCdCCd2.chk
 %NProcShared=20
 Will use up to   20 processors via shared memory.
 -----------------------------
 # opt freq b3lyp/6-31g(2df,p)
 -----------------------------
 1/18=20,19=15,26=3,38=1/1,3;
 2/9=110,12=2,17=6,18=5,40=1/2;
 3/5=1,6=6,7=104,11=2,25=1,30=1,71=1,74=-5/1,2,3;
 4//1;
 5/5=2,38=5/2;
 6/7=2,8=2,9=2,10=2,28=1/1;
 7//1,2,3,16;
 1/18=20,19=15,26=3/3(2);
 2/9=110/2;
 99//99;
 2/9=110/2;
 3/5=1,6=6,7=104,11=2,25=1,30=1,71=1,74=-5/1,2,3;
 4/5=5,16=3,69=1/1;
 5/5=2,38=5/2;
 7//1,2,3,16;
 1/18=20,19=15,26=3/3(-5);
 2/9=110/2;
 6/7=2,8=2,9=2,10=2,19=2,28=1/1;
 99/9=1/99;
 -------------------
 Title Card Required
 -------------------
 Symbolic Z-matrix:
 Charge =  0 Multiplicity = 1
 O                     0.94642  -0.1821   -0.08371 
 S                     2.4517   -0.62363   0.46531 
 C                     2.81198  -2.08925  -0.4328 
 C                     3.95495  -2.12779  -1.18309 
 C                     4.43487  -3.44892  -1.6345 
 C                     3.54697  -4.60428  -1.79868 
 C                     2.71849  -4.6432   -0.76219 
 C                     2.10845  -3.39443  -0.23306 
 C                     1.2225   -3.82802   0.70049 
 C                     1.79138  -5.12504   1.21518 
 C                     2.5593   -5.67195   0.2519 
 C                     4.40442  -5.69862  -2.37349 
 C                     5.46865  -5.57718  -1.67688 
 C                     5.65196  -4.04582  -1.58297 
 H                     0.74555   0.75116   0.18915 
 H                     4.55341  -1.23764  -1.36088 
 H                     0.32407  -4.40582   0.3521 
 H                     2.11695  -4.90135   2.23722 
 H                     2.79083  -6.70804   0.05865 
 H                     4.7039   -5.54985  -3.44455 
 H                     5.29507  -6.14989  -0.72716 
 H                     6.41653  -3.62936  -2.23875 
 

 GradGradGradGradGradGradGradGradGradGradGradGradGradGradGradGradGradGrad
 Berny optimization.
 Initialization pass.
                           ----------------------------
                           !    Initial Parameters    !
                           ! (Angstroms and Degrees)  !
 --------------------------                            --------------------------
 ! Name  Definition              Value          Derivative Info.                !
 --------------------------------------------------------------------------------
 ! R1    R(1,2)                  1.662          estimate D2E/DX2                !
 ! R2    R(1,15)                 0.9929         estimate D2E/DX2                !
 ! R3    R(2,3)                  1.7563         estimate D2E/DX2                !
 ! R4    R(3,4)                  1.3678         estimate D2E/DX2                !
 ! R5    R(3,8)                  1.4961         estimate D2E/DX2                !
 ! R6    R(4,5)                  1.4763         estimate D2E/DX2                !
 ! R7    R(4,16)                 1.0873         estimate D2E/DX2                !
 ! R8    R(5,6)                  1.4663         estimate D2E/DX2                !
 ! R9    R(5,14)                 1.3566         estimate D2E/DX2                !
 ! R10   R(6,7)                  1.3275         estimate D2E/DX2                !
 ! R11   R(6,12)                 1.5044         estimate D2E/DX2                !
 ! R12   R(7,8)                  1.4871         estimate D2E/DX2                !
 ! R13   R(7,11)                 1.4533         estimate D2E/DX2                !
 ! R14   R(8,9)                  1.3581         estimate D2E/DX2                !
 ! R15   R(9,10)                 1.5069         estimate D2E/DX2                !
 ! R16   R(9,17)                 1.1236         estimate D2E/DX2                !
 ! R17   R(10,11)                1.3479         estimate D2E/DX2                !
 ! R18   R(10,18)                1.0957         estimate D2E/DX2                !
 ! R19   R(11,19)                1.0791         estimate D2E/DX2                !
 ! R20   R(12,13)                1.2777         estimate D2E/DX2                !
 ! R21   R(12,20)                1.122          estimate D2E/DX2                !
 ! R22   R(13,14)                1.5451         estimate D2E/DX2                !
 ! R23   R(13,21)                1.1225         estimate D2E/DX2                !
 ! R24   R(14,22)                1.09           estimate D2E/DX2                !
 ! A1    A(2,1,15)             110.009          estimate D2E/DX2                !
 ! A2    A(1,2,3)              103.8021         estimate D2E/DX2                !
 ! A3    A(2,3,4)              118.3889         estimate D2E/DX2                !
 ! A4    A(2,3,8)              124.2827         estimate D2E/DX2                !
 ! A5    A(4,3,8)              116.2064         estimate D2E/DX2                !
 ! A6    A(3,4,5)              117.6842         estimate D2E/DX2                !
 ! A7    A(3,4,16)             121.7756         estimate D2E/DX2                !
 ! A8    A(5,4,16)             120.2465         estimate D2E/DX2                !
 ! A9    A(4,5,6)              122.8533         estimate D2E/DX2                !
 ! A10   A(4,5,14)             132.3614         estimate D2E/DX2                !
 ! A11   A(6,5,14)             101.5852         estimate D2E/DX2                !
 ! A12   A(5,6,7)              108.2752         estimate D2E/DX2                !
 ! A13   A(5,6,12)             105.7125         estimate D2E/DX2                !
 ! A14   A(7,6,12)             129.2509         estimate D2E/DX2                !
 ! A15   A(6,7,8)              120.611          estimate D2E/DX2                !
 ! A16   A(6,7,11)             129.3419         estimate D2E/DX2                !
 ! A17   A(8,7,11)             107.53           estimate D2E/DX2                !
 ! A18   A(3,8,7)              119.4823         estimate D2E/DX2                !
 ! A19   A(3,8,9)              132.6136         estimate D2E/DX2                !
 ! A20   A(7,8,9)              104.1281         estimate D2E/DX2                !
 ! A21   A(8,9,10)             105.2663         estimate D2E/DX2                !
 ! A22   A(8,9,17)             118.2077         estimate D2E/DX2                !
 ! A23   A(10,9,17)             88.0028         estimate D2E/DX2                !
 ! A24   A(9,10,11)            108.6767         estimate D2E/DX2                !
 ! A25   A(9,10,18)            104.7761         estimate D2E/DX2                !
 ! A26   A(11,10,18)           125.4625         estimate D2E/DX2                !
 ! A27   A(7,11,10)            105.8947         estimate D2E/DX2                !
 ! A28   A(7,11,19)            122.0868         estimate D2E/DX2                !
 ! A29   A(10,11,19)           129.7787         estimate D2E/DX2                !
 ! A30   A(6,12,13)            101.3778         estimate D2E/DX2                !
 ! A31   A(6,12,20)            114.86           estimate D2E/DX2                !
 ! A32   A(13,12,20)           106.5893         estimate D2E/DX2                !
 ! A33   A(12,13,14)           103.0701         estimate D2E/DX2                !
 ! A34   A(12,13,21)           106.4975         estimate D2E/DX2                !
 ! A35   A(14,13,21)           118.2008         estimate D2E/DX2                !
 ! A36   A(5,14,13)            109.1072         estimate D2E/DX2                !
 ! A37   A(5,14,22)            115.9995         estimate D2E/DX2                !
 ! A38   A(13,14,22)           115.1711         estimate D2E/DX2                !
 ! D1    D(15,1,2,3)          -165.8512         estimate D2E/DX2                !
 ! D2    D(1,2,3,4)            123.3519         estimate D2E/DX2                !
 ! D3    D(1,2,3,8)            -69.24           estimate D2E/DX2                !
 ! D4    D(2,3,4,5)            164.027          estimate D2E/DX2                !
 ! D5    D(2,3,4,16)            -9.7596         estimate D2E/DX2                !
 ! D6    D(8,3,4,5)             -4.3911         estimate D2E/DX2                !
 ! D7    D(8,3,4,16)          -178.1777         estimate D2E/DX2                !
 ! D8    D(2,3,8,7)           -163.496          estimate D2E/DX2                !
 ! D9    D(2,3,8,9)             -9.1878         estimate D2E/DX2                !
 ! D10   D(4,3,8,7)              4.1612         estimate D2E/DX2                !
 ! D11   D(4,3,8,9)            158.4694         estimate D2E/DX2                !
 ! D12   D(3,4,5,6)             24.9597         estimate D2E/DX2                !
 ! D13   D(3,4,5,14)          -130.8806         estimate D2E/DX2                !
 ! D14   D(16,4,5,6)          -161.1544         estimate D2E/DX2                !
 ! D15   D(16,4,5,14)           43.0053         estimate D2E/DX2                !
 ! D16   D(4,5,6,7)            -42.7771         estimate D2E/DX2                !
 ! D17   D(4,5,6,12)           175.4934         estimate D2E/DX2                !
 ! D18   D(14,5,6,7)           119.2413         estimate D2E/DX2                !
 ! D19   D(14,5,6,12)          -22.4882         estimate D2E/DX2                !
 ! D20   D(4,5,14,13)          157.7818         estimate D2E/DX2                !
 ! D21   D(4,5,14,22)          -70.1697         estimate D2E/DX2                !
 ! D22   D(6,5,14,13)           -1.6715         estimate D2E/DX2                !
 ! D23   D(6,5,14,22)          130.3771         estimate D2E/DX2                !
 ! D24   D(5,6,7,8)             41.428          estimate D2E/DX2                !
 ! D25   D(5,6,7,11)          -118.2112         estimate D2E/DX2                !
 ! D26   D(12,6,7,8)           171.0793         estimate D2E/DX2                !
 ! D27   D(12,6,7,11)           11.44           estimate D2E/DX2                !
 ! D28   D(5,6,12,13)           42.6872         estimate D2E/DX2                !
 ! D29   D(5,6,12,20)          -71.7826         estimate D2E/DX2                !
 ! D30   D(7,6,12,13)          -87.8937         estimate D2E/DX2                !
 ! D31   D(7,6,12,20)          157.6365         estimate D2E/DX2                !
 ! D32   D(6,7,8,3)            -25.9078         estimate D2E/DX2                !
 ! D33   D(6,7,8,9)            173.3005         estimate D2E/DX2                !
 ! D34   D(11,7,8,3)           137.7015         estimate D2E/DX2                !
 ! D35   D(11,7,8,9)           -23.0902         estimate D2E/DX2                !
 ! D36   D(6,7,11,10)          168.1926         estimate D2E/DX2                !
 ! D37   D(6,7,11,19)          -27.2839         estimate D2E/DX2                !
 ! D38   D(8,7,11,10)            6.4947         estimate D2E/DX2                !
 ! D39   D(8,7,11,19)          171.0182         estimate D2E/DX2                !
 ! D40   D(3,8,9,10)          -128.3673         estimate D2E/DX2                !
 ! D41   D(3,8,9,17)           135.5824         estimate D2E/DX2                !
 ! D42   D(7,8,9,10)            28.7303         estimate D2E/DX2                !
 ! D43   D(7,8,9,17)           -67.32           estimate D2E/DX2                !
 ! D44   D(8,9,10,11)          -26.5264         estimate D2E/DX2                !
 ! D45   D(8,9,10,18)          109.7369         estimate D2E/DX2                !
 ! D46   D(17,9,10,11)          92.2073         estimate D2E/DX2                !
 ! D47   D(17,9,10,18)        -131.5294         estimate D2E/DX2                !
 ! D48   D(9,10,11,7)           11.1379         estimate D2E/DX2                !
 ! D49   D(9,10,11,19)        -151.7539         estimate D2E/DX2                !
 ! D50   D(18,10,11,7)        -113.7041         estimate D2E/DX2                !
 ! D51   D(18,10,11,19)         83.4041         estimate D2E/DX2                !
 ! D52   D(6,12,13,14)         -40.9595         estimate D2E/DX2                !
 ! D53   D(6,12,13,21)          84.1204         estimate D2E/DX2                !
 ! D54   D(20,12,13,14)         79.5316         estimate D2E/DX2                !
 ! D55   D(20,12,13,21)       -155.3886         estimate D2E/DX2                !
 ! D56   D(12,13,14,5)          29.6152         estimate D2E/DX2                !
 ! D57   D(12,13,14,22)       -102.8698         estimate D2E/DX2                !
 ! D58   D(21,13,14,5)         -87.4677         estimate D2E/DX2                !
 ! D59   D(21,13,14,22)        140.0474         estimate D2E/DX2                !
 --------------------------------------------------------------------------------
 Trust Radius=3.00D-01 FncErr=1.00D-07 GrdErr=1.00D-06 EigMax=2.50D+02 EigMin=1.00D-04
 Number of steps in this run=    131 maximum allowed number of steps=    132.
 GradGradGradGradGradGradGradGradGradGradGradGradGradGradGradGradGradGrad

                          Input orientation:                          
 ---------------------------------------------------------------------
 Center     Atomic      Atomic             Coordinates (Angstroms)
 Number     Number       Type             X           Y           Z
 ---------------------------------------------------------------------
      1          8           0        0.946420   -0.182100   -0.083710
      2         16           0        2.451700   -0.623630    0.465310
      3          6           0        2.811980   -2.089250   -0.432800
      4          6           0        3.954950   -2.127790   -1.183090
      5          6           0        4.434870   -3.448920   -1.634500
      6          6           0        3.546970   -4.604280   -1.798680
      7          6           0        2.718490   -4.643200   -0.762190
      8          6           0        2.108450   -3.394430   -0.233060
      9          6           0        1.222500   -3.828020    0.700490
     10          6           0        1.791380   -5.125040    1.215180
     11          6           0        2.559300   -5.671950    0.251900
     12          6           0        4.404420   -5.698620   -2.373490
     13          6           0        5.468650   -5.577180   -1.676880
     14          6           0        5.651960   -4.045820   -1.582970
     15          1           0        0.745550    0.751160    0.189150
     16          1           0        4.553410   -1.237640   -1.360880
     17          1           0        0.324070   -4.405820    0.352100
     18          1           0        2.116950   -4.901350    2.237220
     19          1           0        2.790830   -6.708040    0.058650
     20          1           0        4.703900   -5.549850   -3.444550
     21          1           0        5.295070   -6.149890   -0.727160
     22          1           0        6.416530   -3.629360   -2.238750
 ---------------------------------------------------------------------
                    Distance matrix (angstroms):
                    1          2          3          4          5
     1  O    0.000000
     2  S    1.661999   0.000000
     3  C    2.690613   1.756259   0.000000
     4  C    3.747746   2.690628   1.367772   0.000000
     5  C    5.024574   4.040350   2.434452   1.476306   0.000000
     6  C    5.409220   4.708592   2.954863   2.584260   1.466349
     7  C    4.847884   4.211280   2.576800   2.834304   2.265654
     8  C    3.419310   2.877998   1.496110   2.432385   2.716474
     9  C    3.739508   3.440110   2.614214   3.728933   3.989388
    10  C    5.180128   4.610967   3.601872   4.406386   4.232977
    11  C    5.731707   5.053974   3.656282   4.070394   3.466717
    12  C    6.901656   6.134120   4.396555   3.790765   2.368160
    13  C    7.217731   6.182930   4.557553   3.799132   2.366429
    14  C    6.270424   5.113560   3.635456   2.592024   1.356559
    15  H    0.992862   2.208452   3.567195   4.524560   5.880260
    16  H    3.969346   2.851169   2.149221   1.087258   2.231295
    17  H    4.291510   4.341035   3.488877   4.552968   4.664859
    18  H    5.387780   4.642264   3.939541   4.771729   4.740519
    19  H    6.783068   6.107408   4.644910   4.886285   4.023865
    20  H    7.363874   6.680348   4.962434   4.169607   2.786138
    21  H    7.412105   6.328214   4.768771   4.263928   2.976315
    22  H    6.815417   5.662705   4.315805   3.070587   2.079580
                    6          7          8          9         10
     6  C    0.000000
     7  C    1.327481   0.000000
     8  C    2.446271   1.487129   0.000000
     9  C    3.500227   2.245426   1.358095   0.000000
    10  C    3.526562   2.236447   2.278803   1.506914   0.000000
    11  C    2.514019   1.453288   2.371824   2.321281   1.347858
    12  C    1.504396   2.559797   3.893868   4.803448   4.476106
    13  C    2.157365   3.045054   4.259103   5.171193   4.700080
    14  C    2.188468   3.104157   3.847470   4.988160   4.888603
    15  H    6.362402   5.822084   4.384253   4.632261   6.056090
    16  H    3.541025   3.914486   3.449862   4.696198   5.420034
    17  H    3.879733   2.651648   2.132917   1.123568   1.848021
    18  H    4.292050   3.070008   2.893642   2.076925   1.095718
    19  H    2.906412   2.223190   3.395696   3.341576   2.200534
    20  H    2.222943   3.458167   4.657882   5.680335   5.511472
    21  H    2.567668   2.984980   4.241608   4.900519   4.135075
    22  H    3.062435   4.108966   4.757892   5.971310   5.963112
                   11         12         13         14         15
    11  C    0.000000
    12  C    3.209027   0.000000
    13  C    3.491918   1.277732   0.000000
    14  C    3.946593   2.216535   1.545149   0.000000
    15  H    6.674576   7.845643   8.114039   7.086909   0.000000
    16  H    5.122562   4.576890   4.446249   3.023576   4.567025
    17  H    2.570871   5.074390   5.652924   5.679833   5.176740
    18  H    2.175085   5.208340   5.197193   5.274664   6.166539
    19  H    1.079090   3.088350   3.385503   4.238915   7.735623
    20  H    4.275273   1.122047   1.926200   2.574180   8.281005
    21  H    2.944728   1.925436   1.122539   2.299324   8.316384
    22  H    5.025309   2.889391   2.237896   1.089979   7.565955
                   16         17         18         19         20
    16  H    0.000000
    17  H    5.555086   0.000000
    18  H    5.683787   2.648329   0.000000
    19  H    5.920053   3.386921   2.909366   0.000000
    20  H    4.791605   5.908153   6.276573   4.156158   0.000000
    21  H    5.008179   5.377492   4.521819   2.683328   2.844950
    22  H    3.156295   6.665843   6.335507   5.282236   2.841714
                   21         22
    21  H    0.000000
    22  H    3.145735   0.000000
 Stoichiometry    C12H8OS
 Framework group  C1[X(C12H8OS)]
 Deg. of freedom    60
 Full point group                 C1      NOp   1
 Largest Abelian subgroup         C1      NOp   1
 Largest concise Abelian subgroup C1      NOp   1
                         Standard orientation:                         
 ---------------------------------------------------------------------
 Center     Atomic      Atomic             Coordinates (Angstroms)
 Number     Number       Type             X           Y           Z
 ---------------------------------------------------------------------
      1          8           0       -3.711754   -0.272350    0.783999
      2         16           0       -2.796226   -0.706435   -0.533429
      3          6           0       -1.141981   -0.517193    0.025237
      4          6           0       -0.304855   -1.596680   -0.043519
      5          6           0        1.145307   -1.349005    0.079639
      6          6           0        1.696683   -0.180868    0.773627
      7          6           0        0.982814    0.883744    0.428376
      8          6           0       -0.498140    0.800346    0.321725
      9          6           0       -0.887747    2.083371    0.106142
     10          6           0        0.270688    2.735980   -0.603027
     11          6           0        1.404116    2.091099   -0.262162
     12          6           0        3.189196   -0.369425    0.766023
     13          6           0        3.385375   -0.779540   -0.428095
     14          6           0        2.207633   -1.752146   -0.661437
     15          1           0       -4.653347   -0.558516    0.652522
     16          1           0       -0.672173   -2.591769   -0.282278
     17          1           0       -0.747829    2.827493    0.936269
     18          1           0       -0.084474    2.899384   -1.626628
     19          1           0        2.417780    2.457384   -0.209670
     20          1           0        3.566142   -1.176759    1.448015
     21          1           0        3.452300    0.136867   -1.072930
     22          1           0        2.460711   -2.810413   -0.597599
 ---------------------------------------------------------------------
 Rotational constants (GHZ):           1.1845620           0.4951071           0.3791195
 Standard basis: 6-31G(2df,p) (6D, 7F)
 There are   478 symmetry adapted cartesian basis functions of A   symmetry.
 There are   436 symmetry adapted basis functions of A   symmetry.
   436 basis functions,   696 primitive gaussians,   478 cartesian basis functions
    52 alpha electrons       52 beta electrons
       nuclear repulsion energy       906.4693217663 Hartrees.
 NAtoms=   22 NActive=   22 NUniq=   22 SFac= 1.00D+00 NAtFMM=   60 NAOKFM=F Big=F
 Integral buffers will be    131072 words long.
 Raffenetti 2 integral format.
 Two-electron integral symmetry is turned on.
 One-electron integrals computed using PRISM.
 PrsmSu:  requested number of processors reduced to:  13 ShMem   1 Linda.
 NBasis=   436 RedAO= T EigKep=  2.56D-04  NBF=   436
 NBsUse=   436 1.00D-06 EigRej= -1.00D+00 NBFU=   436
 ExpMin= 1.17D-01 ExpMax= 2.19D+04 ExpMxC= 3.30D+03 IAcc=3 IRadAn=         5 AccDes= 0.00D+00
 Harris functional with IExCor=  402 and IRadAn=       5 diagonalized for initial guess.
 HarFok:  IExCor=  402 AccDes= 0.00D+00 IRadAn=         5 IDoV= 1 UseB2=F ITyADJ=14
 ICtDFT=  3500011 ScaDFX=  1.000000  1.000000  1.000000  1.000000
 FoFCou: FMM=F IPFlag=           0 FMFlag=      100000 FMFlg1=           0
         NFxFlg=           0 DoJE=T BraDBF=F KetDBF=T FulRan=T
         wScrn=  0.000000 ICntrl=       500 IOpCl=  0 I1Cent=   200000004 NGrid=           0
         NMat0=    1 NMatS0=      1 NMatT0=    0 NMatD0=    1 NMtDS0=    0 NMtDT0=    0
 Petite list used in FoFCou.
 Requested convergence on RMS density matrix=1.00D-08 within 128 cycles.
 Requested convergence on MAX density matrix=1.00D-06.
 Requested convergence on             energy=1.00D-06.
 No special actions if energy rises.
 Integral accuracy reduced to 1.0D-05 until final iterations.
 EnCoef did     6 forward-backward iterations
 EnCoef did     4 forward-backward iterations
 EnCoef did     5 forward-backward iterations
 EnCoef did     7 forward-backward iterations
 EnCoef did     4 forward-backward iterations
 EnCoef did     4 forward-backward iterations
 Initial convergence to 1.0D-05 achieved.  Increase integral accuracy.
 SCF Done:  E(RB3LYP) =  -934.958984334     A.U. after   25 cycles
            NFock= 25  Conv=0.63D-08     -V/T= 2.0049

 **********************************************************************

            Population analysis using the SCF density.

 **********************************************************************

 Orbital symmetries:
       Occupied  (A) (A) (A) (A) (A) (A) (A) (A) (A) (A) (A) (A)
                 (A) (A) (A) (A) (A) (A) (A) (A) (A) (A) (A) (A)
                 (A) (A) (A) (A) (A) (A) (A) (A) (A) (A) (A) (A)
                 (A) (A) (A) (A) (A) (A) (A) (A) (A) (A) (A) (A)
                 (A) (A) (A) (A)
       Virtual   (A) (A) (A) (A) (A) (A) (A) (A) (A) (A) (A) (A)
                 (A) (A) (A) (A) (A) (A) (A) (A) (A) (A) (A) (A)
                 (A) (A) (A) (A) (A) (A) (A) (A) (A) (A) (A) (A)
                 (A) (A) (A) (A) (A) (A) (A) (A) (A) (A) (A) (A)
                 (A) (A) (A) (A) (A) (A) (A) (A) (A) (A) (A) (A)
                 (A) (A) (A) (A) (A) (A) (A) (A) (A) (A) (A) (A)
                 (A) (A) (A) (A) (A) (A) (A) (A) (A) (A) (A) (A)
                 (A) (A) (A) (A) (A) (A) (A) (A) (A) (A) (A) (A)
                 (A) (A) (A) (A) (A) (A) (A) (A) (A) (A) (A) (A)
                 (A) (A) (A) (A) (A) (A) (A) (A) (A) (A) (A) (A)
                 (A) (A) (A) (A) (A) (A) (A) (A) (A) (A) (A) (A)
                 (A) (A) (A) (A) (A) (A) (A) (A) (A) (A) (A) (A)
                 (A) (A) (A) (A) (A) (A) (A) (A) (A) (A) (A) (A)
                 (A) (A) (A) (A) (A) (A) (A) (A) (A) (A) (A) (A)
                 (A) (A) (A) (A) (A) (A) (A) (A) (A) (A) (A) (A)
                 (A) (A) (A) (A) (A) (A) (A) (A) (A) (A) (A) (A)
                 (A) (A) (A) (A) (A) (A) (A) (A) (A) (A) (A) (A)
                 (A) (A) (A) (A) (A) (A) (A) (A) (A) (A) (A) (A)
                 (A) (A) (A) (A) (A) (A) (A) (A) (A) (A) (A) (A)
                 (A) (A) (A) (A) (A) (A) (A) (A) (A) (A) (A) (A)
                 (A) (A) (A) (A) (A) (A) (A) (A) (A) (A) (A) (A)
                 (A) (A) (A) (A) (A) (A) (A) (A) (A) (A) (A) (A)
                 (A) (A) (A) (A) (A) (A) (A) (A) (A) (A) (A) (A)
                 (A) (A) (A) (A) (A) (A) (A) (A) (A) (A) (A) (A)
                 (A) (A) (A) (A) (A) (A) (A) (A) (A) (A) (A) (A)
                 (A) (A) (A) (A) (A) (A) (A) (A) (A) (A) (A) (A)
                 (A) (A) (A) (A) (A) (A) (A) (A) (A) (A) (A) (A)
                 (A) (A) (A) (A) (A) (A) (A) (A) (A) (A) (A) (A)
                 (A) (A) (A) (A) (A) (A) (A) (A) (A) (A) (A) (A)
                 (A) (A) (A) (A) (A) (A) (A) (A) (A) (A) (A) (A)
                 (A) (A) (A) (A) (A) (A) (A) (A) (A) (A) (A) (A)
                 (A) (A) (A) (A) (A) (A) (A) (A) (A) (A) (A) (A)
 The electronic state is 1-A.
 Alpha  occ. eigenvalues --  -88.92628 -19.17338 -10.25094 -10.23297 -10.22544
 Alpha  occ. eigenvalues --  -10.22405 -10.22323 -10.22145 -10.21146 -10.19974
 Alpha  occ. eigenvalues --  -10.19772 -10.19505 -10.18491 -10.17614  -7.98250
 Alpha  occ. eigenvalues --   -5.94958  -5.94415  -5.93650  -1.03619  -0.92814
 Alpha  occ. eigenvalues --   -0.88315  -0.83497  -0.77090  -0.75084  -0.72043
 Alpha  occ. eigenvalues --   -0.69648  -0.65181  -0.59723  -0.57132  -0.55991
 Alpha  occ. eigenvalues --   -0.53508  -0.51408  -0.49791  -0.48901  -0.47070
 Alpha  occ. eigenvalues --   -0.44981  -0.44091  -0.43259  -0.41489  -0.39902
 Alpha  occ. eigenvalues --   -0.38967  -0.38086  -0.37492  -0.36431  -0.33787
 Alpha  occ. eigenvalues --   -0.32206  -0.29662  -0.26869  -0.21954  -0.21447
 Alpha  occ. eigenvalues --   -0.18914  -0.17733
 Alpha virt. eigenvalues --   -0.11929  -0.10697  -0.06190  -0.04164   0.00121
 Alpha virt. eigenvalues --    0.02180   0.05491   0.07857   0.09038   0.11695
 Alpha virt. eigenvalues --    0.12762   0.13213   0.14381   0.15321   0.16238
 Alpha virt. eigenvalues --    0.17763   0.19949   0.21017   0.21626   0.25054
 Alpha virt. eigenvalues --    0.25613   0.26957   0.28028   0.28869   0.30490
 Alpha virt. eigenvalues --    0.31007   0.31623   0.32969   0.33851   0.35415
 Alpha virt. eigenvalues --    0.37597   0.37958   0.39613   0.40888   0.41377
 Alpha virt. eigenvalues --    0.42235   0.43383   0.44124   0.45995   0.46506
 Alpha virt. eigenvalues --    0.47050   0.48685   0.49709   0.50710   0.51916
 Alpha virt. eigenvalues --    0.53533   0.54149   0.54904   0.55102   0.56643
 Alpha virt. eigenvalues --    0.56733   0.58374   0.58553   0.59667   0.60685
 Alpha virt. eigenvalues --    0.61043   0.62702   0.63415   0.64409   0.65922
 Alpha virt. eigenvalues --    0.66919   0.67393   0.68226   0.70416   0.70651
 Alpha virt. eigenvalues --    0.72388   0.72926   0.73069   0.73592   0.74820
 Alpha virt. eigenvalues --    0.75318   0.76010   0.77288   0.77637   0.77907
 Alpha virt. eigenvalues --    0.78910   0.80541   0.82434   0.82825   0.83799
 Alpha virt. eigenvalues --    0.84989   0.85843   0.86350   0.87316   0.89110
 Alpha virt. eigenvalues --    0.90668   0.91539   0.92411   0.93135   0.94665
 Alpha virt. eigenvalues --    0.95444   0.96199   0.98554   0.99938   1.03954
 Alpha virt. eigenvalues --    1.04887   1.05060   1.06125   1.07609   1.10636
 Alpha virt. eigenvalues --    1.11698   1.12765   1.14610   1.15270   1.17190
 Alpha virt. eigenvalues --    1.18866   1.21064   1.22463   1.24309   1.27088
 Alpha virt. eigenvalues --    1.27722   1.29202   1.30497   1.30935   1.33151
 Alpha virt. eigenvalues --    1.34212   1.35215   1.37633   1.37891   1.39028
 Alpha virt. eigenvalues --    1.41376   1.41994   1.43283   1.43981   1.46929
 Alpha virt. eigenvalues --    1.48067   1.49447   1.50332   1.51165   1.52902
 Alpha virt. eigenvalues --    1.54926   1.56770   1.57010   1.58370   1.59023
 Alpha virt. eigenvalues --    1.61171   1.63774   1.65410   1.66718   1.67762
 Alpha virt. eigenvalues --    1.68121   1.69617   1.70564   1.71424   1.72426
 Alpha virt. eigenvalues --    1.75126   1.76346   1.77902   1.78341   1.81251
 Alpha virt. eigenvalues --    1.82865   1.84041   1.86375   1.87419   1.88388
 Alpha virt. eigenvalues --    1.89476   1.90945   1.93835   1.95541   1.97363
 Alpha virt. eigenvalues --    1.98894   1.99675   2.02058   2.03319   2.05237
 Alpha virt. eigenvalues --    2.06664   2.10150   2.11048   2.13103   2.17258
 Alpha virt. eigenvalues --    2.21219   2.22647   2.25050   2.27809   2.30821
 Alpha virt. eigenvalues --    2.31747   2.32089   2.35535   2.37529   2.39963
 Alpha virt. eigenvalues --    2.41378   2.43345   2.43485   2.46889   2.48071
 Alpha virt. eigenvalues --    2.48986   2.50017   2.52790   2.54836   2.55576
 Alpha virt. eigenvalues --    2.57454   2.60554   2.62257   2.64088   2.66722
 Alpha virt. eigenvalues --    2.69857   2.74593   2.75136   2.77017   2.78616
 Alpha virt. eigenvalues --    2.81318   2.83320   2.83621   2.85401   2.86239
 Alpha virt. eigenvalues --    2.87944   2.90373   2.91168   2.92257   2.93931
 Alpha virt. eigenvalues --    2.94458   2.96050   2.97582   2.99463   2.99872
 Alpha virt. eigenvalues --    3.00923   3.01784   3.02846   3.05210   3.07203
 Alpha virt. eigenvalues --    3.08485   3.10263   3.11076   3.13304   3.15019
 Alpha virt. eigenvalues --    3.17518   3.18054   3.19011   3.20613   3.21600
 Alpha virt. eigenvalues --    3.23561   3.24456   3.25315   3.27541   3.27762
 Alpha virt. eigenvalues --    3.29191   3.30731   3.32547   3.33579   3.35589
 Alpha virt. eigenvalues --    3.36967   3.40508   3.41692   3.43258   3.45008
 Alpha virt. eigenvalues --    3.45972   3.48181   3.50915   3.51724   3.53059
 Alpha virt. eigenvalues --    3.53936   3.56332   3.60361   3.62920   3.63255
 Alpha virt. eigenvalues --    3.65660   3.67821   3.68555   3.70437   3.72543
 Alpha virt. eigenvalues --    3.74507   3.76074   3.78917   3.79885   3.81876
 Alpha virt. eigenvalues --    3.82694   3.84889   3.87525   3.89629   3.92332
 Alpha virt. eigenvalues --    3.94146   3.94609   3.98470   4.00365   4.01921
 Alpha virt. eigenvalues --    4.06425   4.08826   4.11856   4.13778   4.15164
 Alpha virt. eigenvalues --    4.16227   4.17404   4.19037   4.22141   4.25342
 Alpha virt. eigenvalues --    4.27827   4.28082   4.30094   4.33855   4.35451
 Alpha virt. eigenvalues --    4.36392   4.38220   4.38743   4.40400   4.41927
 Alpha virt. eigenvalues --    4.45651   4.46213   4.49550   4.50063   4.52024
 Alpha virt. eigenvalues --    4.52424   4.53908   4.54957   4.57734   4.59368
 Alpha virt. eigenvalues --    4.61156   4.62206   4.63294   4.64524   4.65438
 Alpha virt. eigenvalues --    4.66395   4.67562   4.68771   4.70400   4.72345
 Alpha virt. eigenvalues --    4.72797   4.74647   4.76620   4.77390   4.79768
 Alpha virt. eigenvalues --    4.80755   4.82932   4.86422   4.89688   4.90073
 Alpha virt. eigenvalues --    4.91140   4.93328   4.94060   4.94544   4.97051
 Alpha virt. eigenvalues --    5.01960   5.02263   5.03970   5.07565   5.08571
 Alpha virt. eigenvalues --    5.10929   5.13929   5.15440   5.16227   5.17315
 Alpha virt. eigenvalues --    5.18642   5.19529   5.23644   5.26425   5.28465
 Alpha virt. eigenvalues --    5.31310   5.32638   5.34566   5.36223   5.38298
 Alpha virt. eigenvalues --    5.40917   5.41974   5.44898   5.47214   5.49061
 Alpha virt. eigenvalues --    5.53347   5.54216   5.58823   5.59687   5.66511
 Alpha virt. eigenvalues --    5.69414   5.73274   5.75753   5.79956   5.84093
 Alpha virt. eigenvalues --    5.88106   5.95110   6.08785   6.46717   6.68932
 Alpha virt. eigenvalues --    6.75350  10.02422  10.47418  10.67609  10.94958
 Alpha virt. eigenvalues --   11.25023  11.35113  11.54155  11.90901  11.99900
 Alpha virt. eigenvalues --   12.16580  12.39707  12.59952  12.94935
          Condensed to atoms (all electrons):
               1          2          3          4          5          6
     1  O    7.935468   0.202293  -0.020057  -0.001060  -0.000003  -0.000006
     2  S    0.202293  15.643725   0.289781  -0.056172   0.003178   0.000309
     3  C   -0.020057   0.289781   4.730898   0.538085  -0.013773  -0.027513
     4  C   -0.001060  -0.056172   0.538085   5.088673   0.448826  -0.018639
     5  C   -0.000003   0.003178  -0.013773   0.448826   4.539779   0.442374
     6  C   -0.000006   0.000309  -0.027513  -0.018639   0.442374   5.240844
     7  C    0.000075   0.003932  -0.010524  -0.033837  -0.044507   0.512036
     8  C    0.002296  -0.045719   0.445370  -0.014179  -0.026807  -0.045057
     9  C    0.000429  -0.002706  -0.043812   0.005320   0.002681   0.003960
    10  C    0.000027  -0.001248  -0.000856   0.000868  -0.000519   0.008458
    11  C   -0.000002   0.000012   0.003358   0.001188   0.006414  -0.061200
    12  C   -0.000000   0.000027   0.001935   0.001712  -0.081057   0.279620
    13  C   -0.000000   0.000030   0.000559   0.003683  -0.030410  -0.120944
    14  C    0.000000  -0.000024   0.000064  -0.039036   0.544402  -0.010619
    15  H    0.289066  -0.037416   0.002642  -0.000024  -0.000001   0.000000
    16  H   -0.000092   0.000225  -0.033964   0.362138  -0.041263   0.003002
    17  H   -0.000030   0.000449   0.001052  -0.000086  -0.000052  -0.000494
    18  H   -0.000000   0.000247   0.000705   0.000026   0.000061  -0.000430
    19  H   -0.000000   0.000003  -0.000085  -0.000052   0.000206  -0.003834
    20  H    0.000000  -0.000001   0.000006   0.000137  -0.011609  -0.056078
    21  H    0.000000  -0.000001   0.000059   0.000268  -0.011304  -0.016059
    22  H    0.000000  -0.000002  -0.000011   0.000874  -0.041539   0.005468
               7          8          9         10         11         12
     1  O    0.000075   0.002296   0.000429   0.000027  -0.000002  -0.000000
     2  S    0.003932  -0.045719  -0.002706  -0.001248   0.000012   0.000027
     3  C   -0.010524   0.445370  -0.043812  -0.000856   0.003358   0.001935
     4  C   -0.033837  -0.014179   0.005320   0.000868   0.001188   0.001712
     5  C   -0.044507  -0.026807   0.002681  -0.000519   0.006414  -0.081057
     6  C    0.512036  -0.045057   0.003960   0.008458  -0.061200   0.279620
     7  C    4.494949   0.448098  -0.083950  -0.005492   0.464815  -0.012281
     8  C    0.448098   4.851205   0.385597  -0.165086   0.021209   0.000908
     9  C   -0.083950   0.385597   5.480581   0.410738  -0.105347  -0.000487
    10  C   -0.005492  -0.165086   0.410738   5.169099   0.512544   0.000276
    11  C    0.464815   0.021209  -0.105347   0.512544   4.967624  -0.009842
    12  C   -0.012281   0.000908  -0.000487   0.000276  -0.009842   5.232780
    13  C   -0.003451  -0.000610  -0.000458  -0.000011  -0.006996   0.601867
    14  C   -0.001363   0.002551  -0.000111   0.000050   0.000185  -0.100319
    15  H   -0.000001  -0.000068  -0.000028  -0.000000   0.000000   0.000000
    16  H    0.000570   0.003377  -0.000130   0.000010   0.000021  -0.000210
    17  H   -0.000484   0.013452   0.305449  -0.041777  -0.000785   0.000028
    18  H    0.000386   0.003903  -0.040626   0.345451  -0.011762  -0.000001
    19  H   -0.039482   0.004536   0.007535  -0.041245   0.364437   0.006439
    20  H    0.003850  -0.000236   0.000006  -0.000007  -0.000154   0.348816
    21  H    0.008842  -0.000735   0.000054   0.000050   0.004549  -0.073432
    22  H    0.000435  -0.000152   0.000002  -0.000001  -0.000003   0.013905
              13         14         15         16         17         18
     1  O   -0.000000   0.000000   0.289066  -0.000092  -0.000030  -0.000000
     2  S    0.000030  -0.000024  -0.037416   0.000225   0.000449   0.000247
     3  C    0.000559   0.000064   0.002642  -0.033964   0.001052   0.000705
     4  C    0.003683  -0.039036  -0.000024   0.362138  -0.000086   0.000026
     5  C   -0.030410   0.544402  -0.000001  -0.041263  -0.000052   0.000061
     6  C   -0.120944  -0.010619   0.000000   0.003002  -0.000494  -0.000430
     7  C   -0.003451  -0.001363  -0.000001   0.000570  -0.000484   0.000386
     8  C   -0.000610   0.002551  -0.000068   0.003377   0.013452   0.003903
     9  C   -0.000458  -0.000111  -0.000028  -0.000130   0.305449  -0.040626
    10  C   -0.000011   0.000050  -0.000000   0.000010  -0.041777   0.345451
    11  C   -0.006996   0.000185   0.000000   0.000021  -0.000785  -0.011762
    12  C    0.601867  -0.100319   0.000000  -0.000210   0.000028  -0.000001
    13  C    5.099130   0.373137   0.000000  -0.000138  -0.000008  -0.000006
    14  C    0.373137   5.206669  -0.000000  -0.000880   0.000002  -0.000002
    15  H    0.000000  -0.000000   0.419547  -0.000006  -0.000000  -0.000000
    16  H   -0.000138  -0.000880  -0.000006   0.570810   0.000001  -0.000000
    17  H   -0.000008   0.000002  -0.000000   0.000001   0.558044   0.003243
    18  H   -0.000006  -0.000002  -0.000000  -0.000000   0.003243   0.545035
    19  H   -0.002312   0.000244   0.000000  -0.000000  -0.000787  -0.000033
    20  H   -0.093580  -0.008703   0.000000  -0.000010  -0.000001  -0.000000
    21  H    0.338267  -0.054261   0.000000  -0.000004  -0.000004  -0.000009
    22  H   -0.041811   0.318160   0.000000   0.000974  -0.000000   0.000000
              19         20         21         22
     1  O   -0.000000   0.000000   0.000000   0.000000
     2  S    0.000003  -0.000001  -0.000001  -0.000002
     3  C   -0.000085   0.000006   0.000059  -0.000011
     4  C   -0.000052   0.000137   0.000268   0.000874
     5  C    0.000206  -0.011609  -0.011304  -0.041539
     6  C   -0.003834  -0.056078  -0.016059   0.005468
     7  C   -0.039482   0.003850   0.008842   0.000435
     8  C    0.004536  -0.000236  -0.000735  -0.000152
     9  C    0.007535   0.000006   0.000054   0.000002
    10  C   -0.041245  -0.000007   0.000050  -0.000001
    11  C    0.364437  -0.000154   0.004549  -0.000003
    12  C    0.006439   0.348816  -0.073432   0.013905
    13  C   -0.002312  -0.093580   0.338267  -0.041811
    14  C    0.000244  -0.008703  -0.054261   0.318160
    15  H    0.000000   0.000000   0.000000   0.000000
    16  H   -0.000000  -0.000010  -0.000004   0.000974
    17  H   -0.000787  -0.000001  -0.000004  -0.000000
    18  H   -0.000033  -0.000000  -0.000009   0.000000
    19  H    0.580171  -0.000141  -0.001287  -0.000004
    20  H   -0.000141   0.718400   0.015921   0.005006
    21  H   -0.001287   0.015921   0.697298   0.004323
    22  H   -0.000004   0.005006   0.004323   0.612622
 Mulliken charges:
               1
     1  O   -0.408403
     2  S   -0.000922
     3  C    0.136083
     4  C   -0.288710
     5  C    0.314923
     6  C   -0.135198
     7  C    0.297385
     8  C    0.116149
     9  C   -0.324697
    10  C   -0.191330
    11  C   -0.150265
    12  C   -0.210684
    13  C   -0.115937
    14  C   -0.230143
    15  H    0.326289
    16  H    0.135570
    17  H    0.162791
    18  H    0.153812
    19  H    0.125692
    20  H    0.078378
    21  H    0.087465
    22  H    0.121752
 Sum of Mulliken charges =  -0.00000
 Mulliken charges with hydrogens summed into heavy atoms:
               1
     1  O   -0.082115
     2  S   -0.000922
     3  C    0.136083
     4  C   -0.153140
     5  C    0.314923
     6  C   -0.135198
     7  C    0.297385
     8  C    0.116149
     9  C   -0.161906
    10  C   -0.037518
    11  C   -0.024573
    12  C   -0.132305
    13  C   -0.028472
    14  C   -0.108391
 Electronic spatial extent (au):  <R**2>=           2858.2386
 Charge=              0.0000 electrons
 Dipole moment (field-independent basis, Debye):
    X=             -1.0698    Y=             -1.1128    Z=             -0.1819  Tot=              1.5543
 Quadrupole moment (field-independent basis, Debye-Ang):
   XX=            -80.9736   YY=            -83.2529   ZZ=            -88.5616
   XY=              4.1322   XZ=             -0.5155   YZ=             -0.5951
 Traceless Quadrupole moment (field-independent basis, Debye-Ang):
   XX=              3.2891   YY=              1.0098   ZZ=             -4.2989
   XY=              4.1322   XZ=             -0.5155   YZ=             -0.5951
 Octapole moment (field-independent basis, Debye-Ang**2):
  XXX=           -128.1543  YYY=            -15.0677  ZZZ=              0.3988  XYY=             -0.3018
  XXY=            -17.5028  XXZ=              6.0099  XZZ=            -12.5783  YZZ=              4.6035
  YYZ=              2.5286  XYZ=             -1.6485
 Hexadecapole moment (field-independent basis, Debye-Ang**3):
 XXXX=          -2107.5963 YYYY=          -1109.6666 ZZZZ=           -249.3465 XXXY=            115.4467
 XXXZ=            -60.4757 YYYX=              7.7648 YYYZ=              7.6900 ZZZX=             -9.6885
 ZZZY=             -8.4132 XXYY=           -600.0289 XXZZ=           -481.0267 YYZZ=           -221.9494
 XXYZ=            -19.8265 YYXZ=             -3.2528 ZZXY=              5.5977
 N-N= 9.064693217663D+02 E-N=-4.006701783248D+03  KE= 9.304238300707D+02
 PrsmSu:  requested number of processors reduced to:  13 ShMem   1 Linda.
 Calling FoFJK, ICntrl=      2127 FMM=F ISym2X=0 I1Cent= 0 IOpClX= 0 NMat=1 NMatS=1 NMatT=0.
 ***** Axes restored to original set *****
 -------------------------------------------------------------------
 Center     Atomic                   Forces (Hartrees/Bohr)
 Number     Number              X              Y              Z
 -------------------------------------------------------------------
      1        8          -0.025290540    0.015319505   -0.002554605
      2       16           0.017184938    0.003979590    0.008378834
      3        6          -0.040045977   -0.030072382   -0.021147891
      4        6           0.025612077   -0.016791218   -0.016043836
      5        6          -0.036998165    0.016532596    0.000648320
      6        6          -0.009622106   -0.012950175    0.019472926
      7        6          -0.014786860   -0.004269391    0.032812831
      8        6           0.049877462    0.032754239   -0.025874136
      9        6          -0.042416366   -0.034795019    0.023129849
     10        6           0.029778442    0.029287641    0.015938928
     11        6          -0.024639652   -0.018773893   -0.031686643
     12        6          -0.084311211   -0.008159645   -0.138379292
     13        6           0.078035684   -0.011012523    0.131912340
     14        6           0.074152317   -0.006704713   -0.069849063
     15        1           0.012420184   -0.024039274   -0.004857708
     16        1           0.000521342   -0.002740080    0.004821085
     17        1          -0.021684517    0.045053165    0.016653384
     18        1          -0.021833603   -0.032321828    0.011467396
     19        1           0.018103581   -0.000585770    0.008638855
     20        1          -0.021113172    0.021501516    0.000266272
     21        1           0.016175043    0.026155127    0.012013606
     22        1           0.020881098    0.012632532    0.024238549
 -------------------------------------------------------------------
 Cartesian Forces:  Max     0.138379292 RMS     0.036907845

 GradGradGradGradGradGradGradGradGradGradGradGradGradGradGradGradGradGrad
 Berny optimization.
 FormGI is forming the generalized inverse of G from B-inverse, IUseBI=4.
 Internal  Forces:  Max     0.158657873 RMS     0.022418550
 Search for a local minimum.
 Step number   1 out of a maximum of  131
 All quantities printed in internal units (Hartrees-Bohrs-Radians)
 Mixed Optimization -- RFO/linear search
 Second derivative matrix not updated -- first step.
 ITU=  0
     Eigenvalues ---    0.00949   0.01214   0.01338   0.01554   0.01625
     Eigenvalues ---    0.01685   0.01799   0.01878   0.02011   0.02115
     Eigenvalues ---    0.02371   0.02402   0.02761   0.03537   0.03953
     Eigenvalues ---    0.03997   0.04506   0.06149   0.06912   0.08143
     Eigenvalues ---    0.08425   0.10868   0.11394   0.11618   0.13679
     Eigenvalues ---    0.15010   0.15899   0.16000   0.18669   0.21451
     Eigenvalues ---    0.21644   0.22367   0.22671   0.23642   0.24430
     Eigenvalues ---    0.25000   0.26882   0.29719   0.29889   0.30436
     Eigenvalues ---    0.31028   0.31205   0.31308   0.31357   0.32127
     Eigenvalues ---    0.33680   0.34160   0.34440   0.34815   0.35131
     Eigenvalues ---    0.36105   0.36436   0.40882   0.48966   0.49073
     Eigenvalues ---    0.49477   0.50727   0.53603   0.57880   0.68774
 RFO step:  Lambda=-1.39045346D-01 EMin= 9.48912723D-03
 Linear search not attempted -- first point.
 Maximum step size (   0.300) exceeded in Quadratic search.
    -- Step size scaled by   0.705
 Iteration  1 RMS(Cart)=  0.08653056 RMS(Int)=  0.00258636
 Iteration  2 RMS(Cart)=  0.00312669 RMS(Int)=  0.00057114
 Iteration  3 RMS(Cart)=  0.00000362 RMS(Int)=  0.00057113
 Iteration  4 RMS(Cart)=  0.00000000 RMS(Int)=  0.00057113
 Variable       Old X    -DE/DX   Delta X   Delta X   Delta X     New X
                                 (Linear)    (Quad)   (Total)
    R1        3.14072   0.01179   0.00000   0.01517   0.01517   3.15590
    R2        1.87624  -0.02644   0.00000  -0.02966  -0.02966   1.84658
    R3        3.31885  -0.00435   0.00000  -0.00700  -0.00700   3.31185
    R4        2.58471   0.01528   0.00000   0.01689   0.01693   2.60164
    R5        2.82724  -0.02901   0.00000  -0.04203  -0.04196   2.78528
    R6        2.78981  -0.03050   0.00000  -0.04507  -0.04513   2.74468
    R7        2.05462  -0.00274   0.00000  -0.00395  -0.00395   2.05067
    R8        2.77100   0.02505   0.00000   0.03114   0.03097   2.80196
    R9        2.56353   0.05501   0.00000   0.05559   0.05553   2.61906
   R10        2.50858   0.05147   0.00000   0.04899   0.04888   2.55746
   R11        2.84290   0.00643   0.00000   0.00469   0.00540   2.84829
   R12        2.81027   0.00114   0.00000   0.00184   0.00157   2.81184
   R13        2.74632   0.00534   0.00000   0.00468   0.00449   2.75081
   R14        2.56643   0.06103   0.00000   0.06582   0.06578   2.63221
   R15        2.84766   0.02494   0.00000   0.04072   0.04106   2.88871
   R16        2.12324  -0.01099   0.00000  -0.01718  -0.01718   2.10605
   R17        2.54708   0.03075   0.00000   0.03063   0.03085   2.57793
   R18        2.07061  -0.00239   0.00000  -0.00351  -0.00351   2.06710
   R19        2.03918   0.00290   0.00000   0.00409   0.00409   2.04327
   R20        2.41456   0.15866   0.00000   0.13348   0.13266   2.54722
   R21        2.12036  -0.00304   0.00000  -0.00473  -0.00473   2.11563
   R22        2.91991  -0.00713   0.00000  -0.01158  -0.01134   2.90857
   R23        2.12129  -0.00568   0.00000  -0.00886  -0.00886   2.11243
   R24        2.05976   0.00489   0.00000   0.00708   0.00708   2.06684
    A1        1.92002  -0.01394   0.00000  -0.03288  -0.03288   1.88714
    A2        1.81169  -0.02301   0.00000  -0.04170  -0.04170   1.76999
    A3        2.06628  -0.00829   0.00000  -0.01471  -0.01482   2.05145
    A4        2.16914  -0.01606   0.00000  -0.02901  -0.02917   2.13997
    A5        2.02818   0.02537   0.00000   0.04668   0.04680   2.07499
    A6        2.05398   0.00662   0.00000   0.00865   0.00853   2.06251
    A7        2.12539  -0.00309   0.00000  -0.00404  -0.00407   2.12132
    A8        2.09870  -0.00325   0.00000  -0.00365  -0.00359   2.09511
    A9        2.14420  -0.02236   0.00000  -0.04385  -0.04324   2.10096
   A10        2.31014  -0.02384   0.00000  -0.02619  -0.02636   2.28378
   A11        1.77300   0.04561   0.00000   0.07040   0.07010   1.84310
   A12        1.88976   0.01617   0.00000   0.05397   0.05320   1.94296
   A13        1.84503  -0.02404   0.00000  -0.05734  -0.05841   1.78662
   A14        2.25585   0.01731   0.00000   0.04018   0.04106   2.29691
   A15        2.10506  -0.01332   0.00000  -0.02498  -0.02522   2.07984
   A16        2.25744   0.01239   0.00000   0.02971   0.03028   2.28773
   A17        1.87675   0.00226   0.00000   0.00161   0.00113   1.87788
   A18        2.08536  -0.01064   0.00000  -0.01978  -0.01946   2.06590
   A19        2.31454   0.00138   0.00000  -0.00168  -0.00183   2.31272
   A20        1.81738   0.01088   0.00000   0.02690   0.02660   1.84398
   A21        1.83724  -0.01753   0.00000  -0.02439  -0.02449   1.81275
   A22        2.06311   0.00480   0.00000   0.02598   0.02635   2.08946
   A23        1.53594   0.02376   0.00000   0.06729   0.06724   1.60318
   A24        1.89677  -0.00003   0.00000   0.00448   0.00439   1.90116
   A25        1.82869   0.01476   0.00000   0.04046   0.03975   1.86843
   A26        2.18973  -0.00263   0.00000   0.00453   0.00376   2.19350
   A27        1.84821   0.00868   0.00000   0.01332   0.01305   1.86127
   A28        2.13082  -0.00502   0.00000  -0.00778  -0.00802   2.12280
   A29        2.26507  -0.00063   0.00000   0.00410   0.00392   2.26898
   A30        1.76938  -0.00762   0.00000  -0.01425  -0.01504   1.75434
   A31        2.00468  -0.00126   0.00000  -0.01837  -0.01715   1.98754
   A32        1.86033   0.01298   0.00000   0.04954   0.04885   1.90919
   A33        1.79891  -0.00888   0.00000  -0.00513  -0.00685   1.79207
   A34        1.85873   0.01981   0.00000   0.06778   0.06767   1.92641
   A35        2.06299  -0.00192   0.00000  -0.01981  -0.01896   2.04403
   A36        1.90428  -0.02680   0.00000  -0.06294  -0.06337   1.84091
   A37        2.02457   0.01503   0.00000   0.05905   0.05826   2.08284
   A38        2.01011   0.02522   0.00000   0.06352   0.06388   2.07399
    D1       -2.89465   0.00197   0.00000   0.00883   0.00883  -2.88582
    D2        2.15290   0.00126   0.00000   0.01576   0.01611   2.16900
    D3       -1.20847   0.01007   0.00000   0.03803   0.03768  -1.17079
    D4        2.86281   0.00162   0.00000   0.00902   0.00907   2.87188
    D5       -0.17034  -0.00117   0.00000  -0.00085  -0.00050  -0.17083
    D6       -0.07664  -0.00166   0.00000  -0.00264  -0.00249  -0.07913
    D7       -3.10979  -0.00445   0.00000  -0.01252  -0.01206  -3.12184
    D8       -2.85354  -0.00384   0.00000  -0.01414  -0.01397  -2.86751
    D9       -0.16036   0.00351   0.00000   0.00918   0.00902  -0.15134
   D10        0.07263   0.00108   0.00000   0.00090   0.00070   0.07333
   D11        2.76581   0.00843   0.00000   0.02423   0.02369   2.78950
   D12        0.43563  -0.00583   0.00000  -0.02884  -0.02799   0.40764
   D13       -2.28430  -0.01361   0.00000  -0.04494  -0.04437  -2.32867
   D14       -2.81268  -0.00309   0.00000  -0.01917  -0.01861  -2.83129
   D15        0.75058  -0.01087   0.00000  -0.03526  -0.03500   0.71559
   D16       -0.74660   0.00517   0.00000   0.02987   0.02938  -0.71722
   D17        3.06294  -0.01123   0.00000  -0.02118  -0.02098   3.04196
   D18        2.08115   0.00071   0.00000   0.02908   0.02840   2.10955
   D19       -0.39249  -0.01569   0.00000  -0.02197  -0.02197  -0.41446
   D20        2.75381  -0.01519   0.00000  -0.03160  -0.03218   2.72163
   D21       -1.22469   0.00866   0.00000   0.05207   0.05168  -1.17302
   D22       -0.02917  -0.01277   0.00000  -0.02903  -0.02984  -0.05901
   D23        2.27551   0.01108   0.00000   0.05465   0.05402   2.32953
   D24        0.72306  -0.00049   0.00000  -0.01987  -0.02070   0.70235
   D25       -2.06317  -0.00564   0.00000  -0.04397  -0.04497  -2.10815
   D26        2.98590  -0.00064   0.00000  -0.00088   0.00019   2.98609
   D27        0.19967  -0.00578   0.00000  -0.02497  -0.02407   0.17559
   D28        0.74503   0.00624   0.00000   0.04264   0.04054   0.78558
   D29       -1.25284  -0.00399   0.00000   0.00049  -0.00073  -1.25357
   D30       -1.53403  -0.00775   0.00000  -0.01539  -0.01617  -1.55021
   D31        2.75128  -0.01798   0.00000  -0.05754  -0.05744   2.69383
   D32       -0.45218   0.00721   0.00000   0.02885   0.02879  -0.42338
   D33        3.02466   0.00240   0.00000   0.01485   0.01500   3.03967
   D34        2.40334   0.01407   0.00000   0.05496   0.05487   2.45821
   D35       -0.40300   0.00926   0.00000   0.04096   0.04108  -0.36192
   D36        2.93551  -0.00620   0.00000  -0.01456  -0.01394   2.92158
   D37       -0.47619   0.00416   0.00000   0.01902   0.01926  -0.45694
   D38        0.11335  -0.00795   0.00000  -0.03098  -0.03099   0.08237
   D39        2.98483   0.00242   0.00000   0.00260   0.00220   2.98703
   D40       -2.24043  -0.01126   0.00000  -0.05231  -0.05210  -2.29253
   D41        2.36636  -0.03097   0.00000  -0.12660  -0.12674   2.23962
   D42        0.50144  -0.00850   0.00000  -0.03942  -0.03907   0.46237
   D43       -1.17496  -0.02821   0.00000  -0.11371  -0.11371  -1.28867
   D44       -0.46297   0.00759   0.00000   0.02784   0.02731  -0.43567
   D45        1.91527   0.01546   0.00000   0.06789   0.06810   1.98337
   D46        1.60932   0.01761   0.00000   0.07189   0.07132   1.68064
   D47       -2.29562   0.02548   0.00000   0.11194   0.11212  -2.18350
   D48        0.19439   0.00759   0.00000   0.01201   0.01172   0.20611
   D49       -2.64861  -0.00313   0.00000  -0.02277  -0.02291  -2.67152
   D50       -1.98451  -0.01252   0.00000  -0.05882  -0.05900  -2.04351
   D51        1.45568  -0.02323   0.00000  -0.09359  -0.09364   1.36204
   D52       -0.71488  -0.03057   0.00000  -0.09272  -0.09438  -0.80926
   D53        1.46818  -0.02771   0.00000  -0.08492  -0.08560   1.38258
   D54        1.38809  -0.03022   0.00000  -0.09966  -0.10090   1.28719
   D55       -2.71204  -0.02735   0.00000  -0.09186  -0.09212  -2.80416
   D56        0.51688   0.01075   0.00000   0.06025   0.05866   0.57555
   D57       -1.79542  -0.00780   0.00000  -0.02101  -0.02217  -1.81759
   D58       -1.52660  -0.00667   0.00000  -0.01050  -0.01095  -1.53755
   D59        2.44429  -0.02522   0.00000  -0.09175  -0.09179   2.35250
         Item               Value     Threshold  Converged?
 Maximum Force            0.158658     0.000450     NO 
 RMS     Force            0.022419     0.000300     NO 
 Maximum Displacement     0.332415     0.001800     NO 
 RMS     Displacement     0.086519     0.001200     NO 
 Predicted change in Energy=-8.003477D-02
 GradGradGradGradGradGradGradGradGradGradGradGradGradGradGradGradGradGrad

                          Input orientation:                          
 ---------------------------------------------------------------------
 Center     Atomic      Atomic             Coordinates (Angstroms)
 Number     Number       Type             X           Y           Z
 ---------------------------------------------------------------------
      1          8           0        0.965041   -0.299288   -0.110270
      2         16           0        2.497465   -0.665425    0.443456
      3          6           0        2.842610   -2.139032   -0.440177
      4          6           0        3.984853   -2.168015   -1.208177
      5          6           0        4.470379   -3.457818   -1.666654
      6          6           0        3.544813   -4.610777   -1.778531
      7          6           0        2.693243   -4.661989   -0.727932
      8          6           0        2.111469   -3.396776   -0.203713
      9          6           0        1.188967   -3.781038    0.766601
     10          6           0        1.713306   -5.130842    1.256339
     11          6           0        2.466715   -5.697157    0.270103
     12          6           0        4.416687   -5.664305   -2.412347
     13          6           0        5.539738   -5.527733   -1.679530
     14          6           0        5.744779   -4.002475   -1.656681
     15          1           0        0.765333    0.624840    0.136632
     16          1           0        4.566431   -1.271037   -1.394697
     17          1           0        0.216798   -4.229914    0.457650
     18          1           0        2.021557   -4.996721    2.297266
     19          1           0        2.672569   -6.738398    0.063832
     20          1           0        4.650317   -5.470949   -3.490032
     21          1           0        5.425716   -6.041298   -0.693203
     22          1           0        6.519563   -3.564873   -2.292642
 ---------------------------------------------------------------------
                    Distance matrix (angstroms):
                    1          2          3          4          5
     1  O    0.000000
     2  S    1.670028   0.000000
     3  C    2.649294   1.752555   0.000000
     4  C    3.717096   2.682908   1.376729   0.000000
     5  C    4.968504   4.017763   2.427566   1.452422   0.000000
     6  C    5.294076   4.647576   2.897206   2.546767   1.482735
     7  C    4.733005   4.169293   2.543703   2.849350   2.342955
     8  C    3.304158   2.833390   1.473907   2.455273   2.776397
     9  C    3.597448   3.394649   2.624316   3.783989   4.097911
    10  C    5.076557   4.606044   3.620003   4.473490   4.352511
    11  C    5.615754   5.034811   3.647746   4.116417   3.574959
    12  C    6.782096   6.068594   4.335289   3.722976   2.329705
    13  C    7.122293   6.115925   4.504863   3.731963   2.329858
    14  C    6.241063   5.107987   3.657170   2.581422   1.385945
    15  H    0.977168   2.181560   3.505249   4.469212   5.800629
    16  H    3.945130   2.833054   2.153157   1.085170   2.205720
    17  H    4.041314   4.231694   3.474589   4.607022   4.816820
    18  H    5.383153   4.735317   4.041548   4.913679   4.906894
    19  H    6.663940   6.087346   4.630023   4.922245   4.121760
    20  H    7.193756   6.572684   4.865295   4.069285   2.722092
    21  H    7.294389   6.226288   4.686592   4.164566   2.921411
    22  H    6.802904   5.663065   4.357137   3.090637   2.145338
                    6          7          8          9         10
     6  C    0.000000
     7  C    1.353348   0.000000
     8  C    2.451188   1.487961   0.000000
     9  C    3.565974   2.296203   1.392903   0.000000
    10  C    3.582641   2.262174   2.301581   1.528642   0.000000
    11  C    2.557228   1.455665   2.375385   2.355984   1.364184
    12  C    1.507253   2.610010   3.915837   4.906178   4.588258
    13  C    2.197803   3.123714   4.297911   5.288073   4.839259
    14  C    2.285767   3.257208   3.959662   5.164955   5.100164
    15  H    6.229368   5.693405   4.254563   4.470804   5.939720
    16  H    3.513530   3.930899   3.458908   4.730601   5.483285
    17  H    4.027561   2.779402   2.172856   1.114474   1.920706
    18  H    4.368224   3.116894   2.970321   2.124624   1.093864
    19  H    2.946503   2.222340   3.398949   3.382446   2.219571
    20  H    2.211623   3.480482   4.641965   5.740703   5.591936
    21  H    2.600409   3.061064   4.268177   5.018949   4.290878
    22  H    3.194897   4.276998   4.880899   6.149875   6.176377
                   11         12         13         14         15
    11  C    0.000000
    12  C    3.316475   0.000000
    13  C    3.643246   1.347931   0.000000
    14  C    4.162949   2.257551   1.539147   0.000000
    15  H    6.548294   7.706038   7.996720   7.030142   0.000000
    16  H    5.174061   4.512077   4.375833   2.986285   4.515269
    17  H    2.692602   5.285209   5.880950   5.922896   4.896180
    18  H    2.190472   5.325671   5.336148   5.521286   6.152104
    19  H    1.081253   3.213578   3.567307   4.459138   7.606584
    20  H    4.354067   1.119542   2.017973   2.591416   8.087301
    21  H    3.130827   2.028724   1.117851   2.277475   8.175891
    22  H    5.247845   2.973892   2.277890   1.093725   7.521052
                   16         17         18         19         20
    16  H    0.000000
    17  H    5.577226   0.000000
    18  H    5.829897   2.688743   0.000000
    19  H    5.967082   3.532478   2.906112   0.000000
    20  H    4.694330   6.064690   6.374017   4.260031   0.000000
    21  H    4.897536   5.633686   4.649984   2.939195   2.957836
    22  H    3.143679   6.908780   6.584034   5.515759   2.925910
                   21         22
    21  H    0.000000
    22  H    3.144422   0.000000
 Stoichiometry    C12H8OS
 Framework group  C1[X(C12H8OS)]
 Deg. of freedom    60
 Full point group                 C1      NOp   1
 Largest Abelian subgroup         C1      NOp   1
 Largest concise Abelian subgroup C1      NOp   1
                         Standard orientation:                         
 ---------------------------------------------------------------------
 Center     Atomic      Atomic             Coordinates (Angstroms)
 Number     Number       Type             X           Y           Z
 ---------------------------------------------------------------------
      1          8           0       -3.605769   -0.353375    0.801017
      2         16           0       -2.721641   -0.822340   -0.535913
      3          6           0       -1.081962   -0.549796    0.019625
      4          6           0       -0.208449   -1.612810   -0.028946
      5          6           0        1.212534   -1.338917    0.094828
      6          6           0        1.682162   -0.101239    0.762741
      7          6           0        0.923704    0.964101    0.414398
      8          6           0       -0.549985    0.796959    0.294680
      9          6           0       -1.055422    2.074032    0.062738
     10          6           0        0.106405    2.812696   -0.601550
     11          6           0        1.277768    2.220707   -0.229451
     12          6           0        3.176102   -0.298571    0.794546
     13          6           0        3.393228   -0.736341   -0.461691
     14          6           0        2.291607   -1.795409   -0.645482
     15          1           0       -4.519737   -0.681230    0.691338
     16          1           0       -0.550796   -2.619436   -0.245961
     17          1           0       -1.095409    2.812247    0.896700
     18          1           0       -0.198911    3.033207   -1.628534
     19          1           0        2.272977    2.636388   -0.152800
     20          1           0        3.514857   -1.077881    1.523447
     21          1           0        3.399044    0.122257   -1.177489
     22          1           0        2.564226   -2.853586   -0.598846
 ---------------------------------------------------------------------
 Rotational constants (GHZ):           1.1236086           0.5073861           0.3799826
 Standard basis: 6-31G(2df,p) (6D, 7F)
 There are   478 symmetry adapted cartesian basis functions of A   symmetry.
 There are   436 symmetry adapted basis functions of A   symmetry.
   436 basis functions,   696 primitive gaussians,   478 cartesian basis functions
    52 alpha electrons       52 beta electrons
       nuclear repulsion energy       902.1809557832 Hartrees.
 NAtoms=   22 NActive=   22 NUniq=   22 SFac= 1.00D+00 NAtFMM=   60 NAOKFM=F Big=F
 Integral buffers will be    131072 words long.
 Raffenetti 2 integral format.
 Two-electron integral symmetry is turned on.
 One-electron integrals computed using PRISM.
 PrsmSu:  requested number of processors reduced to:  13 ShMem   1 Linda.
 NBasis=   436 RedAO= T EigKep=  2.53D-04  NBF=   436
 NBsUse=   436 1.00D-06 EigRej= -1.00D+00 NBFU=   436
 Initial guess from the checkpoint file:  "OSc1cc2cqc3c1dCCdC3rCdCCd2.chk"
 B after Tr=     0.000000   -0.000000   -0.000000
         Rot=    0.999826    0.003336    0.000186   -0.018338 Ang=   2.14 deg.
 ExpMin= 1.17D-01 ExpMax= 2.19D+04 ExpMxC= 3.30D+03 IAcc=2 IRadAn=         4 AccDes= 0.00D+00
 Harris functional with IExCor=  402 and IRadAn=       4 diagonalized for initial guess.
 HarFok:  IExCor=  402 AccDes= 0.00D+00 IRadAn=         4 IDoV= 1 UseB2=F ITyADJ=14
 ICtDFT=  3500011 ScaDFX=  1.000000  1.000000  1.000000  1.000000
 FoFCou: FMM=F IPFlag=           0 FMFlag=      100000 FMFlg1=           0
         NFxFlg=           0 DoJE=T BraDBF=F KetDBF=T FulRan=T
         wScrn=  0.000000 ICntrl=       500 IOpCl=  0 I1Cent=   200000004 NGrid=           0
         NMat0=    1 NMatS0=      1 NMatT0=    0 NMatD0=    1 NMtDS0=    0 NMtDT0=    0
 Petite list used in FoFCou.
 Requested convergence on RMS density matrix=1.00D-08 within 128 cycles.
 Requested convergence on MAX density matrix=1.00D-06.
 Requested convergence on             energy=1.00D-06.
 No special actions if energy rises.
 Integral accuracy reduced to 1.0D-05 until final iterations.
 Initial convergence to 1.0D-05 achieved.  Increase integral accuracy.
 SCF Done:  E(RB3LYP) =  -935.037467098     A.U. after   19 cycles
            NFock= 19  Conv=0.36D-08     -V/T= 2.0055
 PrsmSu:  requested number of processors reduced to:  13 ShMem   1 Linda.
 Calling FoFJK, ICntrl=      2127 FMM=F ISym2X=0 I1Cent= 0 IOpClX= 0 NMat=1 NMatS=1 NMatT=0.
 ***** Axes restored to original set *****
 -------------------------------------------------------------------
 Center     Atomic                   Forces (Hartrees/Bohr)
 Number     Number              X              Y              Z
 -------------------------------------------------------------------
      1        8          -0.018216113    0.005637742   -0.001750798
      2       16           0.012395857    0.005313983    0.004730218
      3        6          -0.031694201   -0.019772867   -0.018026847
      4        6           0.017246619   -0.010379827   -0.011253695
      5        6          -0.024230356    0.012067235    0.005928309
      6        6           0.006891839   -0.016424720    0.037362019
      7        6          -0.005640019    0.001115643    0.017858986
      8        6           0.030982635    0.016902644   -0.013181591
      9        6          -0.009624207   -0.038458298    0.004698204
     10        6           0.029011485    0.030372797   -0.001034694
     11        6          -0.025734274   -0.008603754   -0.024569291
     12        6          -0.023308838   -0.001594992   -0.078165065
     13        6           0.019809016   -0.005402954    0.074162683
     14        6           0.029136843   -0.015254543   -0.068076703
     15        1           0.006627788   -0.011000926   -0.001973552
     16        1           0.000528445   -0.000577225    0.005458156
     17        1          -0.015389398    0.042855805    0.016528420
     18        1          -0.023009078   -0.030176572    0.008540948
     19        1           0.016341792   -0.000005123    0.010307038
     20        1          -0.014204817    0.013261495    0.007596863
     21        1           0.009408832    0.019629163    0.001395914
     22        1           0.012670151    0.010495294    0.023464478
 -------------------------------------------------------------------
 Cartesian Forces:  Max     0.078165065 RMS     0.023430284

 GradGradGradGradGradGradGradGradGradGradGradGradGradGradGradGradGradGrad
 Berny optimization.
 Using GEDIIS/GDIIS optimizer.
 FormGI is forming the generalized inverse of G from B-inverse, IUseBI=4.
 Internal  Forces:  Max     0.062505590 RMS     0.011904542
 Search for a local minimum.
 Step number   2 out of a maximum of  131
 All quantities printed in internal units (Hartrees-Bohrs-Radians)
 Mixed Optimization -- RFO/linear search
 Update second derivatives using D2CorX and points    1    2
 DE= -7.85D-02 DEPred=-8.00D-02 R= 9.81D-01
 TightC=F SS=  1.41D+00  RLast= 4.87D-01 DXNew= 5.0454D-01 1.4622D+00
 Trust test= 9.81D-01 RLast= 4.87D-01 DXMaxT set to 5.05D-01
 ITU=  1  0
 Use linear search instead of GDIIS.
 Linear search step of   0.599 exceeds DXMaxT=   0.505 but not scaled.
 Quartic linear search produced a step of  2.00000.
 Iteration  1 RMS(Cart)=  0.16686004 RMS(Int)=  0.01191170
 Iteration  2 RMS(Cart)=  0.01434698 RMS(Int)=  0.00364791
 Iteration  3 RMS(Cart)=  0.00019453 RMS(Int)=  0.00364324
 Iteration  4 RMS(Cart)=  0.00000041 RMS(Int)=  0.00364324
 Variable       Old X    -DE/DX   Delta X   Delta X   Delta X     New X
                                 (Linear)    (Quad)   (Total)
    R1        3.15590   0.01069   0.03035   0.00000   0.03035   3.18624
    R2        1.84658  -0.01226  -0.05932   0.00000  -0.05932   1.78726
    R3        3.31185   0.00031  -0.01400   0.00000  -0.01400   3.29785
    R4        2.60164   0.00699   0.03385   0.00000   0.03397   2.63561
    R5        2.78528  -0.02160  -0.08392   0.00000  -0.08350   2.70178
    R6        2.74468  -0.01834  -0.09027   0.00000  -0.09068   2.65400
    R7        2.05067  -0.00113  -0.00789   0.00000  -0.00789   2.04278
    R8        2.80196   0.00917   0.06193   0.00000   0.06072   2.86269
    R9        2.61906   0.02227   0.11106   0.00000   0.11088   2.72993
   R10        2.55746   0.01823   0.09776   0.00000   0.09727   2.65473
   R11        2.84829   0.00338   0.01080   0.00000   0.01594   2.86423
   R12        2.81184  -0.00270   0.00314   0.00000   0.00169   2.81353
   R13        2.75081  -0.00236   0.00898   0.00000   0.00795   2.75875
   R14        2.63221   0.02669   0.13155   0.00000   0.13113   2.76333
   R15        2.88871   0.00995   0.08212   0.00000   0.08413   2.97285
   R16        2.10605  -0.00842  -0.03437   0.00000  -0.03437   2.07168
   R17        2.57793   0.01080   0.06171   0.00000   0.06294   2.64088
   R18        2.06710  -0.00206  -0.00701   0.00000  -0.00701   2.06009
   R19        2.04327   0.00115   0.00818   0.00000   0.00818   2.05145
   R20        2.54722   0.06251   0.26531   0.00000   0.25868   2.80590
   R21        2.11563  -0.00799  -0.00947   0.00000  -0.00947   2.10616
   R22        2.90857  -0.01039  -0.02268   0.00000  -0.02001   2.88855
   R23        2.11243  -0.00875  -0.01772   0.00000  -0.01772   2.09471
   R24        2.06684  -0.00047   0.01416   0.00000   0.01416   2.08100
    A1        1.88714  -0.00782  -0.06575   0.00000  -0.06575   1.82139
    A2        1.76999  -0.01258  -0.08339   0.00000  -0.08339   1.68660
    A3        2.05145  -0.00318  -0.02965   0.00000  -0.03036   2.02109
    A4        2.13997  -0.00899  -0.05835   0.00000  -0.05917   2.08080
    A5        2.07499   0.01283   0.09361   0.00000   0.09419   2.16918
    A6        2.06251   0.00114   0.01707   0.00000   0.01606   2.07857
    A7        2.12132  -0.00223  -0.00813   0.00000  -0.00809   2.11323
    A8        2.09511   0.00127  -0.00717   0.00000  -0.00664   2.08847
    A9        2.10096  -0.00944  -0.08648   0.00000  -0.08251   2.01845
   A10        2.28378  -0.00844  -0.05272   0.00000  -0.05382   2.22996
   A11        1.84310   0.01780   0.14021   0.00000   0.13822   1.98132
   A12        1.94296   0.01025   0.10641   0.00000   0.10077   2.04374
   A13        1.78662  -0.01273  -0.11682   0.00000  -0.12236   1.66426
   A14        2.29691   0.01134   0.08212   0.00000   0.08652   2.38343
   A15        2.07984  -0.00819  -0.05044   0.00000  -0.05180   2.02804
   A16        2.28773   0.00661   0.06057   0.00000   0.06396   2.35169
   A17        1.87788   0.00265   0.00225   0.00000  -0.00081   1.87707
   A18        2.06590  -0.00237  -0.03892   0.00000  -0.03692   2.02898
   A19        2.31272  -0.00097  -0.00366   0.00000  -0.00471   2.30801
   A20        1.84398   0.00433   0.05319   0.00000   0.05142   1.89539
   A21        1.81275  -0.00733  -0.04898   0.00000  -0.04937   1.76338
   A22        2.08946   0.00394   0.05269   0.00000   0.05386   2.14332
   A23        1.60318   0.01844   0.13448   0.00000   0.13366   1.73684
   A24        1.90116   0.00015   0.00879   0.00000   0.00807   1.90923
   A25        1.86843   0.01201   0.07949   0.00000   0.07552   1.94395
   A26        2.19350  -0.00229   0.00753   0.00000   0.00267   2.19617
   A27        1.86127   0.00416   0.02611   0.00000   0.02467   1.88594
   A28        2.12280  -0.00155  -0.01604   0.00000  -0.01731   2.10549
   A29        2.26898  -0.00090   0.00784   0.00000   0.00665   2.27564
   A30        1.75434  -0.00674  -0.03008   0.00000  -0.03481   1.71953
   A31        1.98754   0.00044  -0.03429   0.00000  -0.02674   1.96080
   A32        1.90919   0.00860   0.09770   0.00000   0.09283   2.00202
   A33        1.79207  -0.00426  -0.01369   0.00000  -0.02375   1.76832
   A34        1.92641   0.01226   0.13535   0.00000   0.13355   2.05996
   A35        2.04403  -0.00050  -0.03793   0.00000  -0.03231   2.01172
   A36        1.84091  -0.01202  -0.12675   0.00000  -0.12980   1.71111
   A37        2.08284   0.00942   0.11653   0.00000   0.10892   2.19176
   A38        2.07399   0.01608   0.12776   0.00000   0.12842   2.20242
    D1       -2.88582   0.00143   0.01766   0.00000   0.01766  -2.86816
    D2        2.16900   0.00361   0.03222   0.00000   0.03440   2.20340
    D3       -1.17079   0.00890   0.07536   0.00000   0.07318  -1.09761
    D4        2.87188   0.00220   0.01814   0.00000   0.01772   2.88961
    D5       -0.17083  -0.00000  -0.00099   0.00000   0.00105  -0.16978
    D6       -0.07913  -0.00040  -0.00498   0.00000  -0.00438  -0.08351
    D7       -3.12184  -0.00260  -0.02411   0.00000  -0.02105   3.14029
    D8       -2.86751  -0.00271  -0.02794   0.00000  -0.02720  -2.89471
    D9       -0.15134   0.00155   0.01803   0.00000   0.01678  -0.13456
   D10        0.07333   0.00086   0.00141   0.00000  -0.00030   0.07303
   D11        2.78950   0.00512   0.04738   0.00000   0.04368   2.83318
   D12        0.40764  -0.00594  -0.05597   0.00000  -0.05009   0.35756
   D13       -2.32867  -0.00941  -0.08874   0.00000  -0.08461  -2.41327
   D14       -2.83129  -0.00398  -0.03723   0.00000  -0.03377  -2.86506
   D15        0.71559  -0.00745  -0.06999   0.00000  -0.06829   0.64730
   D16       -0.71722   0.00638   0.05876   0.00000   0.05548  -0.66174
   D17        3.04196  -0.00672  -0.04196   0.00000  -0.04080   3.00115
   D18        2.10955   0.00502   0.05679   0.00000   0.05261   2.16216
   D19       -0.41446  -0.00808  -0.04393   0.00000  -0.04367  -0.45813
   D20        2.72163  -0.00943  -0.06437   0.00000  -0.06868   2.65295
   D21       -1.17302   0.01113   0.10335   0.00000   0.10030  -1.07272
   D22       -0.05901  -0.00852  -0.05967   0.00000  -0.06541  -0.12442
   D23        2.32953   0.01204   0.10805   0.00000   0.10357   2.43310
   D24        0.70235  -0.00512  -0.04141   0.00000  -0.04573   0.65663
   D25       -2.10815  -0.00977  -0.08995   0.00000  -0.09551  -2.20366
   D26        2.98609   0.00134   0.00039   0.00000   0.00670   2.99279
   D27        0.17559  -0.00331  -0.04815   0.00000  -0.04309   0.13250
   D28        0.78558   0.00699   0.08109   0.00000   0.06738   0.85296
   D29       -1.25357   0.00066  -0.00145   0.00000  -0.00943  -1.26300
   D30       -1.55021  -0.00590  -0.03235   0.00000  -0.03769  -1.58789
   D31        2.69383  -0.01223  -0.11489   0.00000  -0.11449   2.57934
   D32       -0.42338   0.00569   0.05759   0.00000   0.05711  -0.36627
   D33        3.03967   0.00326   0.03001   0.00000   0.03070   3.07037
   D34        2.45821   0.01060   0.10974   0.00000   0.10879   2.56701
   D35       -0.36192   0.00816   0.08216   0.00000   0.08239  -0.27953
   D36        2.92158  -0.00287  -0.02787   0.00000  -0.02367   2.89791
   D37       -0.45694   0.00366   0.03851   0.00000   0.04037  -0.41657
   D38        0.08237  -0.00539  -0.06198   0.00000  -0.06173   0.02063
   D39        2.98703   0.00113   0.00440   0.00000   0.00231   2.98934
   D40       -2.29253  -0.01100  -0.10419   0.00000  -0.10250  -2.39502
   D41        2.23962  -0.03004  -0.25348   0.00000  -0.25435   1.98527
   D42        0.46237  -0.00818  -0.07814   0.00000  -0.07578   0.38658
   D43       -1.28867  -0.02722  -0.22743   0.00000  -0.22764  -1.51631
   D44       -0.43567   0.00646   0.05461   0.00000   0.05115  -0.38452
   D45        1.98337   0.01389   0.13621   0.00000   0.13734   2.12071
   D46        1.68064   0.01489   0.14264   0.00000   0.13959   1.82023
   D47       -2.18350   0.02232   0.22424   0.00000   0.22578  -1.95773
[...]
 Red. masses --      3.2112                 5.1227                 7.3948
 Frc consts  --      3.9702                 6.8849                11.0915
 IR Inten    --     42.8882                84.3799               189.8179
  Atom  AN      X      Y      Z        X      Y      Z        X      Y      Z
     1   8     0.00   0.00   0.00     0.00   0.00   0.00     0.01  -0.00  -0.00
     2  16    -0.00  -0.01  -0.00    -0.01  -0.00  -0.00    -0.00  -0.00   0.00
     3   6    -0.03   0.10  -0.01    -0.05   0.17  -0.00     0.04   0.22  -0.01
     4   6     0.01  -0.02   0.00     0.19  -0.01   0.02    -0.32  -0.12  -0.03
     5   6     0.01  -0.04   0.00    -0.17  -0.02  -0.02     0.41   0.15   0.04
     6   6    -0.12   0.09  -0.01     0.02  -0.04   0.00    -0.17   0.03  -0.02
     7   6     0.03   0.05   0.00    -0.00   0.05  -0.00     0.18  -0.08   0.02
     8   6     0.04  -0.08   0.01     0.07  -0.27   0.01    -0.03  -0.31   0.01
     9   6    -0.09  -0.18  -0.00    -0.14   0.11  -0.02    -0.04   0.17  -0.01
    10   6     0.05   0.23  -0.00     0.32   0.02   0.04    -0.01  -0.05   0.00
    11   6     0.11  -0.20   0.02    -0.21   0.09  -0.03    -0.03   0.07  -0.01
    12   6     0.05  -0.01   0.01    -0.00   0.02  -0.00     0.01  -0.03   0.02
    13   6    -0.00  -0.00  -0.01    -0.01   0.01  -0.01     0.00  -0.01   0.01
    14   6     0.00  -0.01  -0.00     0.05  -0.02   0.03    -0.09   0.01  -0.03
    15   1    -0.01   0.01  -0.00    -0.00   0.01  -0.00     0.01   0.02  -0.01
    16   1     0.11  -0.04   0.01    -0.24   0.08  -0.03     0.45  -0.28   0.06
    17   1    -0.14   0.39  -0.04    -0.15  -0.43   0.00    -0.04  -0.26  -0.00
    18   1    -0.44   0.06  -0.05    -0.44  -0.31  -0.04     0.00  -0.05   0.00
    19   1    -0.44   0.45  -0.06     0.02  -0.23   0.00     0.13  -0.12   0.02
    20   1    -0.01   0.07   0.04     0.05  -0.07   0.02    -0.04   0.09  -0.02
    21   1    -0.01  -0.00  -0.00    -0.00   0.02  -0.01     0.00  -0.01   0.01
    22   1     0.02   0.01   0.02     0.01  -0.07   0.03     0.05   0.13  -0.05
                     52                     53                     54
                      A                      A                      A
 Frequencies --   1648.8698              3153.0044              3184.3791
 Red. masses --     10.3583                 1.0915                 1.0900
 Frc consts  --     16.5925                 6.3930                 6.5123
 IR Inten    --    245.6983                 9.4102                 1.5675
  Atom  AN      X      Y      Z        X      Y      Z        X      Y      Z
     1   8     0.00   0.00   0.00     0.00  -0.00   0.00     0.00   0.00  -0.00
     2  16     0.00  -0.00  -0.00    -0.00  -0.00  -0.00     0.00  -0.00   0.00
     3   6    -0.00   0.02  -0.00     0.00   0.00   0.00    -0.00   0.00  -0.00
     4   6    -0.16  -0.06  -0.01     0.00   0.00   0.00    -0.02  -0.08   0.01
     5   6     0.24   0.18   0.02    -0.00   0.00   0.00     0.00   0.00   0.00
     6   6     0.37  -0.42   0.05    -0.00  -0.00   0.00     0.00   0.00   0.00
     7   6    -0.36   0.46  -0.05     0.00   0.00   0.00     0.00  -0.00   0.00
     8   6     0.00  -0.03  -0.00    -0.00  -0.00  -0.00     0.00   0.00  -0.00
     9   6    -0.00  -0.09   0.00     0.00   0.00   0.00    -0.00  -0.00  -0.00
    10   6     0.12   0.06   0.01    -0.00   0.00  -0.00     0.00   0.00   0.00
    11   6     0.00  -0.15   0.01    -0.00  -0.00   0.00    -0.00  -0.00  -0.00
    12   6    -0.12   0.01  -0.03    -0.00   0.00   0.00    -0.00   0.00   0.00
    13   6     0.01   0.00   0.02    -0.04   0.01  -0.08    -0.00   0.00  -0.00
    14   6    -0.07   0.04  -0.00    -0.00  -0.00   0.00     0.00  -0.00   0.00
    15   1    -0.01  -0.00  -0.00    -0.00   0.00   0.00     0.00  -0.00  -0.00
    16   1     0.01  -0.11  -0.01    -0.00  -0.01   0.00     0.18   0.98  -0.07
    17   1    -0.01  -0.01   0.02    -0.00  -0.00   0.00    -0.00   0.00  -0.00
    18   1    -0.14  -0.05  -0.02     0.00  -0.00   0.00     0.00  -0.00   0.00
    19   1    -0.25   0.10  -0.05     0.00   0.00  -0.00     0.00   0.00   0.00
    20   1    -0.05  -0.12  -0.10     0.01   0.01   0.00    -0.00  -0.00  -0.00
    21   1     0.04   0.01   0.01     0.52  -0.10   0.85     0.00  -0.00   0.01
    22   1    -0.06   0.04  -0.09     0.00  -0.01   0.00    -0.01   0.00  -0.00
                     55                     56                     57
                      A                      A                      A
 Frequencies --   3212.4975              3214.7722              3219.0393
 Red. masses --      1.0922                 1.0879                 1.0974
 Frc consts  --      6.6409                 6.6241                 6.7000
 IR Inten    --      3.4954                 8.5248                34.3734
  Atom  AN      X      Y      Z        X      Y      Z        X      Y      Z
     1   8     0.00  -0.00  -0.00    -0.00  -0.00  -0.00    -0.00   0.00  -0.00
     2  16    -0.00  -0.00  -0.00    -0.00   0.00  -0.00    -0.00  -0.00  -0.00
     3   6     0.00   0.00   0.00     0.00   0.00  -0.00     0.00  -0.00  -0.00
     4   6     0.00   0.00   0.00    -0.00  -0.00  -0.00    -0.00  -0.00  -0.00
     5   6    -0.00   0.00  -0.00     0.00   0.00   0.00     0.00   0.00   0.00
     6   6     0.00   0.00   0.00     0.00  -0.00   0.00     0.00  -0.00   0.00
     7   6    -0.00  -0.00  -0.00     0.00  -0.00   0.00    -0.00   0.00  -0.00
     8   6    -0.00   0.00  -0.00    -0.00  -0.00  -0.00    -0.00   0.00  -0.00
     9   6    -0.00   0.00  -0.00    -0.01   0.00  -0.00     0.00  -0.00   0.00
    10   6     0.00  -0.00   0.00     0.02  -0.06   0.00    -0.00   0.00  -0.00
    11   6     0.00   0.00   0.00     0.04   0.03   0.00     0.00   0.00   0.00
    12   6    -0.04  -0.03  -0.03     0.00   0.00   0.00    -0.05  -0.03  -0.03
    13   6     0.00   0.00  -0.00    -0.00   0.00  -0.00    -0.00  -0.00   0.00
    14   6     0.03  -0.04   0.03    -0.00   0.00  -0.00    -0.03   0.04  -0.03
    15   1     0.00  -0.00  -0.00     0.00   0.00   0.00    -0.00   0.00   0.00
    16   1    -0.00  -0.00   0.00     0.00   0.00  -0.00     0.00   0.01  -0.00
    17   1     0.01   0.00   0.00     0.11   0.00   0.01    -0.01  -0.00  -0.00
    18   1    -0.02   0.05  -0.00    -0.29   0.75  -0.06     0.02  -0.04   0.00
    19   1    -0.04  -0.03  -0.00    -0.43  -0.37  -0.03    -0.01  -0.01  -0.00
    20   1     0.49   0.32   0.34    -0.02  -0.02  -0.02     0.53   0.35   0.36
    21   1     0.00   0.00   0.00     0.00  -0.00   0.00    -0.01   0.00  -0.00
    22   1    -0.37   0.51  -0.36     0.04  -0.05   0.04     0.35  -0.48   0.33
                     58                     59                     60
                      A                      A                      A
 Frequencies --   3233.5348              3270.9865              3763.5887
 Red. masses --      1.0988                 1.0955                 1.0674
 Frc consts  --      6.7691                 6.9061                 8.9081
 IR Inten    --     12.9600                 1.4734                92.0218
  Atom  AN      X      Y      Z        X      Y      Z        X      Y      Z
     1   8    -0.00  -0.00  -0.00    -0.00  -0.00   0.00     0.01  -0.01  -0.06
     2  16    -0.00   0.00  -0.00     0.00   0.00  -0.00    -0.00   0.00   0.00
     3   6    -0.00  -0.00   0.00    -0.00   0.00  -0.00     0.00   0.00   0.00
     4   6    -0.00   0.00  -0.00    -0.00   0.00  -0.00    -0.00  -0.00  -0.00
     5   6     0.00   0.00   0.00     0.00   0.00   0.00     0.00   0.00  -0.00
     6   6     0.00  -0.00   0.00    -0.00   0.00   0.00    -0.00   0.00  -0.00
     7   6    -0.00   0.00  -0.00     0.00  -0.00   0.00     0.00  -0.00   0.00
     8   6     0.00   0.00   0.00     0.00  -0.00   0.00    -0.00  -0.00  -0.00
     9   6    -0.01   0.00  -0.00    -0.09  -0.00  -0.01     0.00  -0.00  -0.00
    10   6     0.02  -0.05   0.00    -0.00   0.02  -0.00    -0.00  -0.00  -0.00
    11   6    -0.06  -0.05  -0.00     0.00   0.00   0.00     0.00  -0.00  -0.00
    12   6    -0.00  -0.00  -0.00     0.00  -0.00  -0.00     0.00   0.00   0.00
    13   6     0.00  -0.00   0.00    -0.00  -0.00  -0.00    -0.00   0.00   0.00
    14   6    -0.00   0.00  -0.00    -0.00   0.00   0.00     0.00  -0.00   0.00
    15   1     0.00   0.00   0.00     0.00   0.00   0.00    -0.12   0.14   0.98
    16   1    -0.00  -0.00   0.00    -0.00   0.00  -0.00     0.00  -0.00  -0.00
    17   1     0.14   0.00   0.02     0.97   0.05   0.11    -0.00   0.00  -0.00
    18   1    -0.21   0.51  -0.04     0.06  -0.16   0.01     0.00  -0.00   0.00
    19   1     0.62   0.52   0.05    -0.03  -0.03  -0.00    -0.00  -0.00   0.00
    20   1     0.03   0.02   0.02    -0.00  -0.00  -0.00    -0.00  -0.00  -0.00
    21   1    -0.00   0.00   0.00     0.00  -0.00   0.00     0.00   0.00  -0.00
    22   1     0.01  -0.01   0.01     0.00  -0.00   0.00    -0.00   0.00  -0.00

 -------------------
 - Thermochemistry -
 -------------------
 Temperature   298.150 Kelvin.  Pressure   1.00000 Atm.
 Atom     1 has atomic number  8 and mass  15.99491
 Atom     2 has atomic number 16 and mass  31.97207
 Atom     3 has atomic number  6 and mass  12.00000
 Atom     4 has atomic number  6 and mass  12.00000
 Atom     5 has atomic number  6 and mass  12.00000
 Atom     6 has atomic number  6 and mass  12.00000
 Atom     7 has atomic number  6 and mass  12.00000
 Atom     8 has atomic number  6 and mass  12.00000
 Atom     9 has atomic number  6 and mass  12.00000
 Atom    10 has atomic number  6 and mass  12.00000
 Atom    11 has atomic number  6 and mass  12.00000
 Atom    12 has atomic number  6 and mass  12.00000
 Atom    13 has atomic number  6 and mass  12.00000
 Atom    14 has atomic number  6 and mass  12.00000
 Atom    15 has atomic number  1 and mass   1.00783
 Atom    16 has atomic number  1 and mass   1.00783
 Atom    17 has atomic number  1 and mass   1.00783
 Atom    18 has atomic number  1 and mass   1.00783
 Atom    19 has atomic number  1 and mass   1.00783
 Atom    20 has atomic number  1 and mass   1.00783
 Atom    21 has atomic number  1 and mass   1.00783
 Atom    22 has atomic number  1 and mass   1.00783
 Molecular mass:   200.02959 amu.
 Principal axes and moments of inertia in atomic units:
                           1         2         3
     Eigenvalues --  1706.925153398.695534953.15613
           X            0.99978  -0.02110  -0.00185
           Y            0.02110   0.99977  -0.00351
           Z            0.00192   0.00347   0.99999
 This molecule is an asymmetric top.
 Rotational symmetry number  1.
 Warning -- assumption of classical behavior for rotation
           may cause significant error
 Rotational temperatures (Kelvin)      0.05074     0.02548     0.01749
 Rotational constants (GHZ):           1.05731     0.53101     0.36436
 Zero-point vibrational energy     417694.6 (Joules/Mol)
                                   99.83140 (Kcal/Mol)
 Warning -- explicit consideration of  15 degrees of freedom as
           vibrations may cause significant error
 Vibrational temperatures:     92.65   134.27   174.34   246.01   270.77
          (Kelvin)            346.55   358.83   415.87   417.30   520.75
                              564.38   666.67   775.37   817.57   841.35
                              895.72   905.81   968.55  1060.48  1085.16
                             1094.74  1121.28  1130.33  1146.86  1157.54
                             1211.70  1226.49  1232.03  1263.43  1285.23
                             1311.68  1368.99  1460.58  1510.81  1563.84
                             1572.38  1579.36  1629.29  1685.54  1697.80
                             1738.48  1750.28  1788.01  1839.30  1919.80
                             1927.52  1979.34  2027.50  2084.20  2173.04
                             2295.62  2372.36  4536.47  4581.61  4622.07
                             4625.34  4631.48  4652.34  4706.22  5414.96
 
 Zero-point correction=                           0.159091 (Hartree/Particle)
 Thermal correction to Energy=                    0.170411
 Thermal correction to Enthalpy=                  0.171355
 Thermal correction to Gibbs Free Energy=         0.121628
 Sum of electronic and zero-point Energies=           -935.162266
 Sum of electronic and thermal Energies=              -935.150946
 Sum of electronic and thermal Enthalpies=            -935.150002
 Sum of electronic and thermal Free Energies=         -935.199729
 
                     E (Thermal)             CV                S
                      KCal/Mol        Cal/Mol-Kelvin    Cal/Mol-Kelvin
 Total                  106.935             45.263            104.661
 Electronic               0.000              0.000              0.000
 Translational            0.889              2.981             41.785
 Rotational               0.889              2.981             31.730
 Vibrational            105.157             39.301             31.146
 Vibration     1          0.597              1.971              4.318
 Vibration     2          0.602              1.954              3.589
 Vibration     3          0.609              1.932              3.082
 Vibration     4          0.626              1.878              2.425
 Vibration     5          0.633              1.856              2.246
 Vibration     6          0.658              1.778              1.796
 Vibration     7          0.662              1.764              1.735
 Vibration     8          0.686              1.694              1.480
 Vibration     9          0.686              1.692              1.474
 Vibration    10          0.736              1.551              1.114
 Vibration    11          0.760              1.487              0.992
 Vibration    12          0.821              1.331              0.756
 Vibration    13          0.894              1.164              0.568
 Vibration    14          0.924              1.100              0.508
 Vibration    15          0.942              1.064              0.477
                       Q            Log10(Q)             Ln(Q)
 Total Bot       0.113535D-55        -55.944869       -128.817821
 Total V=0       0.170633D+18         17.232063         39.678291
 Vib (Bot)       0.532091D-70        -70.274014       -161.811898
 Vib (Bot)    1  0.320512D+01          0.505844          1.164749
 Vib (Bot)    2  0.220190D+01          0.342797          0.789319
 Vib (Bot)    3  0.168606D+01          0.226872          0.522392
 Vib (Bot)    4  0.117822D+01          0.071226          0.164004
 Vib (Bot)    5  0.106418D+01          0.027017          0.062208
 Vib (Bot)    6  0.813756D+00         -0.089506         -0.206095
 Vib (Bot)    7  0.782795D+00         -0.106352         -0.244884
 Vib (Bot)    8  0.661944D+00         -0.179179         -0.412574
 Vib (Bot)    9  0.659327D+00         -0.180899         -0.416536
 Vib (Bot)   10  0.505757D+00         -0.296058         -0.681699
 Vib (Bot)   11  0.456934D+00         -0.340146         -0.783216
 Vib (Bot)   12  0.366051D+00         -0.436459         -1.004984
 Vib (Bot)   13  0.294295D+00         -0.531217         -1.223172
 Vib (Bot)   14  0.271314D+00         -0.566528         -1.304478
 Vib (Bot)   15  0.259342D+00         -0.586128         -1.349609
 Vib (V=0)       0.799682D+03          2.902918          6.684215
 Vib (V=0)    1  0.374388D+01          0.573322          1.320124
 Vib (V=0)    2  0.275795D+01          0.440587          1.014489
 Vib (V=0)    3  0.225863D+01          0.353845          0.814759
 Vib (V=0)    4  0.177992D+01          0.250401          0.576569
 Vib (V=0)    5  0.167579D+01          0.224220          0.516286
 Vib (V=0)    6  0.145509D+01          0.162890          0.375068
 Vib (V=0)    7  0.142885D+01          0.154988          0.356872
 Vib (V=0)    8  0.132956D+01          0.123708          0.284848
 Vib (V=0)    9  0.132747D+01          0.123026          0.283277
 Vib (V=0)   10  0.121119D+01          0.083212          0.191603
 Vib (V=0)   11  0.117734D+01          0.070902          0.163257
 Vib (V=0)   12  0.111967D+01          0.049091          0.113036
 Vib (V=0)   13  0.108018D+01          0.033496          0.077128
 Vib (V=0)   14  0.106887D+01          0.028924          0.066601
 Vib (V=0)   15  0.106326D+01          0.026638          0.061337
 Electronic      0.100000D+01          0.000000          0.000000
 Translational   0.111198D+09          8.046095         18.526819
 Rotational      0.191889D+07          6.283050         14.467257
 ***** Axes restored to original set *****
 -------------------------------------------------------------------
 Center     Atomic                   Forces (Hartrees/Bohr)
 Number     Number              X              Y              Z
 -------------------------------------------------------------------
      1        8           0.000029777    0.000002636    0.000006944
      2       16          -0.000017028    0.000003259    0.000004444
      3        6          -0.000058906   -0.000006260    0.000024497
      4        6           0.000051017   -0.000016091   -0.000046183
      5        6           0.000010482    0.000010814    0.000009648
      6        6           0.000034428    0.000027704    0.000020985
      7        6          -0.000065202   -0.000021474    0.000043977
      8        6           0.000076211   -0.000003119   -0.000056144
      9        6          -0.000031562    0.000011282    0.000010852
     10        6          -0.000012631    0.000005736    0.000011955
     11        6           0.000035887    0.000003444   -0.000020547
     12        6           0.000037580   -0.000017471   -0.000001199
     13        6          -0.000060071   -0.000001317   -0.000005792
     14        6          -0.000049324    0.000014558   -0.000007260
     15        1          -0.000011813    0.000001808   -0.000010038
     16        1          -0.000001050   -0.000005291    0.000006047
     17        1          -0.000003967   -0.000023897    0.000011424
     18        1          -0.000005027    0.000007985   -0.000000164
     19        1          -0.000000668    0.000000832   -0.000001639
     20        1           0.000008853    0.000016761    0.000000862
     21        1           0.000012433   -0.000008319   -0.000012404
     22        1           0.000020581   -0.000003580    0.000009732
 -------------------------------------------------------------------
 Cartesian Forces:  Max     0.000076211 RMS     0.000025359
 FormGI is forming the generalized inverse of G from B-inverse, IUseBI=4.

 GradGradGradGradGradGradGradGradGradGradGradGradGradGradGradGradGradGrad
 Berny optimization.
 Internal  Forces:  Max     0.000045532 RMS     0.000011710
 Search for a local minimum.
 Step number   1 out of a maximum of    2
 All quantities printed in internal units (Hartrees-Bohrs-Radians)
 Second derivative matrix not updated -- analytic derivatives used.
 ITU=  0
     Eigenvalues ---    0.00534   0.00647   0.00795   0.01031   0.01074
     Eigenvalues ---    0.01181   0.01308   0.01416   0.01526   0.01644
     Eigenvalues ---    0.02029   0.02106   0.02205   0.02354   0.02556
     Eigenvalues ---    0.02948   0.03646   0.03843   0.04441   0.07895
     Eigenvalues ---    0.07997   0.09451   0.10452   0.10752   0.11139
     Eigenvalues ---    0.11316   0.13749   0.14187   0.14390   0.15580
     Eigenvalues ---    0.16515   0.19237   0.19757   0.19899   0.21557
     Eigenvalues ---    0.21803   0.22290   0.24440   0.25069   0.26295
     Eigenvalues ---    0.29330   0.29892   0.31514   0.33397   0.34998
     Eigenvalues ---    0.35452   0.36278   0.36366   0.36489   0.36597
     Eigenvalues ---    0.36755   0.37012   0.37579   0.38087   0.45590
     Eigenvalues ---    0.46165   0.46752   0.49312   0.50839   0.52002
 Angle between quadratic step and forces=  64.24 degrees.
 Linear search not attempted -- first point.
slurmstepd: error: *** JOB 27447155 ON lewis4-r630-hpc4-node225 CANCELLED AT 2023-05-17T05:45:40 DUE TO TIME LIMIT ***
