### Starting Gaussian ###
 Entering Gaussian System, Link 0=g16
 Initial command:
 /cluster/software/gaussian/gaussian-16-A.03/avx2/g16/l1.exe "/local/scratch/linjian/Gau-24757.inp" -scrdir="/local/scratch/linjian/"
 Entering Link 1 = /cluster/software/gaussian/gaussian-16-A.03/avx2/g16/l1.exe PID=     24758.
  
 Copyright (c) 1988,1990,1992,1993,1995,1998,2003,2009,2016,
            Gaussian, Inc.  All Rights Reserved.
  
 This is part of the Gaussian(R) 16 program.  It is based on
 the Gaussian(R) 09 system (copyright 2009, Gaussian, Inc.),
 the Gaussian(R) 03 system (copyright 2003, Gaussian, Inc.),
 the Gaussian(R) 98 system (copyright 1998, Gaussian, Inc.),
 the Gaussian(R) 94 system (copyright 1995, Gaussian, Inc.),
 the Gaussian 92(TM) system (copyright 1992, Gaussian, Inc.),
 the Gaussian 90(TM) system (copyright 1990, Gaussian, Inc.),
 the Gaussian 88(TM) system (copyright 1988, Gaussian, Inc.),
 the Gaussian 86(TM) system (copyright 1986, Carnegie Mellon
 University), and the Gaussian 82(TM) system (copyright 1983,
 Carnegie Mellon University). Gaussian is a federally registered
 trademark of Gaussian, Inc.
  
 This software contains proprietary and confidential information,
 including trade secrets, belonging to Gaussian, Inc.
  
 This software is provided under written license and may be
 used, copied, transmitted, or stored only in accord with that
 written license.
  
 The following legend is applicable only to US Government
 contracts under FAR:
  
                    RESTRICTED RIGHTS LEGEND
  
 Use, reproduction and disclosure by the US Government is
 subject to restrictions as set forth in subparagraphs (a)
 and (c) of the Commercial Computer Software - Restricted
 Rights clause in FAR 52.227-19.
  
 Gaussian, Inc.
 340 Quinnipiac St., Bldg. 40, Wallingford CT 06492
  
  
 ---------------------------------------------------------------
 Warning -- This program may not be used in any manner that
 competes with the business of Gaussian, Inc. or will provide
 assistance to any competitor of Gaussian, Inc.  The licensee
 of this program is prohibited from giving any competitor of
 Gaussian, Inc. access to this program.  By using this program,
 the user acknowledges that Gaussian, Inc. is engaged in the
 business of creating and licensing software in the field of
 computational chemistry and represents and warrants to the
 licensee that it is not a competitor of Gaussian, Inc. and that
 it will not use this program in any manner prohibited above.
 ---------------------------------------------------------------
  

 Cite this work as:
 Gaussian 16, Revision A.03,
 M. J. Frisch, G. W. Trucks, H. B. Schlegel, G. E. Scuseria, 
 M. A. Robb, J. R. Cheeseman, G. Scalmani, V. Barone, 
 G. A. Petersson, H. Nakatsuji, X. Li, M. Caricato, A. V. Marenich, 
 J. Bloino, B. G. Janesko, R. Gomperts, B. Mennucci, H. P. Hratchian, 
 J. V. Ortiz, A. F. Izmaylov, J. L. Sonnenberg, D. Williams-Young, 
 F. Ding, F. Lipparini, F. Egidi, J. Goings, B. Peng, A. Petrone, 
 T. Henderson, D. Ranasinghe, V. G. Zakrzewski, J. Gao, N. Rega, 
 G. Zheng, W. Liang, M. Hada, M. Ehara, K. Toyota, R. Fukuda, 
 J. Hasegawa, M. Ishida, T. Nakajima, Y. Honda, O. Kitao, H. Nakai, 
 T. Vreven, K. Throssell, J. A. Montgomery, Jr., J. E. Peralta, 
 F. Ogliaro, M. J. Bearpark, J. J. Heyd, E. N. Brothers, K. N. Kudin, 
 V. N. Staroverov, T. A. Keith, R. Kobayashi, J. Normand, 
 K. Raghavachari, A. P. Rendell, J. C. Burant, S. S. Iyengar, 
 J. Tomasi, M. Cossi, J. M. Millam, M. Klene, C. Adamo, R. Cammi, 
 J. W. Ochterski, R. L. Martin, K. Morokuma, O. Farkas, 
 J. B. Foresman, and D. J. Fox, Gaussian, Inc., Wallingford CT, 2016.
 
 ******************************************
 Gaussian 16:  ES64L-G16RevA.03 25-Dec-2016
                19-May-2023 
 ******************************************
 %chk=S[SH]dCC1dNCdCCdCC2dCCdC2CdCC1.chk
 %NProcShared=20
 Will use up to   20 processors via shared memory.
 -----------------------------
 # opt freq b3lyp/6-31g(2df,p)
 -----------------------------
 1/18=20,19=15,26=3,38=1/1,3;
 2/9=110,12=2,17=6,18=5,40=1/2;
 3/5=1,6=6,7=104,11=2,25=1,30=1,71=1,74=-5/1,2,3;
 4//1;
 5/5=2,38=5/2;
 6/7=2,8=2,9=2,10=2,28=1/1;
 7//1,2,3,16;
 1/18=20,19=15,26=3/3(2);
 2/9=110/2;
 99//99;
 2/9=110/2;
 3/5=1,6=6,7=104,11=2,25=1,30=1,71=1,74=-5/1,2,3;
 4/5=5,16=3,69=1/1;
 5/5=2,38=5/2;
 7//1,2,3,16;
 1/18=20,19=15,26=3/3(-5);
 2/9=110/2;
 6/7=2,8=2,9=2,10=2,19=2,28=1/1;
 99/9=1/99;
 -------------------
 Title Card Required
 -------------------
 Symbolic Z-matrix:
 Charge =  0 Multiplicity = 1
 S                     1.38441  -0.06623   0.15344 
 S                     3.50049   0.19686  -0.20701 
 C                     4.53177  -0.85446   0.97441 
 C                     6.26293  -1.3308    1.4505 
 N                     5.80613  -2.19531   2.33059 
 C                     6.85147  -2.73227   2.86574 
 C                     7.12444  -3.63958   3.76578 
 C                     8.53726  -3.76035   3.81606 
 C                     9.32465  -4.45999   4.58911 
 C                     10.84667  -4.48642   4.63397 
 C                     11.33842  -5.40181   5.6121 
 C                     12.79454  -5.5843    5.74273 
 C                     11.83441  -3.67352   3.81302 
 C                     11.32775  -2.6652    2.7947 
 C                     10.11137  -1.82736   1.9041 
 C                     8.22727  -1.1252    1.26821 
 H                     0.75531   0.81285  -0.7035 
 H                     3.50617   1.34985   0.4149 
 H                     3.76068  -1.45043   1.59094 
 H                     7.72079  -2.34146   2.46805 
 H                     6.36493  -4.14674   4.2979 
 H                     9.014    -3.18396   3.0676 
 H                     8.77326  -5.08409   5.27386 
 H                     10.65058  -6.02111   6.21418 
 H                     13.62613  -6.18394   6.04824 
 H                     10.5503  -2.59836   3.54364 
 H                     10.70888  -1.20072   1.21096 
 H                     8.21277  -1.24938   0.15822 
 H                     8.21836  -0.01823   1.37358 
 
 Add virtual bond connecting atoms H20        and C16        Dist= 3.37D+00.
 Add virtual bond connecting atoms C4         and C3         Dist= 3.51D+00.

 GradGradGradGradGradGradGradGradGradGradGradGradGradGradGradGradGradGrad
 Berny optimization.
 Initialization pass.
                           ----------------------------
                           !    Initial Parameters    !
                           ! (Angstroms and Degrees)  !
 --------------------------                            --------------------------
 ! Name  Definition              Value          Derivative Info.                !
 --------------------------------------------------------------------------------
 ! R1    R(1,2)                  2.1626         estimate D2E/DX2                !
 ! R2    R(1,17)                 1.3795         estimate D2E/DX2                !
 ! R3    R(2,3)                  1.888          estimate D2E/DX2                !
 ! R4    R(2,18)                 1.31           estimate D2E/DX2                !
 ! R5    R(3,4)                  1.8575         estimate D2E/DX2                !
 ! R6    R(3,19)                 1.1532         estimate D2E/DX2                !
 ! R7    R(4,5)                  1.3155         estimate D2E/DX2                !
 ! R8    R(5,6)                  1.2913         estimate D2E/DX2                !
 ! R9    R(6,7)                  1.3068         estimate D2E/DX2                !
 ! R10   R(6,20)                 1.0328         estimate D2E/DX2                !
 ! R11   R(7,8)                  1.4189         estimate D2E/DX2                !
 ! R12   R(7,21)                 1.057          estimate D2E/DX2                !
 ! R13   R(8,9)                  1.3066         estimate D2E/DX2                !
 ! R14   R(8,22)                 1.0582         estimate D2E/DX2                !
 ! R15   R(9,10)                 1.5229         estimate D2E/DX2                !
 ! R16   R(9,23)                 1.0782         estimate D2E/DX2                !
 ! R17   R(10,11)                1.4271         estimate D2E/DX2                !
 ! R18   R(10,13)                1.52           estimate D2E/DX2                !
 ! R19   R(11,12)                1.4733         estimate D2E/DX2                !
 ! R20   R(11,24)                1.1042         estimate D2E/DX2                !
 ! R21   R(12,25)                1.0698         estimate D2E/DX2                !
 ! R22   R(13,14)                1.52           estimate D2E/DX2                !
 ! R23   R(14,15)                1.7247         estimate D2E/DX2                !
 ! R24   R(14,26)                1.0816         estimate D2E/DX2                !
 ! R25   R(15,27)                1.1091         estimate D2E/DX2                !
 ! R26   R(16,20)                1.782          estimate D2E/DX2                !
 ! R27   R(16,28)                1.117          estimate D2E/DX2                !
 ! R28   R(16,29)                1.112          estimate D2E/DX2                !
 ! A1    A(2,1,17)             105.377          estimate D2E/DX2                !
 ! A2    A(1,2,3)              111.2498         estimate D2E/DX2                !
 ! A3    A(1,2,18)              91.8446         estimate D2E/DX2                !
 ! A4    A(3,2,18)             100.9912         estimate D2E/DX2                !
 ! A5    A(2,3,4)              144.315          estimate D2E/DX2                !
 ! A6    A(2,3,19)             104.8969         estimate D2E/DX2                !
 ! A7    A(4,3,19)             110.7082         estimate D2E/DX2                !
 ! A8    A(3,4,5)               90.9381         estimate D2E/DX2                !
 ! A9    A(4,5,6)              105.6299         estimate D2E/DX2                !
 ! A10   A(5,6,7)              138.0068         estimate D2E/DX2                !
 ! A11   A(5,6,20)             111.375          estimate D2E/DX2                !
 ! A12   A(7,6,20)             110.6164         estimate D2E/DX2                !
 ! A13   A(6,7,8)              106.9473         estimate D2E/DX2                !
 ! A14   A(6,7,21)             121.9893         estimate D2E/DX2                !
 ! A15   A(8,7,21)             131.0579         estimate D2E/DX2                !
 ! A16   A(7,8,9)              131.8071         estimate D2E/DX2                !
 ! A17   A(7,8,22)             112.1597         estimate D2E/DX2                !
 ! A18   A(9,8,22)             116.0192         estimate D2E/DX2                !
 ! A19   A(8,9,10)             128.9775         estimate D2E/DX2                !
 ! A20   A(8,9,23)             112.1816         estimate D2E/DX2                !
 ! A21   A(10,9,23)            118.8401         estimate D2E/DX2                !
 ! A22   A(9,10,11)            112.0683         estimate D2E/DX2                !
 ! A23   A(9,10,13)            128.6278         estimate D2E/DX2                !
 ! A24   A(11,10,13)           119.2958         estimate D2E/DX2                !
 ! A25   A(10,11,12)           118.7372         estimate D2E/DX2                !
 ! A26   A(10,11,24)           121.256          estimate D2E/DX2                !
 ! A27   A(12,11,24)           119.8589         estimate D2E/DX2                !
 ! A28   A(11,12,25)           149.6572         estimate D2E/DX2                !
 ! A29   A(10,13,14)           120.0002         estimate D2E/DX2                !
 ! A30   A(13,14,15)           154.5917         estimate D2E/DX2                !
 ! A31   A(13,14,26)            79.4373         estimate D2E/DX2                !
 ! A32   A(15,14,26)            79.6649         estimate D2E/DX2                !
 ! A33   A(14,15,27)           102.546          estimate D2E/DX2                !
 ! A34   A(20,16,28)           126.1231         estimate D2E/DX2                !
 ! A35   A(20,16,29)           127.8331         estimate D2E/DX2                !
 ! A36   A(28,16,29)           101.8134         estimate D2E/DX2                !
 ! A37   A(6,20,16)            139.1828         estimate D2E/DX2                !
 ! D1    D(17,1,2,3)           176.1179         estimate D2E/DX2                !
 ! D2    D(17,1,2,18)           73.5735         estimate D2E/DX2                !
 ! D3    D(1,2,3,4)            179.1434         estimate D2E/DX2                !
 ! D4    D(1,2,3,19)             3.0429         estimate D2E/DX2                !
 ! D5    D(18,2,3,4)           -84.5004         estimate D2E/DX2                !
 ! D6    D(18,2,3,19)           99.3991         estimate D2E/DX2                !
 ! D7    D(2,3,4,5)           -175.6808         estimate D2E/DX2                !
 ! D8    D(19,3,4,5)             0.2902         estimate D2E/DX2                !
 ! D9    D(3,4,5,6)            179.8201         estimate D2E/DX2                !
 ! D10   D(4,5,6,7)           -179.2121         estimate D2E/DX2                !
 ! D11   D(4,5,6,20)             0.2465         estimate D2E/DX2                !
 ! D12   D(5,6,7,8)            177.7986         estimate D2E/DX2                !
 ! D13   D(5,6,7,21)            -1.4344         estimate D2E/DX2                !
 ! D14   D(20,6,7,8)            -1.6628         estimate D2E/DX2                !
 ! D15   D(20,6,7,21)          179.1043         estimate D2E/DX2                !
 ! D16   D(5,6,20,16)            0.9283         estimate D2E/DX2                !
 ! D17   D(7,6,20,16)         -179.4587         estimate D2E/DX2                !
 ! D18   D(6,7,8,9)            175.5152         estimate D2E/DX2                !
 ! D19   D(6,7,8,22)            -5.9325         estimate D2E/DX2                !
 ! D20   D(21,7,8,9)            -5.3476         estimate D2E/DX2                !
 ! D21   D(21,7,8,22)          173.2048         estimate D2E/DX2                !
 ! D22   D(7,8,9,10)          -176.467          estimate D2E/DX2                !
 ! D23   D(7,8,9,23)             3.2107         estimate D2E/DX2                !
 ! D24   D(22,8,9,10)            5.025          estimate D2E/DX2                !
 ! D25   D(22,8,9,23)         -175.2973         estimate D2E/DX2                !
 ! D26   D(8,9,10,11)         -179.1912         estimate D2E/DX2                !
 ! D27   D(8,9,10,13)            1.8659         estimate D2E/DX2                !
 ! D28   D(23,9,10,11)           1.1495         estimate D2E/DX2                !
 ! D29   D(23,9,10,13)        -177.7934         estimate D2E/DX2                !
 ! D30   D(9,10,11,12)         177.5879         estimate D2E/DX2                !
 ! D31   D(9,10,11,24)           2.0146         estimate D2E/DX2                !
 ! D32   D(13,10,11,12)         -3.359          estimate D2E/DX2                !
 ! D33   D(13,10,11,24)       -178.9323         estimate D2E/DX2                !
 ! D34   D(9,10,13,14)           0.6152         estimate D2E/DX2                !
 ! D35   D(11,10,13,14)       -178.2615         estimate D2E/DX2                !
 ! D36   D(10,11,12,25)       -157.1596         estimate D2E/DX2                !
 ! D37   D(24,11,12,25)         18.4772         estimate D2E/DX2                !
 ! D38   D(10,13,14,15)         -2.4219         estimate D2E/DX2                !
 ! D39   D(10,13,14,26)         32.7034         estimate D2E/DX2                !
 ! D40   D(13,14,15,27)       -175.7975         estimate D2E/DX2                !
 ! D41   D(26,14,15,27)        149.1068         estimate D2E/DX2                !
 ! D42   D(28,16,20,6)         -77.2537         estimate D2E/DX2                !
 ! D43   D(29,16,20,6)          75.3313         estimate D2E/DX2                !
 ! D44   D(20,16,28,29)        158.1907         estimate D2E/DX2                !
 --------------------------------------------------------------------------------
 Trust Radius=3.00D-01 FncErr=1.00D-07 GrdErr=1.00D-06 EigMax=2.50D+02 EigMin=1.00D-04
 Number of steps in this run=    119 maximum allowed number of steps=    174.
 GradGradGradGradGradGradGradGradGradGradGradGradGradGradGradGradGradGrad

                          Input orientation:                          
 ---------------------------------------------------------------------
 Center     Atomic      Atomic             Coordinates (Angstroms)
 Number     Number       Type             X           Y           Z
 ---------------------------------------------------------------------
      1         16           0        1.384410   -0.066230    0.153440
      2         16           0        3.500490    0.196860   -0.207010
      3          6           0        4.531770   -0.854460    0.974410
      4          6           0        6.262930   -1.330800    1.450500
      5          7           0        5.806130   -2.195310    2.330590
      6          6           0        6.851470   -2.732270    2.865740
      7          6           0        7.124440   -3.639580    3.765780
      8          6           0        8.537260   -3.760350    3.816060
      9          6           0        9.324650   -4.459990    4.589110
     10          6           0       10.846670   -4.486420    4.633970
     11          6           0       11.338420   -5.401810    5.612100
     12          6           0       12.794540   -5.584300    5.742730
     13          6           0       11.834410   -3.673520    3.813020
     14          6           0       11.327750   -2.665200    2.794700
     15          6           0       10.111370   -1.827360    1.904100
     16          6           0        8.227270   -1.125200    1.268210
     17          1           0        0.755310    0.812850   -0.703500
     18          1           0        3.506170    1.349850    0.414900
     19          1           0        3.760680   -1.450430    1.590940
     20          1           0        7.720790   -2.341460    2.468050
     21          1           0        6.364930   -4.146740    4.297900
     22          1           0        9.014000   -3.183960    3.067600
     23          1           0        8.773260   -5.084090    5.273860
     24          1           0       10.650580   -6.021110    6.214180
     25          1           0       13.626130   -6.183940    6.048240
     26          1           0       10.550300   -2.598360    3.543640
     27          1           0       10.708880   -1.200720    1.210960
     28          1           0        8.212770   -1.249380    0.158220
     29          1           0        8.218360   -0.018230    1.373580
 ---------------------------------------------------------------------
                    Distance matrix (angstroms):
                    1          2          3          4          5
     1  S    0.000000
     2  S    2.162622   0.000000
     3  C    3.346815   1.888006   0.000000
     4  C    5.203985   3.565412   1.857546   0.000000
     5  N    5.368852   4.180654   2.293708   1.315524   0.000000
     6  C    6.659811   5.408388   3.533314   2.076873   1.291297
     7  C    7.665884   6.605630   4.719171   3.381299   2.425619
     8  C    8.844466   7.563971   5.706411   4.083034   3.480667
     9  C   10.100877   8.866220   7.002685   5.386727   4.754963
    10  C   11.364312   9.966672   8.152391   6.411169   5.996815
    11  C   12.543831  11.253457   9.408350   7.723512   7.187224
    12  C   13.852087  12.457953  10.648081   8.898170   8.483267
    13  C   11.645066  10.029691   8.326665   6.489316   6.381447
    14  C   10.611358   8.858197   7.264818   5.407393   5.560979
    15  C    9.073380   7.228969   5.739581   3.906765   4.341932
    16  C    7.013477   5.125092   3.717034   1.983465   2.852316
    17  H    1.379454   2.856914   4.456114   6.290376   6.615551
    18  H    2.564276   1.310034   2.494772   3.982220   4.639811
    19  H    3.103075   2.452323   1.153200   2.509042   2.299085
    20  H    7.119256   5.604458   3.822562   2.045042   1.925144
    21  H    7.657199   6.882303   5.024457   4.005947   2.826773
    22  H    8.742037   7.249263   5.467943   3.690203   3.436720
    23  H   10.295277   9.259075   7.373281   5.916673   5.080526
    24  H   12.571996  11.446336   9.570230   7.996445   7.292991
    25  H   14.900831  13.504494  11.698482   9.945295   9.533231
    26  H   10.095478   8.460523   6.772358   4.936546   4.913358
    27  H    9.452574   7.478286   6.191328   4.454298   5.126377
    28  H    6.930106   4.942731   3.791027   2.340618   3.377261
    29  H    6.942184   4.980244   3.801258   2.356367   3.387388
                    6          7          8          9         10
     6  C    0.000000
     7  C    1.306827   0.000000
     8  C    2.191334   1.418864   0.000000
     9  C    3.474427   2.488347   1.306555   0.000000
    10  C    4.708004   3.914829   2.555294   1.522910   0.000000
    11  C    5.899293   4.926660   3.710343   2.447203   1.427058
    12  C    7.192442   6.311917   5.016302   3.825578   2.495774
    13  C    5.158777   4.710329   3.298295   2.742216   1.519999
    14  C    4.477346   4.422695   3.166917   3.233201   2.632716
    15  C    3.517181   3.958755   3.141634   3.841738   3.881167
    16  C    2.650962   3.711630   3.678539   4.832540   5.430230
    17  H    7.903829   8.964620  10.094520  11.368736  12.585960
    18  H    5.819051   7.015318   7.936870   9.221333  10.283265
    19  H    3.580672   4.564777   5.753486   7.000303   8.287854
    20  H    1.032767   1.929988   2.120614   3.399916   4.366141
    21  H    2.070876   1.056986   2.258425   2.990463   4.507141
    22  H    2.218402   2.065304   1.058158   2.009913   2.740182
    23  H    3.876000   2.660737   1.983221   1.078153   2.250710
    24  H    6.038357   4.909176   3.915116   2.614582   2.211513
    25  H    8.242472   7.345432   6.062426   4.858374   3.550652
    26  H    3.762821   3.587479   2.340249   2.461888   2.200324
    27  H    4.468059   5.032231   4.249022   4.893959   4.746768
    28  H    3.373835   4.462287   4.448602   5.583644   6.119493
    29  H    3.385401   4.475875   4.480052   5.593992   6.123959
                   11         12         13         14         15
    11  C    0.000000
    12  C    1.473313   0.000000
    13  C    2.543557   2.880401   0.000000
    14  C    3.927708   4.400398   1.519996   0.000000
    15  C    5.294489   6.004089   3.165620   1.724739   0.000000
    16  C    6.843831   7.795182   5.097200   3.783484   2.108843
    17  H   13.802573  15.080466  12.777829  11.666650  10.065095
    18  H   11.573242  12.757038  10.302478   9.108303   7.479375
    19  H    9.444854  10.767398   8.663999   7.757915   6.369569
    20  H    5.686654   6.854377   4.528267   3.636161   2.509424
    21  H    5.295085   6.744924   5.511285   5.392973   5.014540
    22  H    4.098325   5.216362   2.958045   2.386844   2.097216
    23  H    2.606798   4.079307   3.673473   4.303799   4.873614
    24  H    1.104154   2.238221   3.560646   4.838753   6.037804
    25  H    2.456738   1.069788   3.809026   5.315036   6.964713
    26  H    3.571973   4.334564   1.696312   1.081576   1.864187
    27  H    6.116822   6.640986   3.761951   2.244089   1.109116
    28  H    7.533735   8.424423   5.687732   4.319569   2.643263
    29  H    7.528795   8.426864   5.691031   4.323695   2.671683
                   16         17         18         19         20
    16  C    0.000000
    17  H    7.967049   0.000000
    18  H    5.398407   3.017684   0.000000
    19  H    4.490028   4.406715   3.047854   0.000000
    20  H    1.781973   8.278062   5.966927   4.152798   0.000000
    21  H    4.666587   9.004408   7.311819   4.623834   2.906156
    22  H    2.845214   9.919760   7.611074   5.725646   1.655795
    23  H    5.658281  11.609921   9.630541   7.203703   4.062300
    24  H    7.369192  13.873488  11.790051   9.472919   6.013068
    25  H    8.808361  16.130687  13.816877  11.815276   7.902876
    26  H    3.569909  11.207871   8.660089   7.157494   3.037930
    27  H    2.483419  10.334078   7.682327   6.963061   3.436604
    28  H    1.117009   7.785182   5.382747   4.681262   2.601922
    29  H    1.112009   7.791153   4.999544   4.687148   2.615882
                   21         22         23         24         25
    21  H    0.000000
    22  H    3.075411   0.000000
    23  H    2.762458   2.921649   0.000000
    24  H    5.054917   4.541892   2.299247   0.000000
    25  H    7.742022   6.257463   5.035840   2.984618   0.000000
    26  H    4.525893   1.711654   3.511465   4.342471   5.346974
    27  H    6.089182   3.202026   5.944270   6.947789   7.532736
    28  H    5.380163   3.584559   6.417860   8.086221   9.399292
    29  H    5.388084   3.677580   6.417401   8.085893   9.439937
                   26         27         28         29
    26  H    0.000000
    27  H    2.723957   0.000000
    28  H    4.329534   2.709464   0.000000
    29  H    4.099290   2.761778   1.729989   0.000000
 Stoichiometry    C13H13NS2
 Framework group  C1[X(C13H13NS2)]
 Deg. of freedom    81
 Full point group                 C1      NOp   1
 Largest Abelian subgroup         C1      NOp   1
 Largest concise Abelian subgroup C1      NOp   1
                         Standard orientation:                         
 ---------------------------------------------------------------------
 Center     Atomic      Atomic             Coordinates (Angstroms)
 Number     Number       Type             X           Y           Z
 ---------------------------------------------------------------------
      1         16           0       -6.533830   -0.925434   -0.003666
      2         16           0       -5.091272    0.684042   -0.078143
      3          6           0       -3.324530    0.023996    0.008626
      4          6           0       -1.531126    0.507876    0.002411
      5          7           0       -1.167666   -0.756397    0.013070
      6          6           0        0.123587   -0.747233    0.007659
      7          6           0        1.101009   -1.614633   -0.000054
      8          6           0        2.310345   -0.874534   -0.054233
      9          6           0        3.561947   -1.246367   -0.006087
     10          6           0        4.817608   -0.384684    0.002385
     11          6           0        6.007501   -1.171427    0.043447
     12          6           0        7.311302   -0.486555    0.002175
     13          6           0        4.928174    1.131272   -0.004624
     14          6           0        3.670592    1.985007   -0.008219
     15          6           0        1.966350    2.248179   -0.040248
     16          6           0       -0.111717    1.893260    0.013478
     17          1           0       -7.768122   -0.309766    0.015542
     18          1           0       -5.305305    0.990636    1.177397
     19          1           0       -3.437213   -1.123579    0.024254
     20          1           0        0.493142    0.217128    0.001000
     21          1           0        0.925051   -2.656698    0.018820
     22          1           0        2.138540    0.162457   -0.176015
     23          1           0        3.666674   -2.318551    0.037146
     24          1           0        5.965499   -2.274724    0.032106
     25          1           0        8.359768   -0.509159   -0.209143
     26          1           0        3.332250    1.136062    0.570248
     27          1           0        1.894170    3.353924   -0.087743
     28          1           0       -0.539415    2.445490   -0.858201
     29          1           0       -0.536005    2.458895    0.871733
 ---------------------------------------------------------------------
 Rotational constants (GHZ):           1.4222723           0.1074661           0.1000580
 Standard basis: 6-31G(2df,p) (6D, 7F)
 There are   569 symmetry adapted cartesian basis functions of A   symmetry.
 There are   521 symmetry adapted basis functions of A   symmetry.
   521 basis functions,   843 primitive gaussians,   569 cartesian basis functions
    65 alpha electrons       65 beta electrons
       nuclear repulsion energy      1051.5762655182 Hartrees.
 NAtoms=   29 NActive=   29 NUniq=   29 SFac= 1.00D+00 NAtFMM=   60 NAOKFM=F Big=F
 Integral buffers will be    131072 words long.
 Raffenetti 2 integral format.
 Two-electron integral symmetry is turned on.
 One-electron integrals computed using PRISM.
 PrsmSu:  requested number of processors reduced to:  12 ShMem   1 Linda.
 NBasis=   521 RedAO= T EigKep=  1.74D-04  NBF=   521
 NBsUse=   521 1.00D-06 EigRej= -1.00D+00 NBFU=   521
 ExpMin= 1.17D-01 ExpMax= 2.19D+04 ExpMxC= 3.30D+03 IAcc=3 IRadAn=         5 AccDes= 0.00D+00
 Harris functional with IExCor=  402 and IRadAn=       5 diagonalized for initial guess.
 HarFok:  IExCor=  402 AccDes= 0.00D+00 IRadAn=         5 IDoV= 1 UseB2=F ITyADJ=14
 ICtDFT=  3500011 ScaDFX=  1.000000  1.000000  1.000000  1.000000
 FoFCou: FMM=F IPFlag=           0 FMFlag=      100000 FMFlg1=           0
         NFxFlg=           0 DoJE=T BraDBF=F KetDBF=T FulRan=T
         wScrn=  0.000000 ICntrl=       500 IOpCl=  0 I1Cent=   200000004 NGrid=           0
         NMat0=    1 NMatS0=      1 NMatT0=    0 NMatD0=    1 NMtDS0=    0 NMtDT0=    0
 Petite list used in FoFCou.
 Requested convergence on RMS density matrix=1.00D-08 within 128 cycles.
 Requested convergence on MAX density matrix=1.00D-06.
 Requested convergence on             energy=1.00D-06.
 No special actions if energy rises.
 Integral accuracy reduced to 1.0D-05 until final iterations.
 EnCoef did     2 forward-backward iterations
 EnCoef did     3 forward-backward iterations
 EnCoef did     3 forward-backward iterations
 EnCoef did   100 forward-backward iterations
 EnCoef did     1 forward-backward iterations
 EnCoef did     2 forward-backward iterations
 EnCoef did     4 forward-backward iterations
 Initial convergence to 1.4D-05 achieved.  Increase integral accuracy.
 EnCoef did   100 forward-backward iterations
 SCF Done:  E(RB3LYP) =  -1353.37615937     A.U. after   34 cycles
            NFock= 34  Conv=0.93D-08     -V/T= 2.0058

 **********************************************************************

            Population analysis using the SCF density.

 **********************************************************************

 Orbital symmetries:
       Occupied  (A) (A) (A) (A) (A) (A) (A) (A) (A) (A) (A) (A)
                 (A) (A) (A) (A) (A) (A) (A) (A) (A) (A) (A) (A)
                 (A) (A) (A) (A) (A) (A) (A) (A) (A) (A) (A) (A)
                 (A) (A) (A) (A) (A) (A) (A) (A) (A) (A) (A) (A)
                 (A) (A) (A) (A) (A) (A) (A) (A) (A) (A) (A) (A)
                 (A) (A) (A) (A) (A)
       Virtual   (A) (A) (A) (A) (A) (A) (A) (A) (A) (A) (A) (A)
                 (A) (A) (A) (A) (A) (A) (A) (A) (A) (A) (A) (A)
                 (A) (A) (A) (A) (A) (A) (A) (A) (A) (A) (A) (A)
                 (A) (A) (A) (A) (A) (A) (A) (A) (A) (A) (A) (A)
                 (A) (A) (A) (A) (A) (A) (A) (A) (A) (A) (A) (A)
                 (A) (A) (A) (A) (A) (A) (A) (A) (A) (A) (A) (A)
                 (A) (A) (A) (A) (A) (A) (A) (A) (A) (A) (A) (A)
                 (A) (A) (A) (A) (A) (A) (A) (A) (A) (A) (A) (A)
                 (A) (A) (A) (A) (A) (A) (A) (A) (A) (A) (A) (A)
                 (A) (A) (A) (A) (A) (A) (A) (A) (A) (A) (A) (A)
                 (A) (A) (A) (A) (A) (A) (A) (A) (A) (A) (A) (A)
                 (A) (A) (A) (A) (A) (A) (A) (A) (A) (A) (A) (A)
                 (A) (A) (A) (A) (A) (A) (A) (A) (A) (A) (A) (A)
                 (A) (A) (A) (A) (A) (A) (A) (A) (A) (A) (A) (A)
                 (A) (A) (A) (A) (A) (A) (A) (A) (A) (A) (A) (A)
                 (A) (A) (A) (A) (A) (A) (A) (A) (A) (A) (A) (A)
                 (A) (A) (A) (A) (A) (A) (A) (A) (A) (A) (A) (A)
                 (A) (A) (A) (A) (A) (A) (A) (A) (A) (A) (A) (A)
                 (A) (A) (A) (A) (A) (A) (A) (A) (A) (A) (A) (A)
                 (A) (A) (A) (A) (A) (A) (A) (A) (A) (A) (A) (A)
                 (A) (A) (A) (A) (A) (A) (A) (A) (A) (A) (A) (A)
                 (A) (A) (A) (A) (A) (A) (A) (A) (A) (A) (A) (A)
                 (A) (A) (A) (A) (A) (A) (A) (A) (A) (A) (A) (A)
                 (A) (A) (A) (A) (A) (A) (A) (A) (A) (A) (A) (A)
                 (A) (A) (A) (A) (A) (A) (A) (A) (A) (A) (A) (A)
                 (A) (A) (A) (A) (A) (A) (A) (A) (A) (A) (A) (A)
                 (A) (A) (A) (A) (A) (A) (A) (A) (A) (A) (A) (A)
                 (A) (A) (A) (A) (A) (A) (A) (A) (A) (A) (A) (A)
                 (A) (A) (A) (A) (A) (A) (A) (A) (A) (A) (A) (A)
                 (A) (A) (A) (A) (A) (A) (A) (A) (A) (A) (A) (A)
                 (A) (A) (A) (A) (A) (A) (A) (A) (A) (A) (A) (A)
                 (A) (A) (A) (A) (A) (A) (A) (A) (A) (A) (A) (A)
                 (A) (A) (A) (A) (A) (A) (A) (A) (A) (A) (A) (A)
                 (A) (A) (A) (A) (A) (A) (A) (A) (A) (A) (A) (A)
                 (A) (A) (A) (A) (A) (A) (A) (A) (A) (A) (A) (A)
                 (A) (A) (A) (A) (A) (A) (A) (A) (A) (A) (A) (A)
                 (A) (A) (A) (A) (A) (A) (A) (A) (A) (A) (A) (A)
                 (A) (A) (A) (A) (A) (A) (A) (A) (A) (A) (A) (A)
 The electronic state is 1-A.
 Alpha  occ. eigenvalues --  -88.98184 -88.92083 -14.33365 -10.28608 -10.26560
 Alpha  occ. eigenvalues --  -10.25834 -10.24702 -10.24256 -10.23708 -10.23222
 Alpha  occ. eigenvalues --  -10.23095 -10.22958 -10.18501 -10.18103 -10.17516
 Alpha  occ. eigenvalues --  -10.17057  -8.03940  -7.98750  -6.00333  -6.00083
 Alpha  occ. eigenvalues --   -5.99687  -5.95254  -5.94848  -5.94159  -0.96513
 Alpha  occ. eigenvalues --   -0.84540  -0.83529  -0.80354  -0.75454  -0.73647
 Alpha  occ. eigenvalues --   -0.72706  -0.69547  -0.66309  -0.64414  -0.61716
 Alpha  occ. eigenvalues --   -0.58369  -0.57421  -0.55425  -0.53408  -0.49563
 Alpha  occ. eigenvalues --   -0.48610  -0.46124  -0.45640  -0.44923  -0.43890
 Alpha  occ. eigenvalues --   -0.41681  -0.40800  -0.39794  -0.39438  -0.38685
 Alpha  occ. eigenvalues --   -0.37854  -0.36751  -0.35476  -0.34391  -0.32888
 Alpha  occ. eigenvalues --   -0.31312  -0.30278  -0.29900  -0.28479  -0.27220
 Alpha  occ. eigenvalues --   -0.25089  -0.23012  -0.19106  -0.18146  -0.16525
 Alpha virt. eigenvalues --   -0.13824  -0.11492  -0.09992  -0.07988  -0.04290
 Alpha virt. eigenvalues --   -0.03710  -0.01407   0.00602   0.01835   0.02534
 Alpha virt. eigenvalues --    0.03481   0.07881   0.08381   0.10439   0.11396
 Alpha virt. eigenvalues --    0.11780   0.12336   0.12874   0.14773   0.15056
 Alpha virt. eigenvalues --    0.15454   0.15600   0.16910   0.20486   0.20980
 Alpha virt. eigenvalues --    0.21611   0.22578   0.23805   0.24465   0.25692
 Alpha virt. eigenvalues --    0.26573   0.28918   0.29581   0.30099   0.31306
 Alpha virt. eigenvalues --    0.32161   0.32302   0.33000   0.33832   0.34272
 Alpha virt. eigenvalues --    0.35436   0.38044   0.39028   0.39892   0.40334
 Alpha virt. eigenvalues --    0.43063   0.43604   0.44631   0.44887   0.46715
 Alpha virt. eigenvalues --    0.47623   0.48042   0.48993   0.49690   0.50519
 Alpha virt. eigenvalues --    0.51127   0.51466   0.52074   0.52166   0.52627
 Alpha virt. eigenvalues --    0.53070   0.53700   0.54029   0.54871   0.55167
 Alpha virt. eigenvalues --    0.55620   0.56521   0.56974   0.57621   0.58022
 Alpha virt. eigenvalues --    0.58614   0.58958   0.59515   0.60540   0.61607
 Alpha virt. eigenvalues --    0.62079   0.63117   0.64122   0.66564   0.66979
 Alpha virt. eigenvalues --    0.67630   0.68437   0.69173   0.70361   0.71796
 Alpha virt. eigenvalues --    0.72617   0.72979   0.73985   0.74776   0.75139
 Alpha virt. eigenvalues --    0.75382   0.75995   0.76482   0.76915   0.78378
 Alpha virt. eigenvalues --    0.78722   0.79326   0.79644   0.80810   0.80822
 Alpha virt. eigenvalues --    0.81599   0.82738   0.83381   0.83886   0.84093
 Alpha virt. eigenvalues --    0.85896   0.86515   0.88336   0.89040   0.89887
 Alpha virt. eigenvalues --    0.90473   0.90642   0.92034   0.92667   0.94566
 Alpha virt. eigenvalues --    0.95347   0.95563   0.96345   0.98205   0.98421
 Alpha virt. eigenvalues --    0.99846   1.00813   1.01307   1.02876   1.03853
 Alpha virt. eigenvalues --    1.04955   1.06507   1.06791   1.07172   1.11872
 Alpha virt. eigenvalues --    1.12841   1.14366   1.15120   1.17528   1.19340
 Alpha virt. eigenvalues --    1.19486   1.21160   1.21828   1.23621   1.24583
 Alpha virt. eigenvalues --    1.26468   1.27705   1.28992   1.30581   1.31206
 Alpha virt. eigenvalues --    1.33714   1.34797   1.35261   1.36103   1.36792
 Alpha virt. eigenvalues --    1.37981   1.38425   1.40099   1.40652   1.41377
 Alpha virt. eigenvalues --    1.42480   1.43561   1.44354   1.46036   1.47027
 Alpha virt. eigenvalues --    1.48582   1.48953   1.49839   1.50170   1.51230
 Alpha virt. eigenvalues --    1.51944   1.53235   1.54392   1.55136   1.56274
 Alpha virt. eigenvalues --    1.57713   1.58400   1.60414   1.61259   1.61301
 Alpha virt. eigenvalues --    1.62542   1.64822   1.66009   1.68625   1.69218
 Alpha virt. eigenvalues --    1.70983   1.71868   1.72851   1.74723   1.75266
 Alpha virt. eigenvalues --    1.75686   1.76046   1.78655   1.79300   1.80475
 Alpha virt. eigenvalues --    1.82053   1.82745   1.83270   1.84517   1.89144
 Alpha virt. eigenvalues --    1.90896   1.93154   1.93567   1.94879   1.97191
 Alpha virt. eigenvalues --    1.99928   2.01203   2.02236   2.05701   2.05928
 Alpha virt. eigenvalues --    2.08040   2.08757   2.10175   2.11648   2.14291
 Alpha virt. eigenvalues --    2.14473   2.15235   2.16442   2.17229   2.19595
 Alpha virt. eigenvalues --    2.20638   2.21684   2.22685   2.24045   2.24698
 Alpha virt. eigenvalues --    2.25166   2.27376   2.28458   2.28996   2.30373
 Alpha virt. eigenvalues --    2.31555   2.32932   2.33645   2.35516   2.37206
 Alpha virt. eigenvalues --    2.38207   2.40651   2.42998   2.43984   2.45096
 Alpha virt. eigenvalues --    2.45962   2.49212   2.52542   2.53444   2.54050
 Alpha virt. eigenvalues --    2.56733   2.57213   2.58908   2.60163   2.62556
 Alpha virt. eigenvalues --    2.63530   2.64780   2.65942   2.66563   2.67375
 Alpha virt. eigenvalues --    2.68291   2.69311   2.72524   2.74482   2.75306
 Alpha virt. eigenvalues --    2.75914   2.76912   2.78361   2.80142   2.81344
 Alpha virt. eigenvalues --    2.81569   2.83109   2.85545   2.86654   2.87317
 Alpha virt. eigenvalues --    2.87918   2.89527   2.90874   2.91435   2.92273
 Alpha virt. eigenvalues --    2.94789   2.95055   2.96274   2.98241   2.99371
 Alpha virt. eigenvalues --    3.00955   3.02003   3.02537   3.03160   3.04435
 Alpha virt. eigenvalues --    3.05088   3.06141   3.07231   3.07906   3.09238
 Alpha virt. eigenvalues --    3.11114   3.13313   3.13877   3.14221   3.14753
 Alpha virt. eigenvalues --    3.16151   3.16462   3.17207   3.19036   3.22382
 Alpha virt. eigenvalues --    3.24366   3.24925   3.25733   3.27282   3.27764
 Alpha virt. eigenvalues --    3.28875   3.30339   3.31508   3.32979   3.33726
 Alpha virt. eigenvalues --    3.35797   3.37392   3.38742   3.39144   3.39988
 Alpha virt. eigenvalues --    3.40269   3.42908   3.45022   3.46058   3.46515
 Alpha virt. eigenvalues --    3.47700   3.50628   3.50919   3.51454   3.53021
 Alpha virt. eigenvalues --    3.53272   3.55587   3.56669   3.57348   3.58994
 Alpha virt. eigenvalues --    3.59466   3.60610   3.63488   3.64317   3.65249
 Alpha virt. eigenvalues --    3.69265   3.70970   3.72054   3.72883   3.74672
 Alpha virt. eigenvalues --    3.77140   3.77996   3.79615   3.81903   3.83146
 Alpha virt. eigenvalues --    3.85600   3.87454   3.89429   3.91079   3.93120
 Alpha virt. eigenvalues --    3.95313   3.98625   4.00206   4.01435   4.04159
 Alpha virt. eigenvalues --    4.04697   4.07024   4.11914   4.13224   4.14183
 Alpha virt. eigenvalues --    4.18729   4.19565   4.21049   4.22522   4.24222
 Alpha virt. eigenvalues --    4.25098   4.25306   4.26776   4.27829   4.28883
 Alpha virt. eigenvalues --    4.31056   4.32904   4.33205   4.34393   4.37420
 Alpha virt. eigenvalues --    4.38851   4.39488   4.40467   4.41096   4.41740
 Alpha virt. eigenvalues --    4.43381   4.44035   4.44647   4.46203   4.46726
 Alpha virt. eigenvalues --    4.48688   4.48812   4.51839   4.52877   4.54059
 Alpha virt. eigenvalues --    4.55966   4.57029   4.57378   4.58094   4.59565
 Alpha virt. eigenvalues --    4.61315   4.61386   4.62250   4.63236   4.67327
 Alpha virt. eigenvalues --    4.67675   4.69420   4.70628   4.72147   4.72772
 Alpha virt. eigenvalues --    4.74061   4.74163   4.76297   4.77544   4.78049
 Alpha virt. eigenvalues --    4.79466   4.83225   4.86444   4.87277   4.89007
 Alpha virt. eigenvalues --    4.90324   4.92485   4.92794   4.96699   4.98682
 Alpha virt. eigenvalues --    5.00883   5.03630   5.05472   5.06663   5.10555
 Alpha virt. eigenvalues --    5.12534   5.19084   5.25141   5.26667   5.31593
 Alpha virt. eigenvalues --    5.33943   5.37413   5.44615   5.46104   5.49509
 Alpha virt. eigenvalues --    5.53197   5.53950   5.60536   5.67918   5.68729
 Alpha virt. eigenvalues --    5.78770   5.87524   6.03759   6.07430   6.29059
 Alpha virt. eigenvalues --    6.74918   9.55642  10.05325  10.10572  10.19476
 Alpha virt. eigenvalues --   10.38522  10.64377  10.98756  11.08453  11.21791
 Alpha virt. eigenvalues --   11.37118  11.51067  11.68859  11.92362  12.18086
 Alpha virt. eigenvalues --   17.79472
          Condensed to atoms (all electrons):
               1          2          3          4          5          6
     1  S   15.920160   0.093711   0.002076   0.000018  -0.000118  -0.000001
     2  S    0.093711  15.412335   0.287092  -0.010969   0.003273  -0.000074
     3  C    0.002076   0.287092   5.519016   0.272475  -0.047213   0.001458
     4  C    0.000018  -0.010969   0.272475   5.147073   0.617624  -0.169613
     5  N   -0.000118   0.003273  -0.047213   0.617624   6.310463   0.468250
     6  C   -0.000001  -0.000074   0.001458  -0.169613   0.468250   4.560140
     7  C    0.000000   0.000002  -0.000271   0.005055   0.002721   0.565483
     8  C   -0.000000   0.000000  -0.000009   0.000712  -0.002627   0.013292
     9  C   -0.000000  -0.000000   0.000000  -0.000032  -0.000505  -0.011227
    10  C    0.000000   0.000000  -0.000000  -0.000000   0.000000  -0.000044
    11  C   -0.000000   0.000000  -0.000000   0.000000  -0.000000   0.000004
    12  C   -0.000000  -0.000000   0.000000  -0.000000   0.000000  -0.000000
    13  C    0.000000  -0.000000   0.000000  -0.000000  -0.000000  -0.000101
    14  C    0.000000   0.000000  -0.000000  -0.000010  -0.000009   0.000353
    15  C   -0.000000  -0.000001  -0.000002   0.000689   0.000890  -0.006181
    16  C   -0.000001   0.000248  -0.012282   0.233401  -0.039681  -0.031156
    17  H    0.261195   0.001405   0.000174  -0.000000   0.000000  -0.000000
    18  H   -0.073054   0.223293  -0.054736   0.000865   0.000010   0.000002
    19  H    0.000668  -0.060315   0.356914  -0.008753  -0.000447   0.000238
    20  H   -0.000000   0.000018   0.002137  -0.060922  -0.100521   0.399257
    21  H   -0.000000   0.000000   0.000012  -0.000633  -0.009243  -0.019071
    22  H    0.000000  -0.000000  -0.000006   0.000217   0.000974  -0.024275
    23  H    0.000000  -0.000000  -0.000000   0.000001   0.000004   0.000868
    24  H    0.000000   0.000000  -0.000000  -0.000000  -0.000000   0.000000
    25  H    0.000000  -0.000000   0.000000  -0.000000   0.000000  -0.000000
    26  H   -0.000000   0.000000  -0.000000   0.000030  -0.000003  -0.000120
    27  H    0.000000   0.000000  -0.000000   0.000207  -0.000021   0.000164
    28  H   -0.000000  -0.000067   0.000944  -0.018306   0.000622   0.002012
    29  H    0.000000   0.000004   0.000583  -0.018491   0.000792   0.002517
               7          8          9         10         11         12
     1  S    0.000000  -0.000000  -0.000000   0.000000  -0.000000  -0.000000
     2  S    0.000002   0.000000  -0.000000   0.000000   0.000000  -0.000000
     3  C   -0.000271  -0.000009   0.000000  -0.000000  -0.000000   0.000000
     4  C    0.005055   0.000712  -0.000032  -0.000000   0.000000  -0.000000
     5  N    0.002721  -0.002627  -0.000505   0.000000  -0.000000   0.000000
     6  C    0.565483   0.013292  -0.011227  -0.000044   0.000004  -0.000000
     7  C    5.097899   0.413508   0.004418   0.006355  -0.000164   0.000000
     8  C    0.413508   4.807746   0.519383   0.002236   0.007851  -0.000366
     9  C    0.004418   0.519383   5.068505   0.425512  -0.032951   0.001256
    10  C    0.006355   0.002236   0.425512   4.693095   0.335676  -0.014823
    11  C   -0.000164   0.007851  -0.032951   0.335676   4.946734   0.575885
    12  C    0.000000  -0.000366   0.001256  -0.014823   0.575885   5.328125
    13  C    0.000438  -0.019568  -0.026400   0.483765  -0.030302   0.044472
    14  C    0.001415  -0.001315  -0.022911  -0.029304   0.007222   0.000688
    15  C    0.000487  -0.019521  -0.002444   0.000614  -0.000027   0.000009
    16  C   -0.001656   0.001650   0.000759  -0.000075  -0.000000  -0.000000
    17  H    0.000000   0.000000  -0.000000   0.000000   0.000000   0.000000
    18  H   -0.000000  -0.000000   0.000000  -0.000000  -0.000000   0.000000
    19  H    0.000085   0.000001  -0.000000   0.000000   0.000000  -0.000000
    20  H   -0.074431  -0.016170   0.004105   0.000149  -0.000001   0.000000
    21  H    0.346190  -0.044603  -0.003195  -0.000030  -0.000002  -0.000000
    22  H   -0.047920   0.317716  -0.060117  -0.021906   0.000256   0.000006
    23  H   -0.021185  -0.035401   0.350320  -0.050963  -0.010905   0.000806
    24  H   -0.000003   0.001808  -0.002334  -0.043537   0.374275  -0.051984
    25  H   -0.000000  -0.000003  -0.000139   0.004049  -0.030189   0.326788
    26  H   -0.000878   0.024153  -0.003939  -0.008730   0.000443   0.000202
    27  H   -0.000010   0.001046  -0.000032  -0.000009   0.000002  -0.000000
    28  H   -0.000025  -0.000036  -0.000007   0.000001   0.000000   0.000000
    29  H    0.000032  -0.000155  -0.000009   0.000001   0.000000   0.000000
              13         14         15         16         17         18
     1  S    0.000000   0.000000  -0.000000  -0.000001   0.261195  -0.073054
     2  S   -0.000000   0.000000  -0.000001   0.000248   0.001405   0.223293
     3  C    0.000000  -0.000000  -0.000002  -0.012282   0.000174  -0.054736
     4  C   -0.000000  -0.000010   0.000689   0.233401  -0.000000   0.000865
     5  N   -0.000000  -0.000009   0.000890  -0.039681   0.000000   0.000010
     6  C   -0.000101   0.000353  -0.006181  -0.031156  -0.000000   0.000002
     7  C    0.000438   0.001415   0.000487  -0.001656   0.000000  -0.000000
     8  C   -0.019568  -0.001315  -0.019521   0.001650   0.000000  -0.000000
     9  C   -0.026400  -0.022911  -0.002444   0.000759  -0.000000   0.000000
    10  C    0.483765  -0.029304   0.000614  -0.000075   0.000000  -0.000000
    11  C   -0.030302   0.007222  -0.000027  -0.000000   0.000000  -0.000000
    12  C    0.044472   0.000688   0.000009  -0.000000   0.000000   0.000000
    13  C    5.370101   0.473277  -0.033465   0.000301  -0.000000   0.000000
    14  C    0.473277   5.190706   0.363076  -0.004025  -0.000000  -0.000000
    15  C   -0.033465   0.363076   5.429438   0.185631   0.000000   0.000000
    16  C    0.000301  -0.004025   0.185631   5.371996   0.000000  -0.000008
    17  H   -0.000000  -0.000000   0.000000   0.000000   0.549493   0.002434
    18  H    0.000000  -0.000000   0.000000  -0.000008   0.002434   0.714120
    19  H   -0.000000   0.000000  -0.000000   0.000473   0.000009   0.001009
    20  H   -0.000084  -0.000808  -0.016738  -0.002212  -0.000000   0.000001
    21  H    0.000001   0.000000  -0.000071  -0.000143  -0.000000   0.000000
    22  H    0.003146   0.005372   0.031597   0.001542  -0.000000  -0.000000
    23  H    0.003590  -0.000332  -0.000075   0.000000  -0.000000  -0.000000
    24  H    0.004905   0.000049   0.000002  -0.000000   0.000000  -0.000000
    25  H   -0.002791  -0.000028  -0.000000   0.000000   0.000000   0.000000
    26  H   -0.033061   0.234255   0.011577  -0.001342   0.000000   0.000000
    27  H    0.000663  -0.029651   0.313127  -0.028440   0.000000  -0.000000
    28  H   -0.000006  -0.000009  -0.011771   0.341539   0.000000   0.000005
    29  H   -0.000006  -0.000042  -0.014140   0.340158  -0.000000   0.000003
              19         20         21         22         23         24
     1  S    0.000668  -0.000000  -0.000000   0.000000   0.000000   0.000000
     2  S   -0.060315   0.000018   0.000000  -0.000000  -0.000000   0.000000
     3  C    0.356914   0.002137   0.000012  -0.000006  -0.000000  -0.000000
     4  C   -0.008753  -0.060922  -0.000633   0.000217   0.000001  -0.000000
     5  N   -0.000447  -0.100521  -0.009243   0.000974   0.000004  -0.000000
     6  C    0.000238   0.399257  -0.019071  -0.024275   0.000868   0.000000
     7  C    0.000085  -0.074431   0.346190  -0.047920  -0.021185  -0.000003
     8  C    0.000001  -0.016170  -0.044603   0.317716  -0.035401   0.001808
     9  C   -0.000000   0.004105  -0.003195  -0.060117   0.350320  -0.002334
    10  C    0.000000   0.000149  -0.000030  -0.021906  -0.050963  -0.043537
    11  C    0.000000  -0.000001  -0.000002   0.000256  -0.010905   0.374275
    12  C   -0.000000   0.000000  -0.000000   0.000006   0.000806  -0.051984
    13  C   -0.000000  -0.000084   0.000001   0.003146   0.003590   0.004905
    14  C    0.000000  -0.000808   0.000000   0.005372  -0.000332   0.000049
    15  C   -0.000000  -0.016738  -0.000071   0.031597  -0.000075   0.000002
    16  C    0.000473  -0.002212  -0.000143   0.001542   0.000000  -0.000000
    17  H    0.000009  -0.000000  -0.000000  -0.000000  -0.000000   0.000000
    18  H    0.001009   0.000001   0.000000  -0.000000  -0.000000  -0.000000
    19  H    0.540948  -0.000117  -0.000012   0.000000  -0.000000   0.000000
    20  H   -0.000117   0.731714   0.010203  -0.016904  -0.000103   0.000000
    21  H   -0.000012   0.010203   0.615319   0.004384   0.002675   0.000003
    22  H    0.000000  -0.016904   0.004384   0.698318   0.010716  -0.000006
    23  H   -0.000000  -0.000103   0.002675   0.010716   0.671485  -0.000988
    24  H    0.000000   0.000000   0.000003  -0.000006  -0.000988   0.573037
    25  H   -0.000000  -0.000000  -0.000000   0.000000   0.000012  -0.000657
    26  H    0.000000   0.001900   0.000013  -0.021466   0.000041   0.000065
    27  H    0.000000   0.000890   0.000001  -0.002465   0.000001  -0.000000
    28  H   -0.000020  -0.000290   0.000003  -0.000097   0.000000   0.000000
    29  H   -0.000016  -0.001185   0.000003   0.000155  -0.000000   0.000000
              25         26         27         28         29
     1  S    0.000000  -0.000000   0.000000  -0.000000   0.000000
     2  S   -0.000000   0.000000   0.000000  -0.000067   0.000004
     3  C    0.000000  -0.000000  -0.000000   0.000944   0.000583
     4  C   -0.000000   0.000030   0.000207  -0.018306  -0.018491
     5  N    0.000000  -0.000003  -0.000021   0.000622   0.000792
     6  C   -0.000000  -0.000120   0.000164   0.002012   0.002517
     7  C   -0.000000  -0.000878  -0.000010  -0.000025   0.000032
     8  C   -0.000003   0.024153   0.001046  -0.000036  -0.000155
     9  C   -0.000139  -0.003939  -0.000032  -0.000007  -0.000009
    10  C    0.004049  -0.008730  -0.000009   0.000001   0.000001
    11  C   -0.030189   0.000443   0.000002   0.000000   0.000000
    12  C    0.326788   0.000202  -0.000000   0.000000   0.000000
    13  C   -0.002791  -0.033061   0.000663  -0.000006  -0.000006
    14  C   -0.000028   0.234255  -0.029651  -0.000009  -0.000042
    15  C   -0.000000   0.011577   0.313127  -0.011771  -0.014140
    16  C    0.000000  -0.001342  -0.028440   0.341539   0.340158
    17  H    0.000000   0.000000   0.000000   0.000000  -0.000000
    18  H    0.000000   0.000000  -0.000000   0.000005   0.000003
    19  H   -0.000000   0.000000   0.000000  -0.000020  -0.000016
    20  H   -0.000000   0.001900   0.000890  -0.000290  -0.001185
    21  H   -0.000000   0.000013   0.000001   0.000003   0.000003
    22  H    0.000000  -0.021466  -0.002465  -0.000097   0.000155
    23  H    0.000012   0.000041   0.000001   0.000000  -0.000000
    24  H   -0.000657   0.000065  -0.000000   0.000000   0.000000
    25  H    0.507843  -0.000005   0.000000  -0.000000  -0.000000
    26  H   -0.000005   0.544575   0.002272   0.000063  -0.000037
    27  H    0.000000   0.002272   0.593150   0.001853   0.001860
    28  H   -0.000000   0.000063   0.001853   0.543469  -0.035591
    29  H   -0.000000  -0.000037   0.001860  -0.035591   0.553320
 Mulliken charges:
               1
     1  S   -0.204653
     2  S    0.050045
     3  C   -0.328361
     4  C    0.009363
     5  N   -0.205235
     6  C    0.247826
     7  C   -0.297545
     8  C    0.028673
     9  C   -0.208016
    10  C    0.217969
    11  C   -0.143807
    12  C   -0.211063
    13  C   -0.238876
    14  C   -0.187969
    15  C   -0.232700
    16  C   -0.356677
    17  H    0.185291
    18  H    0.186056
    19  H    0.169338
    20  H    0.140113
    21  H    0.098195
    22  H    0.120763
    23  H    0.079433
    24  H    0.145367
    25  H    0.195119
    26  H    0.249994
    27  H    0.145394
    28  H    0.175717
    29  H    0.170247
 Sum of Mulliken charges =  -0.00000
 Mulliken charges with hydrogens summed into heavy atoms:
               1
     1  S   -0.019362
     2  S    0.236101
     3  C   -0.159023
     4  C    0.009363
     5  N   -0.205235
     6  C    0.387939
     7  C   -0.199350
     8  C    0.149436
     9  C   -0.128583
    10  C    0.217969
    11  C    0.001560
    12  C   -0.015944
    13  C   -0.238876
    14  C    0.062025
    15  C   -0.087306
    16  C   -0.010713
 Electronic spatial extent (au):  <R**2>=           9758.2997
 Charge=              0.0000 electrons
 Dipole moment (field-independent basis, Debye):
    X=             -5.1121    Y=             -0.7441    Z=              0.6412  Tot=              5.2056
 Quadrupole moment (field-independent basis, Debye-Ang):
   XX=            -73.2389   YY=           -105.7475   ZZ=           -115.0674
   XY=            -22.7099   XZ=             -6.0004   YZ=              0.9487
 Traceless Quadrupole moment (field-independent basis, Debye-Ang):
   XX=             24.7790   YY=             -7.7296   ZZ=            -17.0495
   XY=            -22.7099   XZ=             -6.0004   YZ=              0.9487
 Octapole moment (field-independent basis, Debye-Ang**2):
  XXX=           -225.5044  YYY=            -19.7971  ZZZ=              1.5484  XYY=            -19.4530
  XXY=            -64.6966  XXZ=              4.2960  XZZ=            -28.2582  YZZ=              0.7344
  YYZ=              1.3704  XYZ=             -7.3522
 Hexadecapole moment (field-independent basis, Debye-Ang**3):
 XXXX=          -8836.1112 YYYY=          -1060.2251 ZZZZ=           -140.4623 XXXY=           -714.4681
 XXXZ=           -324.7487 YYYX=           -115.0266 YYYZ=             -2.6129 ZZZX=            -10.8389
 ZZZY=              2.2306 XXYY=          -2279.1819 XXZZ=          -2228.3496 YYZZ=           -219.6414
 XXYZ=             20.7216 YYXZ=            -12.2679 ZZXY=            -25.4238
 N-N= 1.051576265518D+03 E-N=-5.285330800721D+03  KE= 1.345563104255D+03
 PrsmSu:  requested number of processors reduced to:  13 ShMem   1 Linda.
 Calling FoFJK, ICntrl=      2127 FMM=F ISym2X=0 I1Cent= 0 IOpClX= 0 NMat=1 NMatS=1 NMatT=0.
 ***** Axes restored to original set *****
 -------------------------------------------------------------------
 Center     Atomic                   Forces (Hartrees/Bohr)
 Number     Number              X              Y              Z
 -------------------------------------------------------------------
      1       16          -0.017897216   -0.006922643    0.001618977
      2       16           0.052595602   -0.027482334   -0.001725497
      3        6          -0.001684170    0.010103976    0.015095024
      4        6          -0.088358358   -0.010934853   -0.017692462
      5        7          -0.006185932    0.042980779   -0.037903763
      6        6           0.002441593   -0.014725222    0.020143118
      7        6           0.008050090   -0.022995196    0.021264624
      8        6          -0.010736589    0.010307473   -0.012028870
      9        6           0.057373274   -0.028423714    0.029423966
     10        6          -0.012700529    0.024977948   -0.025100223
     11        6           0.128240891   -0.025910066    0.007269380
     12        6          -0.115540144    0.036152421   -0.023950010
     13        6          -0.085389688    0.004711255   -0.005515702
     14        6          -0.049959804    0.004644186   -0.011828727
     15        6           0.084389225   -0.032770821   -0.004530123
     16        6          -0.031740780    0.027015317   -0.019086214
     17        1           0.014678419   -0.005831952    0.002161995
     18        1          -0.006964598    0.020681534    0.014369445
     19        1           0.033942679    0.018825608   -0.017235862
     20        1           0.034074229    0.015563593   -0.017317216
     21        1          -0.006867884   -0.016356652    0.015450717
     22        1           0.003777034    0.004871823   -0.009853773
     23        1           0.009005834   -0.008928580    0.012140981
     24        1           0.007259697    0.007777759   -0.004374188
     25        1           0.000700882   -0.008378089    0.004545657
     26        1          -0.016193430    0.006681890    0.035102301
     27        1          -0.013259449   -0.001045652    0.003223738
     28        1           0.015697148   -0.013019667    0.014776404
     29        1           0.011251972   -0.011570123    0.011556305
 -------------------------------------------------------------------
 Cartesian Forces:  Max     0.128240891 RMS     0.031321316

 GradGradGradGradGradGradGradGradGradGradGradGradGradGradGradGradGradGrad
 Berny optimization.
 FormGI is forming the generalized inverse of G from B-inverse, IUseBI=4.
 Internal  Forces:  Max     0.176288318 RMS     0.047884925
 Search for a local minimum.
 Step number   1 out of a maximum of  119
 All quantities printed in internal units (Hartrees-Bohrs-Radians)
 Mixed Optimization -- RFO/linear search
 Second derivative matrix not updated -- first step.
 ITU=  0
     Eigenvalues ---    0.00230   0.00230   0.00230   0.00230   0.00230
     Eigenvalues ---    0.00237   0.00463   0.00501   0.00501   0.00679
     Eigenvalues ---    0.00760   0.00903   0.00992   0.01119   0.01547
     Eigenvalues ---    0.01731   0.01815   0.01839   0.02494   0.02605
     Eigenvalues ---    0.02809   0.02926   0.03130   0.03321   0.03325
     Eigenvalues ---    0.05905   0.06324   0.12156   0.12379   0.15408
     Eigenvalues ---    0.15870   0.15980   0.15995   0.15998   0.15999
     Eigenvalues ---    0.16000   0.16000   0.16000   0.16000   0.16000
     Eigenvalues ---    0.16000   0.16869   0.20251   0.21076   0.22000
     Eigenvalues ---    0.22000   0.22000   0.22001   0.22006   0.22008
     Eigenvalues ---    0.22705   0.23501   0.24714   0.24997   0.24999
     Eigenvalues ---    0.25000   0.25000   0.25000   0.25000   0.28423
     Eigenvalues ---    0.28972   0.30088   0.30367   0.30367   0.31869
     Eigenvalues ---    0.32388   0.32694   0.33227   0.35347   0.35805
     Eigenvalues ---    0.36218   0.37257   0.38768   0.38925   0.41415
     Eigenvalues ---    0.42362   0.42632   0.63060   0.65332   0.65405
     Eigenvalues ---    0.69669
 RFO step:  Lambda=-3.98419211D-01 EMin= 2.30000000D-03
 Linear search not attempted -- first point.
 Maximum step size (   0.300) exceeded in Quadratic search.
    -- Step size scaled by   0.387
 Iteration  1 RMS(Cart)=  0.19430010 RMS(Int)=  0.02263708
 Iteration  2 RMS(Cart)=  0.26607350 RMS(Int)=  0.01442766
 Iteration  3 RMS(Cart)=  0.26083511 RMS(Int)=  0.00539089
 Iteration  4 RMS(Cart)=  0.01299141 RMS(Int)=  0.00005352
 Iteration  5 RMS(Cart)=  0.00001474 RMS(Int)=  0.00005336
 Iteration  6 RMS(Cart)=  0.00000000 RMS(Int)=  0.00005336
 Variable       Old X    -DE/DX   Delta X   Delta X   Delta X     New X
                                 (Linear)    (Quad)   (Total)
    R1        4.08676   0.00533   0.00000   0.00338   0.00338   4.09015
    R2        2.60679  -0.01175   0.00000  -0.00718  -0.00718   2.59961
    R3        3.56781  -0.04433   0.00000  -0.02853  -0.02853   3.53928
    R4        2.47561   0.02499   0.00000   0.01405   0.01405   2.48965
    R5        3.51025  -0.07085   0.00000  -0.05270  -0.05270   3.45756
    R6        2.17923  -0.04164   0.00000  -0.02359  -0.02359   2.15564
    R7        2.48598  -0.00350   0.00000  -0.00131  -0.00131   2.48466
    R8        2.44020   0.05043   0.00000   0.01781   0.01781   2.45801
    R9        2.46954   0.05006   0.00000   0.01841   0.01841   2.48795
   R10        1.95165   0.03533   0.00000   0.01662   0.01662   1.96827
   R11        2.68126  -0.01272   0.00000  -0.00596  -0.00596   2.67530
   R12        1.99741   0.02056   0.00000   0.01010   0.01010   2.00751
   R13        2.46903   0.01703   0.00000   0.00626   0.00626   2.47529
   R14        1.99963   0.01133   0.00000   0.00557   0.00557   2.00520
   R15        2.87788  -0.07344   0.00000  -0.04062  -0.04062   2.83726
   R16        2.03741   0.00827   0.00000   0.00421   0.00421   2.04162
   R17        2.69675  -0.01038   0.00000  -0.00494  -0.00494   2.69181
   R18        2.87238  -0.07065   0.00000  -0.03892  -0.03892   2.83346
   R19        2.78416  -0.11866   0.00000  -0.06104  -0.06104   2.72312
   R20        2.08655  -0.01127   0.00000  -0.00597  -0.00597   2.08058
   R21        2.02161   0.00654   0.00000   0.00328   0.00328   2.02489
   R22        2.87238  -0.03130   0.00000  -0.01724  -0.01724   2.85514
   R23        3.25928  -0.06592   0.00000  -0.04495  -0.04495   3.21433
   R24        2.04388   0.03636   0.00000   0.01859   0.01859   2.06247
   R25        2.09593  -0.00975   0.00000  -0.00520  -0.00520   2.09073
   R26        3.36744  -0.00459   0.00000  -0.00384  -0.00384   3.36360
   R27        2.11084  -0.01344   0.00000  -0.00725  -0.00725   2.10359
   R28        2.10139  -0.01051   0.00000  -0.00563  -0.00563   2.09576
    A1        1.83918  -0.02751   0.00000  -0.01905  -0.01905   1.82012
    A2        1.94168  -0.01419   0.00000  -0.00845  -0.00845   1.93323
    A3        1.60299   0.00243   0.00000   0.00172   0.00174   1.60473
    A4        1.76263   0.00512   0.00000   0.00384   0.00384   1.76647
    A5        2.51877  -0.03387   0.00000  -0.02121  -0.02122   2.49756
    A6        1.83080   0.02599   0.00000   0.01683   0.01683   1.84762
    A7        1.93222   0.00750   0.00000   0.00403   0.00402   1.93624
    A8        1.58717   0.12100   0.00000   0.07217   0.07217   1.65934
    A9        1.84359  -0.08795   0.00000  -0.05246  -0.05246   1.79113
   A10        2.40867   0.12370   0.00000   0.07737   0.07735   2.48603
   A11        1.94386  -0.05143   0.00000  -0.03146  -0.03147   1.91239
   A12        1.93062  -0.07220   0.00000  -0.04584  -0.04585   1.88477
   A13        1.86658  -0.15925   0.00000  -0.09959  -0.09960   1.76698
   A14        2.12912   0.09132   0.00000   0.05791   0.05790   2.18701
   A15        2.28739   0.06806   0.00000   0.04180   0.04178   2.32917
   A16        2.30047   0.15153   0.00000   0.09478   0.09476   2.39523
   A17        1.95756  -0.07724   0.00000  -0.04839  -0.04841   1.90915
   A18        2.02492  -0.07406   0.00000  -0.04619  -0.04620   1.97871
   A19        2.25108  -0.17629   0.00000  -0.11025  -0.11027   2.14081
   A20        1.95794   0.10377   0.00000   0.06594   0.06592   2.02386
   A21        2.07415   0.07247   0.00000   0.04426   0.04424   2.11840
   A22        1.95596   0.09010   0.00000   0.05374   0.05374   2.00970
   A23        2.24498  -0.08044   0.00000  -0.04798  -0.04798   2.19699
   A24        2.08211  -0.00967   0.00000  -0.00577  -0.00577   2.07634
   A25        2.07236  -0.02024   0.00000  -0.01264  -0.01264   2.05971
   A26        2.11632   0.01057   0.00000   0.00666   0.00666   2.12298
   A27        2.09193   0.00982   0.00000   0.00614   0.00614   2.09807
   A28        2.61201  -0.01405   0.00000  -0.00973  -0.00973   2.60228
   A29        2.09440   0.06026   0.00000   0.03594   0.03594   2.13034
   A30        2.69813   0.05953   0.00000   0.03636   0.03648   2.73462
   A31        1.38644   0.01817   0.00000   0.01138   0.01123   1.39767
   A32        1.39041   0.03704   0.00000   0.02447   0.02432   1.41474
   A33        1.78977   0.01996   0.00000   0.01382   0.01382   1.80359
   A34        2.20126  -0.00277   0.00000  -0.00131  -0.00135   2.19991
   A35        2.23111  -0.00692   0.00000  -0.00425  -0.00431   2.22680
   A36        1.77698   0.01650   0.00000   0.01210   0.01206   1.78904
   A37        2.42920   0.02234   0.00000   0.01333   0.01333   2.44253
    D1        3.07384   0.00511   0.00000   0.00452   0.00452   3.07836
    D2        1.28410   0.00029   0.00000   0.00069   0.00069   1.28479
    D3        3.12664  -0.01540   0.00000  -0.01488  -0.01488   3.11176
    D4        0.05311  -0.00762   0.00000  -0.00744  -0.00743   0.04568
    D5       -1.47481  -0.01400   0.00000  -0.01342  -0.01343  -1.48824
    D6        1.73484  -0.00622   0.00000  -0.00598  -0.00598   1.72886
    D7       -3.06621  -0.00337   0.00000  -0.00325  -0.00327  -3.06947
    D8        0.00506  -0.01112   0.00000  -0.01074  -0.01073  -0.00566
    D9        3.13845   0.00685   0.00000   0.00621   0.00621  -3.13852
   D10       -3.12784  -0.00754   0.00000  -0.00684  -0.00692  -3.13476
   D11        0.00430   0.00354   0.00000   0.00324   0.00332   0.00763
   D12        3.10317   0.00340   0.00000   0.00321   0.00327   3.10644
   D13       -0.02503  -0.00572   0.00000  -0.00515  -0.00509  -0.03013
   D14       -0.02902  -0.00768   0.00000  -0.00686  -0.00692  -0.03594
   D15        3.12596  -0.01681   0.00000  -0.01522  -0.01528   3.11068
   D16        0.01620  -0.00080   0.00000  -0.00043  -0.00011   0.01609
   D17       -3.13214   0.00823   0.00000   0.00747   0.00715  -3.12499
   D18        3.06332  -0.02636   0.00000  -0.02431  -0.02432   3.03900
   D19       -0.10354  -0.01622   0.00000  -0.01512  -0.01511  -0.11866
   D20       -0.09333  -0.01613   0.00000  -0.01491  -0.01491  -0.10824
   D21        3.02299  -0.00599   0.00000  -0.00571  -0.00570   3.01729
   D22       -3.07993   0.00690   0.00000   0.00640   0.00641  -3.07352
   D23        0.05604  -0.00472   0.00000  -0.00437  -0.00439   0.05165
   D24        0.08770  -0.00367   0.00000  -0.00315  -0.00313   0.08457
   D25       -3.05952  -0.01529   0.00000  -0.01392  -0.01392  -3.07344
   D26       -3.12748  -0.02044   0.00000  -0.01944  -0.01943   3.13628
   D27        0.03257  -0.01997   0.00000  -0.01893  -0.01892   0.01365
   D28        0.02006  -0.00817   0.00000  -0.00807  -0.00809   0.01198
   D29       -3.10308  -0.00770   0.00000  -0.00756  -0.00757  -3.11065
   D30        3.09949   0.00226   0.00000   0.00200   0.00200   3.10150
   D31        0.03516  -0.00046   0.00000  -0.00059  -0.00059   0.03457
   D32       -0.05863   0.00087   0.00000   0.00097   0.00097  -0.05766
   D33       -3.12296  -0.00186   0.00000  -0.00162  -0.00163  -3.12459
   D34        0.01074  -0.03438   0.00000  -0.03313  -0.03312  -0.02238
   D35       -3.11125  -0.03470   0.00000  -0.03309  -0.03310   3.13883
   D36       -2.74295  -0.00166   0.00000  -0.00157  -0.00157  -2.74452
   D37        0.32249   0.00109   0.00000   0.00103   0.00103   0.32351
   D38       -0.04227  -0.01897   0.00000  -0.01828  -0.01827  -0.06054
   D39        0.57078   0.00505   0.00000   0.00493   0.00493   0.57571
   D40       -3.06824   0.00954   0.00000   0.00954   0.00958  -3.05867
   D41        2.60240  -0.01209   0.00000  -0.01200  -0.01204   2.59036
   D42       -1.34833  -0.01691   0.00000  -0.01582  -0.01579  -1.36412
   D43        1.31478   0.00815   0.00000   0.00737   0.00733   1.32211
   D44        2.76095   0.01581   0.00000   0.01555   0.01562   2.77656
         Item               Value     Threshold  Converged?
 Maximum Force            0.176288     0.000450     NO 
 RMS     Force            0.047885     0.000300     NO 
 Maximum Displacement     2.644334     0.001800     NO 
 RMS     Displacement     0.716473     0.001200     NO 
 Predicted change in Energy=-1.435327D-01
 GradGradGradGradGradGradGradGradGradGradGradGradGradGradGradGradGradGrad

                          Input orientation:                          
 ---------------------------------------------------------------------
 Center     Atomic      Atomic             Coordinates (Angstroms)
 Number     Number       Type             X           Y           Z
 ---------------------------------------------------------------------
      1         16           0        2.106297    0.387145   -0.343494
      2         16           0        4.269092    0.342480   -0.272733
      3          6           0        4.866257   -0.879186    1.015174
      4          6           0        6.373766   -1.609922    1.750768
      5          7           0        5.727851   -2.449517    2.529642
      6          6           0        6.693373   -3.065330    3.146425
      7          6           0        6.930728   -4.003295    4.039306
      8          6           0        8.346242   -4.025507    4.046604
      9          6           0        9.295227   -4.617555    4.728263
     10          6           0       10.752162   -4.331154    4.505639
     11          6           0       11.646874   -5.060609    5.340160
     12          6           0       13.061841   -4.871010    5.144100
     13          6           0       11.314458   -3.350738    3.520337
     14          6           0       10.430350   -2.542870    2.599229
     15          6           0        8.974890   -2.030573    1.883393
     16          6           0        8.262951   -1.456794    1.718062
     17          1           0        1.816889    1.372839   -1.258417
     18          1           0        4.314979    1.471607    0.404533
     19          1           0        3.927146   -1.365729    1.442466
     20          1           0        7.609393   -2.687242    2.825782
     21          1           0        6.188688   -4.552598    4.564838
     22          1           0        8.712388   -3.393999    3.276486
     23          1           0        8.968797   -5.321158    5.480331
     24          1           0       11.282896   -5.802664    6.067533
     25          1           0       14.062397   -5.239177    5.251362
     26          1           0        9.778173   -2.613691    3.471486
     27          1           0        9.309559   -1.316161    1.107727
     28          1           0        8.349633   -1.550796    0.612257
     29          1           0        8.292843   -0.358456    1.868762
 ---------------------------------------------------------------------
                    Distance matrix (angstroms):
                    1          2          3          4          5
     1  S    0.000000
     2  S    2.164413   0.000000
     3  C    3.326704   1.872907   0.000000
     4  C    5.156114   3.512276   1.829660   0.000000
     5  N    5.423765   4.216222   2.345612   1.314828   0.000000
     6  C    6.718660   5.401939   3.558062   2.041621   1.300722
     7  C    7.858756   6.675608   4.813259   3.357953   2.477947
     8  C    8.813705   7.372865   5.585624   3.872541   3.411875
     9  C   10.121782   8.652973   6.883182   5.142593   4.718102
    10  C   10.978499   9.311600   7.664418   5.845063   5.717414
    11  C   12.369501  10.729846   9.064577   7.252354   7.053484
    12  C   13.333636  11.568707  10.007511   8.178003   8.153921
    13  C   10.662608   8.812742   7.345999   5.529218   5.744898
    14  C    9.302390   7.384748   6.019651   4.248075   4.703940
    15  C    7.614589   5.694277   4.354349   2.638253   3.337126
    16  C    6.749408   4.811606   3.516420   1.895662   2.840932
    17  H    1.375657   2.836637   4.420348   6.222313   6.652475
    18  H    2.571746   1.317468   2.490586   3.942939   4.678409
    19  H    3.094789   2.444752   1.140716   2.478030   2.366239
    20  H    7.055512   5.471529   3.751288   1.960370   1.919483
    21  H    8.072095   7.144839   5.276636   4.075854   2.962658
    22  H    8.428627   6.804491   5.121575   3.313593   3.218273
    23  H   10.658123   9.341401   7.516620   5.866609   5.239906
    24  H   12.791598  11.276312   9.536258   7.766151   7.390453
    25  H   14.349434  12.553061  11.023783   9.194601   9.200794
    26  H    9.078369   7.287530   5.759243   3.944414   4.161625
    27  H    7.542830   5.482980   4.465696   3.019714   4.016835
    28  H    6.606688   4.584596   3.570337   2.281173   3.370134
    29  H    6.612364   4.611712   3.569490   2.294111   3.374682
                    6          7          8          9         10
     6  C    0.000000
     7  C    1.316569   0.000000
     8  C    2.112875   1.415708   0.000000
     9  C    3.417786   2.538273   1.309867   0.000000
    10  C    4.463580   3.863718   2.468316   1.501416   0.000000
    11  C    5.773282   5.005214   3.693087   2.470012   1.424444
    12  C    6.914375   6.289996   4.914900   3.797966   2.456358
    13  C    4.644965   4.462315   3.089106   2.672304   1.499404
    14  C    3.812792   4.056355   2.938811   3.182076   2.633614
    15  C    2.805582   3.566257   3.009060   3.858546   3.915040
    16  C    2.662927   3.694274   3.468045   4.485233   4.714733
    17  H    7.929695   9.117019   9.995891  11.298260  12.066440
    18  H    5.810208   7.073066   7.728779   8.976380   9.587931
    19  H    3.666623   4.766742   5.777920   7.084287   8.047212
    20  H    1.041564   1.914477   1.955583   3.191798   3.924456
    21  H    2.116264   1.062328   2.280665   3.111512   4.569228
    22  H    2.049722   2.031613   1.061107   1.986063   2.559249
    23  H    3.964018   2.822595   2.030236   1.080379   2.260647
    24  H    6.090123   5.127651   3.983262   2.673754   2.210550
    25  H    7.966108   7.338746   5.966478   4.835903   3.512586
    26  H    3.134586   3.218907   2.091509   2.414166   2.228857
    27  H    3.749707   4.633970   4.111634   4.899764   4.766245
    28  H    3.385116   4.446651   4.233077   5.219258   5.353592
    29  H    3.393801   4.455499   4.265338   5.226991   5.365044
                   11         12         13         14         15
    11  C    0.000000
    12  C    1.441014   0.000000
    13  C    2.519110   2.828636   0.000000
    14  C    3.915565   4.338358   1.510874   0.000000
    15  C    5.316940   5.950081   3.145791   1.700950   0.000000
    16  C    6.128460   6.813513   4.018323   2.579464   0.929201
    17  H   13.474386  14.367561  11.634109  10.217921   8.525911
    18  H   10.990311  11.798300   9.052953   7.637438   6.013905
    19  H    9.404167  10.460963   7.926550   6.709353   5.110396
    20  H    5.315657   6.314477   3.827550   2.833719   1.784347
    21  H    5.536334   6.904866   5.367399   5.088646   4.616674
    22  H    3.955698   4.958557   2.613830   2.033344   1.966861
    23  H    2.694370   4.131428   3.636793   4.260959   4.875033
    24  H    1.100998   2.210284   3.535696   4.835517   6.087905
    25  H    2.423742   1.071524   3.756836   5.243629   6.893553
    26  H    3.601582   4.321528   1.704640   1.091413   1.872787
    27  H    6.115343   6.558115   3.738959   2.232838   1.106366
    28  H    6.748603   7.332552   4.526246   3.043295   1.495633
    29  H    6.738721   7.337187   4.561974   3.142320   1.805928
                   16         17         18         19         20
    16  C    0.000000
    17  H    7.643164   0.000000
    18  H    5.087963   3.002601   0.000000
    19  H    4.345509   4.387221   3.046013   0.000000
    20  H    1.779940   8.168112   5.831950   4.149567   0.000000
    21  H    4.689425   9.387957   7.557114   5.001991   2.919293
    22  H    2.526547   9.530791   7.159569   5.511447   1.385365
    23  H    5.439320  11.889916   9.672817   7.574168   3.978959
    24  H    6.850150  13.955740  11.555797   9.756264   5.805981
    25  H    7.773301  15.363868  12.788218  11.499330   7.350990
    26  H    2.590136  10.081986   7.479461   6.317344   2.264055
    27  H    1.219703   8.304785   5.762981   5.393039   2.778874
    28  H    1.113173   7.397554   5.045444   4.503542   2.595989
    29  H    1.109031   7.396933   4.616979   4.500626   2.608876
                   21         22         23         24         25
    21  H    0.000000
    22  H    3.061252   0.000000
    23  H    3.026189   2.938813   0.000000
    24  H    5.456346   4.494344   2.435510   0.000000
    25  H    7.933347   5.993948   5.099403   2.951148   0.000000
    26  H    4.223645   1.335216   3.467120   4.378721   5.330639
    27  H    5.671506   3.062276   5.939342   6.972979   7.426253
    28  H    5.413261   3.259923   6.188468   7.512818   8.231714
    29  H    5.411757   3.372272   6.174848   7.497299   8.279563
                   26         27         28         29
    26  H    0.000000
    27  H    2.736885   0.000000
    28  H    3.368332   1.105442   0.000000
    29  H    3.140225   1.590624   1.733120   0.000000
 Stoichiometry    C13H13NS2
 Framework group  C1[X(C13H13NS2)]
 Deg. of freedom    81
 Full point group                 C1      NOp   1
 Largest Abelian subgroup         C1      NOp   1
 Largest concise Abelian subgroup C1      NOp   1
                         Standard orientation:                         
 ---------------------------------------------------------------------
 Center     Atomic      Atomic             Coordinates (Angstroms)
 Number     Number       Type             X           Y           Z
 ---------------------------------------------------------------------
      1         16           0       -6.363111   -0.472647   -0.018135
      2         16           0       -4.655246    0.856935   -0.027814
      3          6           0       -3.055870   -0.116111    0.026577
      4          6           0       -1.234773    0.060531    0.018977
      5          7           0       -0.992724   -1.231596   -0.005330
      6          6           0        0.307187   -1.277281   -0.009896
      7          6           0        1.321934   -2.115781   -0.033613
      8          6           0        2.418649   -1.221025   -0.062852
      9          6           0        3.724902   -1.298642   -0.004274
     10          6           0        4.608480   -0.084957    0.018239
     11          6           0        6.005350   -0.354409    0.090264
     12          6           0        6.912727    0.764752    0.064440
     13          6           0        4.144186    1.340564   -0.004873
     14          6           0        2.680311    1.706039   -0.083838
     15          6           0        1.006811    1.431845   -0.215930
     16          6           0        0.126889    1.378088    0.077773
     17          1           0       -7.449364    0.370389    0.024005
     18          1           0       -4.819927    1.150500    1.245929
     19          1           0       -3.358895   -1.215587    0.002862
     20          1           0        0.690431   -0.309087    0.014180
     21          1           0        1.243121   -3.175181   -0.033875
     22          1           0        2.060527   -0.228426   -0.174404
     23          1           0        4.137724   -2.295903    0.043349
     24          1           0        6.395492   -1.383959    0.093826
     25          1           0        7.894009    1.148517   -0.130427
     26          1           0        2.612980    0.784679    0.497321
     27          1           0        0.584594    2.452889   -0.272917
     28          1           0       -0.271136    1.968437   -0.777925
     29          1           0       -0.277471    1.923625    0.954604
 ---------------------------------------------------------------------
 Rotational constants (GHZ):           1.5966712           0.1207328           0.1124669
[...]
    25  H   10.529868   8.836372   8.398150   7.150321   7.430085
    26  H    7.466741   5.517013   4.697265   3.374269   3.569384
    27  H    5.813536   4.487669   4.203396   3.278524   4.055036
    28  H    4.424860   2.534135   2.592933   2.155423   3.431368
    29  H    5.725395   3.514847   3.052914   2.204020   3.098249
                    6          7          8          9         10
     6  C    0.000000
     7  C    1.404883   0.000000
     8  C    2.233155   1.415211   0.000000
     9  C    3.581248   2.708661   1.396559   0.000000
    10  C    4.168059   3.695527   2.304998   1.397534   0.000000
    11  C    5.679545   5.230921   3.824330   2.748795   1.552899
    12  C    5.604991   5.486204   4.155816   3.452136   2.067066
    13  C    4.088711   4.102279   2.890731   2.588696   1.425364
    14  C    3.328722   3.827529   3.017851   3.354374   2.627484
    15  C    3.098678   4.058498   3.704724   4.415331   3.931193
    16  C    2.841297   4.043070   4.115876   5.009355   4.801218
    17  H    7.395324   8.794165   9.350457  10.459976  10.308652
    18  H    5.760048   7.039943   7.726338   8.797250   8.852895
    19  H    3.790226   5.005681   5.986857   7.255402   7.631579
    20  H    1.070042   2.021033   2.141088   3.330378   3.563847
    21  H    2.225755   1.083581   2.236495   3.266284   4.456244
    22  H    2.187105   2.007883   1.074550   1.961936   2.222763
    23  H    4.379141   3.285344   2.232109   1.084995   2.165113
    24  H    6.580440   5.977338   4.573692   3.331470   2.426970
    25  H    6.452805   6.458496   5.164511   4.525923   3.145879
    26  H    2.769463   3.171458   2.469615   2.872941   2.465132
    27  H    3.814040   4.836090   4.517079   5.244133   4.687784
    28  H    3.819800   5.090127   5.179823   6.049572   5.725179
    29  H    3.222233   4.228283   4.232777   4.949198   4.730369
                   11         12         13         14         15
    11  C    0.000000
    12  C    1.345760   0.000000
    13  C    2.089655   1.552195   0.000000
    14  C    3.534433   2.807919   1.446461   0.000000
    15  C    4.914052   4.124460   2.826763   1.380302   0.000000
    16  C    5.957686   5.319815   3.912549   2.571470   1.488713
    17  H   11.371465  10.506436   9.283419   7.845868   6.477780
    18  H   10.074961   9.466217   8.079901   6.766984   5.576063
    19  H    9.046909   8.658522   7.138219   5.905909   4.841633
    20  H    4.985088   4.727244   3.204800   2.294848   2.095683
    21  H    5.961787   6.375539   5.051128   4.872314   5.093754
    22  H    3.646891   3.647161   2.297967   2.174121   2.845933
    23  H    3.130217   4.125306   3.522539   4.405866   5.476814
    24  H    1.080670   2.248423   3.169000   4.613540   5.992871
    25  H    2.242370   1.081159   2.424443   3.387863   4.552319
    26  H    3.665877   3.283447   1.774235   1.132852   1.845449
    27  H    5.511871   4.570113   3.493135   2.138500   1.093255
    28  H    6.755306   5.962543   4.684487   3.289863   2.027943
    29  H    5.855360   5.309811   3.939366   2.827066   2.170716
                   16         17         18         19         20
    16  C    0.000000
    17  H    5.569328   0.000000
    18  H    4.199564   3.016557   0.000000
    19  H    3.603673   4.491892   2.636297   0.000000
    20  H    2.211337   7.222639   5.812140   4.197413   0.000000
    21  H    4.919446   9.407608   7.475491   5.314255   3.039979
    22  H    3.541890   8.751288   7.412663   5.800014   1.634625
    23  H    5.983852  11.425435   9.620102   8.025233   4.295040
    24  H    7.016879  12.450463  11.108114  10.039215   5.961413
    25  H    5.824982  10.709837   9.903025   9.287296   5.504152
    26  H    2.372291   7.928291   6.426736   5.478513   1.921182
    27  H    2.168612   6.124720   5.759987   5.138415   2.855128
    28  H    1.096390   4.670735   3.678147   3.670801   3.213459
    29  H    1.094818   6.067077   4.274278   3.981873   2.708161
                   21         22         23         24         25
    21  H    0.000000
    22  H    3.030255   0.000000
    23  H    3.528059   2.992781   0.000000
    24  H    6.595996   4.540680   3.385922   0.000000
    25  H    7.387160   4.551839   5.191853   2.878314   0.000000
    26  H    4.130057   1.974935   3.857378   4.696307   4.051541
    27  H    5.883479   3.548592   6.325919   6.578951   4.802500
    28  H    5.953276   4.530168   7.042156   7.827983   6.308092
    29  H    5.006781   3.855251   5.830479   6.875481   5.855961
                   26         27         28         29
    26  H    0.000000
    27  H    2.880722   0.000000
    28  H    3.317145   2.227782   0.000000
    29  H    2.298487   3.030593   1.729741   0.000000
 Stoichiometry    C13H13NS2
 Framework group  C1[X(C13H13NS2)]
 Deg. of freedom    81
 Full point group                 C1      NOp   1
 Largest Abelian subgroup         C1      NOp   1
 Largest concise Abelian subgroup C1      NOp   1
                         Standard orientation:                         
 ---------------------------------------------------------------------
 Center     Atomic      Atomic             Coordinates (Angstroms)
 Number     Number       Type             X           Y           Z
 ---------------------------------------------------------------------
      1         16           0       -5.536613    0.491339   -0.749415
      2         16           0       -3.707893    0.533778    0.738082
      3          6           0       -2.711254   -0.782505    0.413605
      4          6           0       -1.319392   -0.712273    0.187096
      5          7           0       -0.749086   -1.910628   -0.074160
      6          6           0        0.546246   -1.794308   -0.334313
      7          6           0        1.719488   -2.563582   -0.260715
      8          6           0        2.771130   -1.616549   -0.261681
      9          6           0        4.051391   -1.251351    0.160144
     10          6           0        4.206783    0.137514    0.156862
     11          6           0        5.379046    1.155137    0.115184
     12          6           0        4.526020    2.149907   -0.191162
     13          6           0        3.295573    1.217002   -0.033046
     14          6           0        1.862706    1.261108   -0.225907
     15          6           0        0.495377    1.303028   -0.409994
     16          6           0       -0.551300    0.702574    0.461893
     17          1           0       -5.969737    1.703202   -0.348473
     18          1           0       -4.507493    0.059475    1.715411
     19          1           0       -3.184482   -1.754318    0.333435
     20          1           0        0.816276   -0.767205   -0.465197
     21          1           0        1.788694   -3.603634    0.035342
     22          1           0        2.415223   -0.760382   -0.804790
     23          1           0        4.836909   -1.899024    0.535237
     24          1           0        6.451774    1.058411    0.203191
     25          1           0        4.635081    3.196599   -0.439049
     26          1           0        1.807196    0.487611    0.599911
     27          1           0        0.086699    1.881305   -1.242931
     28          1           0       -1.365074    1.433428    0.386417
     29          1           0       -0.286246    0.702867    1.524142
 ---------------------------------------------------------------------
 Rotational constants (GHZ):           1.0487549           0.1644246           0.1467850
 Standard basis: 6-31G(2df,p) (6D, 7F)
 There are   569 symmetry adapted cartesian basis functions of A   symmetry.
 There are   521 symmetry adapted basis functions of A   symmetry.
   521 basis functions,   843 primitive gaussians,   569 cartesian basis functions
    65 alpha electrons       65 beta electrons
       nuclear repulsion energy      1160.4119644116 Hartrees.
 NAtoms=   29 NActive=   29 NUniq=   29 SFac= 1.00D+00 NAtFMM=   60 NAOKFM=F Big=F
 Integral buffers will be    131072 words long.
 Raffenetti 2 integral format.
 Two-electron integral symmetry is turned on.
 One-electron integrals computed using PRISM.
 PrsmSu:  requested number of processors reduced to:  12 ShMem   1 Linda.
 NBasis=   521 RedAO= T EigKep=  1.38D-04  NBF=   521
 NBsUse=   521 1.00D-06 EigRej= -1.00D+00 NBFU=   521
 Initial guess from the checkpoint file:  "S[SH]dCC1dNCdCCdCC2dCCdC2CdCC1.chk"
 B after Tr=     0.000000    0.000000   -0.000000
         Rot=    1.000000    0.000000    0.000000    0.000000 Ang=   0.00 deg.
 Requested convergence on RMS density matrix=1.00D-08 within 128 cycles.
 Requested convergence on MAX density matrix=1.00D-06.
 Requested convergence on             energy=1.00D-06.
 No special actions if energy rises.
 SCF Done:  E(RB3LYP) =  -1353.97924678     A.U. after    6 cycles
            NFock=  6  Conv=0.18D-08     -V/T= 2.0051
 PrsmSu:  requested number of processors reduced to:  13 ShMem   1 Linda.
 Calling FoFJK, ICntrl=      2127 FMM=F ISym2X=0 I1Cent= 0 IOpClX= 0 NMat=1 NMatS=1 NMatT=0.
 ***** Axes restored to original set *****
 -------------------------------------------------------------------
 Center     Atomic                   Forces (Hartrees/Bohr)
 Number     Number              X              Y              Z
 -------------------------------------------------------------------
      1       16          -0.003270559    0.000659135   -0.009159894
      2       16           0.005381703   -0.000137232    0.008051791
      3        6           0.004732546    0.002715965    0.003286480
      4        6           0.001907223   -0.002257642    0.000974285
      5        7           0.003058947    0.009519809   -0.005560283
      6        6           0.006297287   -0.006974883    0.010709363
      7        6          -0.002365510    0.015110487    0.004797043
      8        6           0.003611186   -0.014746626   -0.007596230
      9        6          -0.004790320    0.004251823    0.000642294
     10        6           0.008809992    0.009389207    0.001761646
     11        6          -0.003233477    0.003324395   -0.007283725
     12        6          -0.003106984   -0.002642812    0.006161801
     13        6           0.022848100   -0.013766141   -0.038666979
     14        6          -0.047124277    0.022241804    0.074330044
     15        6           0.044416448   -0.024035867   -0.025415999
     16        6          -0.030474586    0.010301818   -0.008304259
     17        1           0.000856991   -0.000457669   -0.000110060
     18        1          -0.002910354   -0.002245840   -0.001383665
     19        1           0.001181722    0.000707793    0.002972924
     20        1           0.001061128   -0.009201462   -0.011128995
     21        1          -0.001166235    0.000795959   -0.000108184
     22        1          -0.000570566   -0.000077112   -0.002186366
     23        1          -0.001677027   -0.000587022    0.000025214
     24        1          -0.000478371    0.000172152   -0.000605862
     25        1           0.000246167    0.000072511   -0.000140475
     26        1           0.000707282   -0.000940603   -0.002927097
     27        1          -0.001281143   -0.000094033    0.000256115
     28        1          -0.002482791    0.003602729    0.002298091
     29        1          -0.000184522   -0.004700641    0.004310984
 -------------------------------------------------------------------
 Cartesian Forces:  Max     0.074330044 RMS     0.013783847

 GradGradGradGradGradGradGradGradGradGradGradGradGradGradGradGradGradGrad
 Berny optimization.
 Using GEDIIS/GDIIS optimizer.
 FormGI is forming the generalized inverse of G from B-inverse, IUseBI=4.
 Internal  Forces:  Max     0.145902487 RMS     0.027513082
 Search for a local minimum.
 Step number  33 out of a maximum of  119
 All quantities printed in internal units (Hartrees-Bohrs-Radians)
 Mixed Optimization -- RFO/linear search
 Update second derivatives using D2CorX and points   32   33   31
 ITU=  0  0  0  1  1  0  1  0  1 -1  0 -1  1  0 -1 -1  1  1  1  0
 ITU=  0  0  1  0  0  1  0 -1 -1  1  0 -1  0
 Use linear search instead of GDIIS.
 Skip linear search -- no minimum in search direction.
 Steepest descent instead of Quadratic search.
 Steepest descent step scaled to max of 0.05000.
 SLEqS3 Cycle:   871 Max:0.105787E-01 RMS:0.209217E-02 Conv:0.254726E-07
 SLEqS3 Cycle:   871 Max:0.105787E-01 RMS:0.209217E-02 Conv:0.254726E-07
 Iteration  1 RMS(Cart)=  0.07078866 RMS(Int)=  0.00674045
 New curvilinear step failed, DQL= 4.42D+00 SP=-2.74D-02.
 ITry= 1 IFail=1 DXMaxC= 4.25D-01 DCOld= 1.00D+10 DXMaxT= 7.14D-01 DXLimC= 3.00D+00 Rises=T
 SLEqS3 Cycle:   871 Max:0.957907E-02 RMS:0.189503E-02 Conv:0.229253E-07
 SLEqS3 Cycle:   871 Max:0.957907E-02 RMS:0.189503E-02 Conv:0.229253E-07
 Iteration  1 RMS(Cart)=  0.06571017 RMS(Int)=  0.00602131
 Iteration  2 RMS(Cart)=  0.00001293 RMS(Int)=  0.00602082
 Iteration  3 RMS(Cart)=  0.00001292 RMS(Int)=  0.00602032
 Iteration  4 RMS(Cart)=  0.00001292 RMS(Int)=  0.00601983
 Iteration  5 RMS(Cart)=  0.00001291 RMS(Int)=  0.00601934
 Iteration  6 RMS(Cart)=  0.00001291 RMS(Int)=  0.00601885
 Iteration  7 RMS(Cart)=  0.00001290 RMS(Int)=  0.00601835
 Iteration  8 RMS(Cart)=  0.00001290 RMS(Int)=  0.00601786
 Iteration  9 RMS(Cart)=  0.00001289 RMS(Int)=  0.00601737
 Iteration 10 RMS(Cart)=  0.00001289 RMS(Int)=  0.00601688
 Iteration 11 RMS(Cart)=  0.00001288 RMS(Int)=  0.00601639
 Iteration 12 RMS(Cart)=  0.00001288 RMS(Int)=  0.00601590
 Iteration 13 RMS(Cart)=  0.00001287 RMS(Int)=  0.00601541
 Iteration 14 RMS(Cart)=  0.00001287 RMS(Int)=  0.00601491
 Iteration 15 RMS(Cart)=  0.00001286 RMS(Int)=  0.00601442
 Iteration 16 RMS(Cart)=  0.00001285 RMS(Int)=  0.00601393
 Iteration 17 RMS(Cart)=  0.00001285 RMS(Int)=  0.00601344
 Iteration 18 RMS(Cart)=  0.00001284 RMS(Int)=  0.00601295
 Iteration 19 RMS(Cart)=  0.00001284 RMS(Int)=  0.00601246
 Iteration 20 RMS(Cart)=  0.00001283 RMS(Int)=  0.00601197
 Iteration 21 RMS(Cart)=  0.00001283 RMS(Int)=  0.00601148
 Iteration 22 RMS(Cart)=  0.00001282 RMS(Int)=  0.00601099
 Iteration 23 RMS(Cart)=  0.00001282 RMS(Int)=  0.00601051
 Iteration 24 RMS(Cart)=  0.00001281 RMS(Int)=  0.00601002
 Iteration 25 RMS(Cart)=  0.00001281 RMS(Int)=  0.00600953
 Iteration 26 RMS(Cart)=  0.00001280 RMS(Int)=  0.00600904
 Iteration 27 RMS(Cart)=  0.00001280 RMS(Int)=  0.00600855
 Iteration 28 RMS(Cart)=  0.00001279 RMS(Int)=  0.00600806
 Iteration 29 RMS(Cart)=  0.00001279 RMS(Int)=  0.00600758
 Iteration 30 RMS(Cart)=  0.00001278 RMS(Int)=  0.00600709
 Iteration 31 RMS(Cart)=  0.00001278 RMS(Int)=  0.00600660
 Iteration 32 RMS(Cart)=  0.00001277 RMS(Int)=  0.00600611
 Iteration 33 RMS(Cart)=  0.00001276 RMS(Int)=  0.00600563
 Iteration 34 RMS(Cart)=  0.00001276 RMS(Int)=  0.00600514
 Iteration 35 RMS(Cart)=  0.00001275 RMS(Int)=  0.00600465
 Iteration 36 RMS(Cart)=  0.00001275 RMS(Int)=  0.00600417
 Iteration 37 RMS(Cart)=  0.00001274 RMS(Int)=  0.00600368
 Iteration 38 RMS(Cart)=  0.00001274 RMS(Int)=  0.00600319
 Iteration 39 RMS(Cart)=  0.00001273 RMS(Int)=  0.00600271
 Iteration 40 RMS(Cart)=  0.00001273 RMS(Int)=  0.00600222
 Iteration 41 RMS(Cart)=  0.00001272 RMS(Int)=  0.00600174
 Iteration 42 RMS(Cart)=  0.00001272 RMS(Int)=  0.00600125
 Iteration 43 RMS(Cart)=  0.00001271 RMS(Int)=  0.00600077
 Iteration 44 RMS(Cart)=  0.00001270 RMS(Int)=  0.00600028
 Iteration 45 RMS(Cart)=  0.00001270 RMS(Int)=  0.00599980
 Iteration 46 RMS(Cart)=  0.00001269 RMS(Int)=  0.00599931
 Iteration 47 RMS(Cart)=  0.00001269 RMS(Int)=  0.00599883
 Iteration 48 RMS(Cart)=  0.00001268 RMS(Int)=  0.00599835
 Iteration 49 RMS(Cart)=  0.00001268 RMS(Int)=  0.00599786
 Iteration 50 RMS(Cart)=  0.00001266 RMS(Int)=  0.00599738
 Iteration 51 RMS(Cart)=  0.00001264 RMS(Int)=  0.00599690
 SLEqS3 Cycle:   871 Max:0.175183E-01 RMS:0.382557E-02 Conv:0.597689E-05
 SLEqS3 Cycle:   871 Max:0.430520E-02 RMS:0.787784E-03 Conv:0.597689E-05
 New curvilinear step failed, DQL= 4.44D+00 SP=-1.33D-02.
 ITry= 2 IFail=1 DXMaxC= 3.95D-01 DCOld= 1.00D+10 DXMaxT= 7.14D-01 DXLimC= 3.00D+00 Rises=T
 SLEqS3 Cycle:   871 Max:0.820529E-02 RMS:0.162713E-02 Conv:0.203780E-07
 SLEqS3 Cycle:   871 Max:0.820529E-02 RMS:0.162713E-02 Conv:0.203780E-07
 Iteration  1 RMS(Cart)=  0.00528586 RMS(Int)=  0.00727192
 SLEqS3 Cycle:   871 Max:0.414886E-02 RMS:0.778582E-03 Conv:0.299929E-06
 SLEqS3 Cycle:   871 Max:0.354144E-02 RMS:0.613164E-03 Conv:0.299929E-06
 Iteration  2 RMS(Cart)=  0.00000442 RMS(Int)=  0.00727166
 SLEqS3 Cycle:   871 Max:0.348873E-02 RMS:0.598276E-03 Conv:0.302644E-06
 SLEqS3 Cycle:   871 Max:0.358154E-02 RMS:0.615474E-03 Conv:0.302644E-06
 Iteration  3 RMS(Cart)=  0.00000441 RMS(Int)=  0.00727140
 SLEqS3 Cycle:   871 Max:0.357558E-02 RMS:0.613714E-03 Conv:0.305404E-06
 SLEqS3 Cycle:   871 Max:0.358300E-02 RMS:0.615695E-03 Conv:0.305404E-06
 Iteration  4 RMS(Cart)=  0.00000441 RMS(Int)=  0.00727115
 SLEqS3 Cycle:   871 Max:0.357597E-02 RMS:0.613800E-03 Conv:0.308217E-06
 SLEqS3 Cycle:   871 Max:0.358252E-02 RMS:0.615699E-03 Conv:0.308217E-06
 Iteration  5 RMS(Cart)=  0.00000441 RMS(Int)=  0.00727089
 SLEqS3 Cycle:   871 Max:0.349121E-02 RMS:0.589916E-03 Conv:0.311083E-06
 SLEqS3 Cycle:   871 Max:0.358201E-02 RMS:0.615662E-03 Conv:0.311083E-06
 Iteration  6 RMS(Cart)=  0.00000441 RMS(Int)=  0.00727064
 SLEqS3 Cycle:   871 Max:0.356665E-02 RMS:0.611157E-03 Conv:0.314002E-06
 SLEqS3 Cycle:   871 Max:0.358205E-02 RMS:0.615715E-03 Conv:0.314002E-06
 Iteration  7 RMS(Cart)=  0.00000440 RMS(Int)=  0.00727038
 SLEqS3 Cycle:   871 Max:0.347104E-02 RMS:0.585517E-03 Conv:0.316977E-06
 SLEqS3 Cycle:   871 Max:0.357856E-02 RMS:0.615732E-03 Conv:0.316977E-06
 Iteration  8 RMS(Cart)=  0.00000440 RMS(Int)=  0.00727012
 SLEqS3 Cycle:   871 Max:0.355028E-02 RMS:0.606687E-03 Conv:0.320009E-06
 SLEqS3 Cycle:   871 Max:0.358170E-02 RMS:0.615739E-03 Conv:0.320009E-06
 Iteration  9 RMS(Cart)=  0.00000440 RMS(Int)=  0.00726987
 SLEqS3 Cycle:   871 Max:0.354960E-02 RMS:0.606560E-03 Conv:0.323097E-06
 SLEqS3 Cycle:   871 Max:0.382481E-02 RMS:0.761754E-03 Conv:0.323097E-06
 Iteration 10 RMS(Cart)=  0.00000844 RMS(Int)=  0.00726938
 SLEqS3 Cycle:   871 Max:0.355913E-02 RMS:0.609156E-03 Conv:0.329237E-06
 SLEqS3 Cycle:   871 Max:0.372438E-02 RMS:0.669784E-03 Conv:0.329237E-06
 Iteration 11 RMS(Cart)=  0.00000656 RMS(Int)=  0.00726900
 SLEqS3 Cycle:   871 Max:0.357659E-02 RMS:0.614280E-03 Conv:0.334164E-06
 SLEqS3 Cycle:   871 Max:0.382008E-02 RMS:0.757128E-03 Conv:0.334164E-06
 Iteration 12 RMS(Cart)=  0.00000834 RMS(Int)=  0.00726851
 SLEqS3 Cycle:   871 Max:0.356994E-02 RMS:0.612719E-03 Conv:0.340666E-06
 SLEqS3 Cycle:   871 Max:0.484082E-02 RMS:0.661244E-03 Conv:0.340666E-06
 Iteration 13 RMS(Cart)=  0.00000867 RMS(Int)=  0.00726801
 SLEqS3 Cycle:   871 Max:0.356976E-02 RMS:0.612437E-03 Conv:0.347253E-06
 SLEqS3 Cycle:   871 Max:0.971446E-02 RMS:0.180174E-02 Conv:0.347253E-06
 Iteration 14 RMS(Cart)=  0.00000896 RMS(Int)=  0.00726752
 SLEqS3 Cycle:   871 Max:0.752407E-02 RMS:0.140471E-02 Conv:0.352323E-06
 SLEqS3 Cycle:   871 Max:0.971465E-02 RMS:0.180164E-02 Conv:0.352323E-06
 Iteration 15 RMS(Cart)=  0.00000895 RMS(Int)=  0.00726702
 SLEqS3 Cycle:   871 Max:0.745597E-02 RMS:0.138684E-02 Conv:0.357543E-06
 SLEqS3 Cycle:   871 Max:0.971484E-02 RMS:0.180155E-02 Conv:0.357543E-06
 Iteration 16 RMS(Cart)=  0.00000895 RMS(Int)=  0.00726653
 SLEqS3 Cycle:   871 Max:0.766011E-02 RMS:0.144317E-02 Conv:0.362921E-06
 SLEqS3 Cycle:   871 Max:0.971503E-02 RMS:0.180145E-02 Conv:0.362921E-06
 Iteration 17 RMS(Cart)=  0.00000895 RMS(Int)=  0.00726603
 SLEqS3 Cycle:   871 Max:0.694355E-02 RMS:0.125368E-02 Conv:0.368462E-06
 SLEqS3 Cycle:   871 Max:0.971523E-02 RMS:0.180136E-02 Conv:0.368462E-06
 Iteration 18 RMS(Cart)=  0.00000894 RMS(Int)=  0.00726554
 SLEqS3 Cycle:   871 Max:0.767356E-02 RMS:0.144710E-02 Conv:0.374175E-06
slurmstepd: error: *** JOB 27449243 ON lewis4-r630-hpc4rc-node351 CANCELLED AT 2023-05-20T10:08:59 DUE TO TIME LIMIT ***
