### Starting Gaussian ###
 Entering Gaussian System, Link 0=g16
 Initial command:
 /cluster/software/gaussian/gaussian-16-A.03/avx2/g16/l1.exe "/local/scratch/ks29c/Gau-21788.inp" -scrdir="/local/scratch/ks29c/"
 Entering Link 1 = /cluster/software/gaussian/gaussian-16-A.03/avx2/g16/l1.exe PID=     21789.
  
 Copyright (c) 1988,1990,1992,1993,1995,1998,2003,2009,2016,
            Gaussian, Inc.  All Rights Reserved.
  
 This is part of the Gaussian(R) 16 program.  It is based on
 the Gaussian(R) 09 system (copyright 2009, Gaussian, Inc.),
 the Gaussian(R) 03 system (copyright 2003, Gaussian, Inc.),
 the Gaussian(R) 98 system (copyright 1998, Gaussian, Inc.),
 the Gaussian(R) 94 system (copyright 1995, Gaussian, Inc.),
 the Gaussian 92(TM) system (copyright 1992, Gaussian, Inc.),
 the Gaussian 90(TM) system (copyright 1990, Gaussian, Inc.),
 the Gaussian 88(TM) system (copyright 1988, Gaussian, Inc.),
 the Gaussian 86(TM) system (copyright 1986, Carnegie Mellon
 University), and the Gaussian 82(TM) system (copyright 1983,
 Carnegie Mellon University). Gaussian is a federally registered
 trademark of Gaussian, Inc.
  
 This software contains proprietary and confidential information,
 including trade secrets, belonging to Gaussian, Inc.
  
 This software is provided under written license and may be
 used, copied, transmitted, or stored only in accord with that
 written license.
  
 The following legend is applicable only to US Government
 contracts under FAR:
  
                    RESTRICTED RIGHTS LEGEND
  
 Use, reproduction and disclosure by the US Government is
 subject to restrictions as set forth in subparagraphs (a)
 and (c) of the Commercial Computer Software - Restricted
 Rights clause in FAR 52.227-19.
  
 Gaussian, Inc.
 340 Quinnipiac St., Bldg. 40, Wallingford CT 06492
  
  
 ---------------------------------------------------------------
 Warning -- This program may not be used in any manner that
 competes with the business of Gaussian, Inc. or will provide
 assistance to any competitor of Gaussian, Inc.  The licensee
 of this program is prohibited from giving any competitor of
 Gaussian, Inc. access to this program.  By using this program,
 the user acknowledges that Gaussian, Inc. is engaged in the
 business of creating and licensing software in the field of
 computational chemistry and represents and warrants to the
 licensee that it is not a competitor of Gaussian, Inc. and that
 it will not use this program in any manner prohibited above.
 ---------------------------------------------------------------
  

 Cite this work as:
 Gaussian 16, Revision A.03,
 M. J. Frisch, G. W. Trucks, H. B. Schlegel, G. E. Scuseria, 
 M. A. Robb, J. R. Cheeseman, G. Scalmani, V. Barone, 
 G. A. Petersson, H. Nakatsuji, X. Li, M. Caricato, A. V. Marenich, 
 J. Bloino, B. G. Janesko, R. Gomperts, B. Mennucci, H. P. Hratchian, 
 J. V. Ortiz, A. F. Izmaylov, J. L. Sonnenberg, D. Williams-Young, 
 F. Ding, F. Lipparini, F. Egidi, J. Goings, B. Peng, A. Petrone, 
 T. Henderson, D. Ranasinghe, V. G. Zakrzewski, J. Gao, N. Rega, 
 G. Zheng, W. Liang, M. Hada, M. Ehara, K. Toyota, R. Fukuda, 
 J. Hasegawa, M. Ishida, T. Nakajima, Y. Honda, O. Kitao, H. Nakai, 
 T. Vreven, K. Throssell, J. A. Montgomery, Jr., J. E. Peralta, 
 F. Ogliaro, M. J. Bearpark, J. J. Heyd, E. N. Brothers, K. N. Kudin, 
 V. N. Staroverov, T. A. Keith, R. Kobayashi, J. Normand, 
 K. Raghavachari, A. P. Rendell, J. C. Burant, S. S. Iyengar, 
 J. Tomasi, M. Cossi, J. M. Millam, M. Klene, C. Adamo, R. Cammi, 
 J. W. Ochterski, R. L. Martin, K. Morokuma, O. Farkas, 
 J. B. Foresman, and D. J. Fox, Gaussian, Inc., Wallingford CT, 2016.
 
 ******************************************
 Gaussian 16:  ES64L-G16RevA.03 25-Dec-2016
                16-May-2023 
 ******************************************
 %chk=SC12CdCSCdCCdC1CdCCdCNdCCdCO2.chk
 %NProcShared=20
 Will use up to   20 processors via shared memory.
 -----------------------------
 # opt freq b3lyp/6-31g(2df,p)
 -----------------------------
 1/18=20,19=15,26=3,38=1/1,3;
 2/9=110,12=2,17=6,18=5,40=1/2;
 3/5=1,6=6,7=104,11=2,25=1,30=1,71=1,74=-5/1,2,3;
 4//1;
 5/5=2,38=5/2;
 6/7=2,8=2,9=2,10=2,28=1/1;
 7//1,2,3,16;
 1/18=20,19=15,26=3/3(2);
 2/9=110/2;
 99//99;
 2/9=110/2;
 3/5=1,6=6,7=104,11=2,25=1,30=1,71=1,74=-5/1,2,3;
 4/5=5,16=3,69=1/1;
 5/5=2,38=5/2;
 7//1,2,3,16;
 1/18=20,19=15,26=3/3(-5);
 2/9=110/2;
 6/7=2,8=2,9=2,10=2,19=2,28=1/1;
 99/9=1/99;
 -------------------
 Title Card Required
 -------------------
 Symbolic Z-matrix:
 Charge =  0 Multiplicity = 1
 S                     1.92882  -0.43933   0.23402 
 C                     4.18116  -1.60461  -0.00828 
 C                     3.79191   0.2517   -0.7674 
 C                     4.72774   1.12927  -1.09696 
 S                     5.18804   2.42164  -2.25372 
 C                     6.82728   1.72778  -2.1125 
 C                     6.78294   0.02944  -1.93751 
 C                     6.25311  -1.91839  -1.07226 
 C                     5.41384  -3.43668  -0.21807 
 C                     5.15533  -5.701     0.57074 
 C                     4.49974  -7.30407   1.40653 
 C                     3.2446   -8.11129   0.91175 
 C                     2.89923  -6.97636   1.51695 
 N                     3.12546  -5.92181   0.73874 
 C                     2.99632  -4.73961   1.11459 
 C                     3.26112  -3.71806   0.2156 
 C                     2.91109  -2.51476   0.45741 
 O                     3.09532  -1.67721  -0.86827 
 H                     0.88608   1.0009    0.32364 
 H                     2.85317   1.21041  -1.35246 
 H                     5.4902    0.69528  -0.55867 
 H                     7.74026   1.93118  -1.52228 
 H                     7.16888   1.30369  -2.88603 
 H                     7.39271  -0.97269  -1.56224 
 H                     5.23281  -7.3276    0.65189 
 H                     3.62071  -8.51296   2.28607 
 H                     3.85033  -8.46608   0.05659 
 H                     2.50564  -6.95364   2.51165 
 H                     2.46205  -4.58803   1.99185 
 H                     3.80501  -3.79877  -0.71921 
 H                     2.37993  -2.1975    1.37775 
 
 Add virtual bond connecting atoms H20        and C3         Dist= 2.77D+00.
 Add virtual bond connecting atoms H26        and C12        Dist= 2.80D+00.
 Add virtual bond connecting atoms H24        and C8         Dist= 2.95D+00.
 Add virtual bond connecting atoms H25        and C10        Dist= 3.08D+00.
 Add virtual bond connecting atoms H30        and C9         Dist= 3.26D+00.
 Add virtual bond connecting atoms H19        and S1         Dist= 3.36D+00.
 Add virtual bond connecting atoms C2         and C3         Dist= 3.86D+00.
 Add virtual bond connecting atoms C9         and C8         Dist= 3.65D+00.
 Add virtual bond connecting atoms O18        and C3         Dist= 3.88D+00.
 Add virtual bond connecting atoms O18        and S1         Dist= 3.83D+00.
 Add virtual bond connecting atoms H31        and S1         Dist= 4.05D+00.

 GradGradGradGradGradGradGradGradGradGradGradGradGradGradGradGradGradGrad
 Berny optimization.
 Initialization pass.
                           ----------------------------
                           !    Initial Parameters    !
                           ! (Angstroms and Degrees)  !
 --------------------------                            --------------------------
 ! Name  Definition              Value          Derivative Info.                !
 --------------------------------------------------------------------------------
 ! R1    R(1,18)                 2.0268         estimate D2E/DX2                !
 ! R2    R(1,19)                 1.7803         estimate D2E/DX2                !
 ! R3    R(1,31)                 2.1454         estimate D2E/DX2                !
 ! R4    R(2,3)                  2.043          estimate D2E/DX2                !
 ! R5    R(2,17)                 1.6304         estimate D2E/DX2                !
 ! R6    R(2,18)                 1.387          estimate D2E/DX2                !
 ! R7    R(3,4)                  1.3246         estimate D2E/DX2                !
 ! R8    R(3,18)                 2.0533         estimate D2E/DX2                !
 ! R9    R(3,20)                 1.4638         estimate D2E/DX2                !
 ! R10   R(4,5)                  1.7945         estimate D2E/DX2                !
 ! R11   R(4,21)                 1.0293         estimate D2E/DX2                !
 ! R12   R(5,6)                  1.7856         estimate D2E/DX2                !
 ! R13   R(6,7)                  1.7079         estimate D2E/DX2                !
 ! R14   R(6,22)                 1.106          estimate D2E/DX2                !
 ! R15   R(6,23)                 0.946          estimate D2E/DX2                !
 ! R16   R(7,24)                 1.2316         estimate D2E/DX2                !
 ! R17   R(8,9)                  1.9337         estimate D2E/DX2                !
 ! R18   R(8,24)                 1.5598         estimate D2E/DX2                !
 ! R19   R(9,30)                 1.7235         estimate D2E/DX2                !
 ! R20   R(10,25)                1.6305         estimate D2E/DX2                !
 ! R21   R(11,12)                1.5722         estimate D2E/DX2                !
 ! R22   R(11,13)                1.6374         estimate D2E/DX2                !
 ! R23   R(11,25)                1.0523         estimate D2E/DX2                !
 ! R24   R(12,13)                1.3318         estimate D2E/DX2                !
 ! R25   R(12,26)                1.4804         estimate D2E/DX2                !
 ! R26   R(12,27)                1.1064         estimate D2E/DX2                !
 ! R27   R(13,14)                1.33           estimate D2E/DX2                !
 ! R28   R(13,28)                1.07           estimate D2E/DX2                !
 ! R29   R(14,15)                1.2472         estimate D2E/DX2                !
 ! R30   R(15,16)                1.3863         estimate D2E/DX2                !
 ! R31   R(15,29)                1.0383         estimate D2E/DX2                !
 ! R32   R(16,17)                1.2763         estimate D2E/DX2                !
 ! R33   R(16,30)                1.0845         estimate D2E/DX2                !
 ! R34   R(17,18)                1.5789         estimate D2E/DX2                !
 ! R35   R(17,31)                1.109          estimate D2E/DX2                !
 ! A1    A(18,1,19)            149.1517         estimate D2E/DX2                !
 ! A2    A(18,1,31)             70.6346         estimate D2E/DX2                !
 ! A3    A(19,1,31)            139.3996         estimate D2E/DX2                !
 ! A4    A(3,2,17)             117.7061         estimate D2E/DX2                !
 ! A5    A(2,3,4)              124.0443         estimate D2E/DX2                !
 ! A6    A(2,3,20)             149.9771         estimate D2E/DX2                !
 ! A7    A(4,3,18)             148.195          estimate D2E/DX2                !
 ! A8    A(4,3,20)              85.3956         estimate D2E/DX2                !
 ! A9    A(18,3,20)            112.2143         estimate D2E/DX2                !
 ! A10   A(3,4,5)              144.96           estimate D2E/DX2                !
 ! A11   A(3,4,21)              96.5397         estimate D2E/DX2                !
 ! A12   A(5,4,21)             116.7927         estimate D2E/DX2                !
 ! A13   A(4,5,6)               84.5284         estimate D2E/DX2                !
 ! A14   A(5,6,7)              111.7571         estimate D2E/DX2                !
 ! A15   A(5,6,22)             136.7639         estimate D2E/DX2                !
 ! A16   A(5,6,23)             116.1697         estimate D2E/DX2                !
 ! A17   A(7,6,22)              98.6053         estimate D2E/DX2                !
 ! A18   A(7,6,23)              69.3512         estimate D2E/DX2                !
 ! A19   A(22,6,23)            102.7516         estimate D2E/DX2                !
 ! A20   A(6,7,24)             145.8396         estimate D2E/DX2                !
 ! A21   A(9,8,24)             158.7299         estimate D2E/DX2                !
 ! A22   A(8,9,30)             116.2091         estimate D2E/DX2                !
 ! A23   A(12,11,25)           108.6006         estimate D2E/DX2                !
 ! A24   A(13,11,25)           137.1998         estimate D2E/DX2                !
 ! A25   A(11,12,26)            69.1651         estimate D2E/DX2                !
 ! A26   A(11,12,27)            88.3276         estimate D2E/DX2                !
 ! A27   A(13,12,26)            82.833          estimate D2E/DX2                !
 ! A28   A(13,12,27)           140.0411         estimate D2E/DX2                !
 ! A29   A(26,12,27)           119.4359         estimate D2E/DX2                !
 ! A30   A(11,13,14)            87.3042         estimate D2E/DX2                !
 ! A31   A(11,13,28)           115.2451         estimate D2E/DX2                !
 ! A32   A(12,13,14)           111.4504         estimate D2E/DX2                !
 ! A33   A(12,13,28)           122.4084         estimate D2E/DX2                !
 ! A34   A(14,13,28)           126.1352         estimate D2E/DX2                !
 ! A35   A(13,14,15)           123.8921         estimate D2E/DX2                !
 ! A36   A(14,15,16)           118.8995         estimate D2E/DX2                !
 ! A37   A(14,15,29)           116.5055         estimate D2E/DX2                !
 ! A38   A(16,15,29)           122.5899         estimate D2E/DX2                !
 ! A39   A(15,16,17)           121.2981         estimate D2E/DX2                !
 ! A40   A(15,16,30)           126.8632         estimate D2E/DX2                !
 ! A41   A(17,16,30)           111.7779         estimate D2E/DX2                !
 ! A42   A(2,17,16)            104.9838         estimate D2E/DX2                !
 ! A43   A(2,17,31)            116.7722         estimate D2E/DX2                !
 ! A44   A(16,17,18)           108.0021         estimate D2E/DX2                !
 ! A45   A(16,17,31)           123.9397         estimate D2E/DX2                !
 ! A46   A(18,17,31)           126.9376         estimate D2E/DX2                !
 ! A47   A(1,18,2)              94.6682         estimate D2E/DX2                !
 ! A48   A(1,18,3)              66.0959         estimate D2E/DX2                !
 ! A49   A(1,18,17)             78.4745         estimate D2E/DX2                !
 ! A50   A(3,18,17)            119.7799         estimate D2E/DX2                !
 ! A51   A(7,24,8)             103.1387         estimate D2E/DX2                !
 ! A52   A(10,25,11)            88.8701         estimate D2E/DX2                !
 ! A53   A(9,30,16)            101.6461         estimate D2E/DX2                !
 ! A54   A(1,31,17)             83.8421         estimate D2E/DX2                !
 ! D1    D(19,1,18,2)          128.0627         estimate D2E/DX2                !
 ! D2    D(19,1,18,3)           62.5849         estimate D2E/DX2                !
 ! D3    D(19,1,18,17)        -167.2622         estimate D2E/DX2                !
 ! D4    D(31,1,18,2)          -63.1111         estimate D2E/DX2                !
 ! D5    D(31,1,18,3)         -128.5888         estimate D2E/DX2                !
 ! D6    D(31,1,18,17)           1.564          estimate D2E/DX2                !
 ! D7    D(18,1,31,17)          -2.1947         estimate D2E/DX2                !
 ! D8    D(19,1,31,17)         169.0225         estimate D2E/DX2                !
 ! D9    D(17,2,3,4)           175.1465         estimate D2E/DX2                !
 ! D10   D(17,2,3,20)          -17.5548         estimate D2E/DX2                !
 ! D11   D(3,2,17,16)          147.1299         estimate D2E/DX2                !
 ! D12   D(3,2,17,31)          -71.3891         estimate D2E/DX2                !
 ! D13   D(2,3,4,5)            144.3699         estimate D2E/DX2                !
 ! D14   D(2,3,4,21)           -18.1305         estimate D2E/DX2                !
 ! D15   D(18,3,4,5)            96.8506         estimate D2E/DX2                !
 ! D16   D(18,3,4,21)          -65.6498         estimate D2E/DX2                !
 ! D17   D(20,3,4,5)           -29.2937         estimate D2E/DX2                !
 ! D18   D(20,3,4,21)          168.206          estimate D2E/DX2                !
 ! D19   D(4,3,18,1)           178.4873         estimate D2E/DX2                !
 ! D20   D(4,3,18,17)          118.8474         estimate D2E/DX2                !
 ! D21   D(20,3,18,1)          -61.909          estimate D2E/DX2                !
 ! D22   D(20,3,18,17)        -121.5489         estimate D2E/DX2                !
 ! D23   D(3,4,5,6)           -141.864          estimate D2E/DX2                !
 ! D24   D(21,4,5,6)            18.5834         estimate D2E/DX2                !
 ! D25   D(4,5,6,7)             35.4103         estimate D2E/DX2                !
 ! D26   D(4,5,6,22)           -95.863          estimate D2E/DX2                !
 ! D27   D(4,5,6,23)           112.2938         estimate D2E/DX2                !
 ! D28   D(5,6,7,24)          -159.3643         estimate D2E/DX2                !
 ! D29   D(22,6,7,24)          -10.7431         estimate D2E/DX2                !
 ! D30   D(23,6,7,24)           89.7161         estimate D2E/DX2                !
 ! D31   D(6,7,24,8)           148.4415         estimate D2E/DX2                !
 ! D32   D(24,8,9,30)         -160.308          estimate D2E/DX2                !
 ! D33   D(9,8,24,7)          -168.9784         estimate D2E/DX2                !
 ! D34   D(8,9,30,16)         -120.8676         estimate D2E/DX2                !
 ! D35   D(25,11,12,26)        132.2981         estimate D2E/DX2                !
 ! D36   D(25,11,12,27)          9.8069         estimate D2E/DX2                !
 ! D37   D(25,11,13,14)        -44.286          estimate D2E/DX2                !
 ! D38   D(25,11,13,28)       -173.3716         estimate D2E/DX2                !
 ! D39   D(12,11,25,10)        119.3818         estimate D2E/DX2                !
 ! D40   D(13,11,25,10)         70.3634         estimate D2E/DX2                !
 ! D41   D(26,12,13,14)        145.4669         estimate D2E/DX2                !
 ! D42   D(26,12,13,28)        -33.6924         estimate D2E/DX2                !
 ! D43   D(27,12,13,14)         17.0657         estimate D2E/DX2                !
 ! D44   D(27,12,13,28)       -162.0935         estimate D2E/DX2                !
 ! D45   D(11,13,14,15)       -114.0155         estimate D2E/DX2                !
 ! D46   D(12,13,14,15)       -173.5141         estimate D2E/DX2                !
 ! D47   D(28,13,14,15)          5.6071         estimate D2E/DX2                !
 ! D48   D(13,14,15,16)        179.9482         estimate D2E/DX2                !
 ! D49   D(13,14,15,29)        -15.7305         estimate D2E/DX2                !
 ! D50   D(14,15,16,17)        166.7321         estimate D2E/DX2                !
 ! D51   D(14,15,16,30)        -16.3421         estimate D2E/DX2                !
 ! D52   D(29,15,16,17)          3.4124         estimate D2E/DX2                !
 ! D53   D(29,15,16,30)       -179.6618         estimate D2E/DX2                !
 ! D54   D(15,16,17,2)         137.7554         estimate D2E/DX2                !
 ! D55   D(15,16,17,18)       -168.7804         estimate D2E/DX2                !
 ! D56   D(15,16,17,31)         -0.162          estimate D2E/DX2                !
 ! D57   D(30,16,17,2)         -39.5962         estimate D2E/DX2                !
 ! D58   D(30,16,17,18)         13.8679         estimate D2E/DX2                !
 ! D59   D(30,16,17,31)       -177.5137         estimate D2E/DX2                !
 ! D60   D(15,16,30,9)         -91.7151         estimate D2E/DX2                !
 ! D61   D(17,16,30,9)          85.4563         estimate D2E/DX2                !
 ! D62   D(16,17,18,1)         164.6072         estimate D2E/DX2                !
 ! D63   D(16,17,18,3)        -141.7741         estimate D2E/DX2                !
 ! D64   D(31,17,18,1)          -3.5731         estimate D2E/DX2                !
 ! D65   D(31,17,18,3)          50.0455         estimate D2E/DX2                !
 ! D66   D(2,17,31,1)           63.3879         estimate D2E/DX2                !
 ! D67   D(16,17,31,1)        -163.0931         estimate D2E/DX2                !
 ! D68   D(18,17,31,1)           3.3265         estimate D2E/DX2                !
 --------------------------------------------------------------------------------
 Trust Radius=3.00D-01 FncErr=1.00D-07 GrdErr=1.00D-06 EigMax=2.50D+02 EigMin=1.00D-04
 Number of steps in this run=    167 maximum allowed number of steps=    186.
 GradGradGradGradGradGradGradGradGradGradGradGradGradGradGradGradGradGrad

                          Input orientation:                          
 ---------------------------------------------------------------------
 Center     Atomic      Atomic             Coordinates (Angstroms)
 Number     Number       Type             X           Y           Z
 ---------------------------------------------------------------------
      1         16           0        1.928820   -0.439330    0.234020
      2          6           0        4.181160   -1.604610   -0.008280
      3          6           0        3.791910    0.251700   -0.767400
      4          6           0        4.727740    1.129270   -1.096960
      5         16           0        5.188040    2.421640   -2.253720
      6          6           0        6.827280    1.727780   -2.112500
      7          6           0        6.782940    0.029440   -1.937510
      8          6           0        6.253110   -1.918390   -1.072260
      9          6           0        5.413840   -3.436680   -0.218070
     10          6           0        5.155330   -5.701000    0.570740
     11          6           0        4.499740   -7.304070    1.406530
     12          6           0        3.244600   -8.111290    0.911750
     13          6           0        2.899230   -6.976360    1.516950
     14          7           0        3.125460   -5.921810    0.738740
     15          6           0        2.996320   -4.739610    1.114590
     16          6           0        3.261120   -3.718060    0.215600
     17          6           0        2.911090   -2.514760    0.457410
     18          8           0        3.095320   -1.677210   -0.868270
     19          1           0        0.886080    1.000900    0.323640
     20          1           0        2.853170    1.210410   -1.352460
     21          1           0        5.490200    0.695280   -0.558670
     22          1           0        7.740260    1.931180   -1.522280
     23          1           0        7.168880    1.303690   -2.886030
     24          1           0        7.392710   -0.972690   -1.562240
     25          1           0        5.232810   -7.327600    0.651890
     26          1           0        3.620710   -8.512960    2.286070
     27          1           0        3.850330   -8.466080    0.056590
     28          1           0        2.505640   -6.953640    2.511650
     29          1           0        2.462050   -4.588030    1.991850
     30          1           0        3.805010   -3.798770   -0.719210
     31          1           0        2.379930   -2.197500    1.377750
 ---------------------------------------------------------------------
                    Distance matrix (angstroms):
                    1          2          3          4          5
     1  S    0.000000
     2  C    2.547474   0.000000
     3  C    2.225190   2.042955   0.000000
     4  C    3.473610   2.993004   1.324582   0.000000
     5  S    4.999651   4.718739   2.977745   1.794489   0.000000
     6  C    5.847857   4.747053   3.633397   2.407821   1.785635
     7  C    5.338330   3.627852   3.219444   2.477902   2.892458
     8  C    4.753259   2.350210   3.295411   3.408166   4.622346
     9  C    4.618859   2.218106   4.066518   4.700115   6.206027
    10  C    6.181336   4.250257   6.251733   7.043908   8.599763
    11  C    7.423548   5.881073   7.894090   8.800038  10.414443
    12  C    7.813422   6.637807   8.547438   9.571968  11.168696
    13  C    6.732040   5.729343   7.632823   8.710753  10.381667
    14  N    5.634206   4.506746   6.389432   7.460216   9.100671
    15  C    4.517451   3.534531   5.393332   6.506345   8.211739
    16  C    3.539129   2.315873   4.123957   5.231672   6.892494
    17  C    2.306982   1.630435   3.151080   4.358353   6.074765
    18  O    2.026848   1.387048   2.053316   3.254754   4.806196
    19  H    1.780337   4.213835   3.193042   4.097918   5.212307
    20  H    2.468397   3.390386   1.463780   1.893641   2.780461
    21  H    3.820880   2.702963   1.767631   1.029295   2.438199
    22  H    6.517418   5.240343   4.356600   3.146305   2.699886
    23  H    6.342796   5.066175   4.123009   3.031560   2.360795
    24  H    5.776255   3.623281   3.885442   3.425899   4.106116
    25  H    7.651093   5.856143   7.844512   8.650562  10.173114
    26  H    8.500406   7.300921   9.282901  10.278278  11.942851
    27  H    8.255447   6.869747   8.756829   9.704188  11.210238
    28  H    6.925067   6.145693   8.020198   9.126512  10.853566
    29  H    4.537181   3.982041   5.727563   6.881978   8.636629
    30  H    3.964161   2.336931   4.050778   5.027893   6.554464
    31  H    2.145409   2.348835   3.548794   4.764850   6.512258
                    6          7          8          9         10
     6  C    0.000000
     7  C    1.707907   0.000000
     8  C    3.834883   2.196228   0.000000
     9  C    5.679641   4.104253   1.933706   0.000000
    10  C    8.073535   6.463619   4.267635   2.411679   0.000000
    11  C    9.968718   8.377110   6.182577   4.293205   1.923064
    12  C   10.899036   9.322533   7.165154   5.275801   3.094620
    13  C   10.215896   8.723401   6.598150   4.675777   2.758957
    14  N    8.963775   7.480431   5.393449   3.511131   2.048744
    15  C    8.180312   6.811582   4.832005   3.052542   2.425153
    16  C    6.913373   5.575200   3.721478   2.213921   2.765178
    17  C    6.319820   5.215344   3.723526   2.751357   3.898921
    18  O    5.202844   4.201722   3.173550   2.982286   4.743973
    19  H    6.462274   6.389796   6.267041   6.362875   7.950033
    20  H    4.079079   4.144884   4.628984   5.425801   7.534337
    21  H    2.295262   2.003926   2.770754   4.146677   6.503853
    22  H    1.106013   2.169215   4.151304   5.993923   8.325429
    23  H    0.945987   1.634733   3.809225   5.715705   8.066556
    24  H    2.813367   1.231630   1.559845   3.434234   5.649105
    25  H    9.601255   7.951977   5.768298   3.991098   1.630465
    26  H   11.597511  10.040464   7.854697   5.937563   3.633804
    27  H   10.838910   9.206003   7.065402   5.273980   3.100491
    28  H   10.743667   9.319535   7.227841   5.317707   3.515266
    29  H    8.705767   7.445199   5.557687   3.862954   3.242223
    30  H    6.451211   5.000751   3.107035   1.723538   2.665673
    31  H    6.882484   5.944469   4.591511   3.645109   4.541874
                   11         12         13         14         15
    11  C    0.000000
    12  C    1.572192   0.000000
    13  C    1.637443   1.331771   0.000000
    14  N    2.060396   2.199534   1.329987   0.000000
    15  C    2.986964   3.386888   2.274724   1.247212   0.000000
    16  C    3.976426   4.448075   3.527179   2.269051   1.386314
    17  C    5.134406   5.624838   4.585700   3.425360   2.321445
    18  O    6.229660   6.677435   5.814526   4.538724   3.649634
    19  H    9.121607   9.430827   8.313449   7.287732   6.167023
    20  H    9.100527   9.600727   8.675185   7.437461   6.442792
    21  H    8.296543   9.206548   8.359150   7.145708   6.209450
    22  H   10.216102  11.268836  10.583797   9.384990   8.599854
    23  H    9.982180  10.884161  10.304143   9.038587   8.362816
    24  H    7.567645   8.618994   8.106592   6.928039   6.378350
    25  H    1.052343   2.152830   2.513423   2.534702   3.451619
    26  H    1.734272   1.480389   1.863657   3.058359   4.000050
    27  H    1.895874   1.106383   2.292708   2.732046   3.966771
    28  H    2.306627   2.108529   1.069980   2.142909   2.663545
    29  H    3.445527   3.767275   2.474020   1.946630   1.038271
    30  H    4.157950   4.644558   3.989728   2.663589   2.214042
    31  H    5.529148   5.994808   4.809007   3.851575   2.628976
                   16         17         18         19         20
    16  C    0.000000
    17  C    1.276293   0.000000
    18  O    2.316750   1.578879   0.000000
    19  H    5.284039   4.059363   3.670649   0.000000
    20  H    5.187972   4.141965   2.937929   2.592807   0.000000
    21  H    5.004584   4.241295   3.385264   4.697850   2.801676
    22  H    7.415985   6.856124   5.918080   7.159094   4.942873
    23  H    7.078748   6.624796   5.436084   7.061674   4.581036
    24  H    5.269517   5.151882   4.409706   7.056050   5.041563
    25  H    4.136023   5.347115   6.229499   9.400304   9.087228
    26  H    5.235190   6.310781   7.546746  10.091723  10.410185
    27  H    4.787081   6.038298   6.893052   9.923800   9.829253
    28  H    4.038759   4.907947   6.293830   8.407441   9.039017
    29  H    2.133172   2.618127   4.129672   6.041750   6.705169
    30  H    1.084528   1.957603   2.242074   5.713538   5.137985
    31  H    2.106939   1.108968   2.413937   3.684087   4.392249
                   21         22         23         24         25
    21  H    0.000000
    22  H    2.742036   0.000000
    23  H    2.933383   1.606248   0.000000
    24  H    2.721915   2.924867   2.642806   0.000000
    25  H    8.117777   9.835615   9.527036   7.067703   0.000000
    26  H    9.817292  11.855559  11.649324   9.267855   2.583503
    27  H    9.327284  11.212823  10.729408   8.445115   1.887265
    28  H    8.765868  11.073114  10.911657   8.732227   3.322049
    29  H    6.602137   9.094433   8.981109   7.072033   4.120418
    30  H    4.802304   6.997388   6.484275   4.644246   4.046130
    31  H    4.668156   7.361339   7.305628   5.938995   5.914704
                   26         27         28         29         30
    26  H    0.000000
    27  H    2.241764   0.000000
    28  H    1.930219   3.181664   0.000000
    29  H    4.102942   4.551025   2.422437   0.000000
    30  H    5.593681   4.731564   4.698939   3.126711   0.000000
    31  H    6.499970   6.572871   4.891053   2.469513   2.998693
                   31
    31  H    0.000000
 Stoichiometry    C14H13NOS2
 Framework group  C1[X(C14H13NOS2)]
 Deg. of freedom    87
 Full point group                 C1      NOp   1
 Largest Abelian subgroup         C1      NOp   1
 Largest concise Abelian subgroup C1      NOp   1
                         Standard orientation:                         
 ---------------------------------------------------------------------
 Center     Atomic      Atomic             Coordinates (Angstroms)
 Number     Number       Type             X           Y           Z
 ---------------------------------------------------------------------
      1         16           0       -1.060072    2.651198   -0.158671
      2          6           0       -0.480344    0.183284   -0.409543
      3          6           0       -2.373735    0.858726   -0.045519
      4          6           0       -3.470250    0.152593   -0.276921
      5         16           0       -5.127829   -0.219019    0.301463
      6          6           0       -4.747088   -1.887627   -0.207729
      7          6           0       -3.106235   -2.274288    0.066206
      8          6           0       -0.920794   -2.099046   -0.062466
      9          6           0        0.920673   -1.521322   -0.182691
     10          6           0        3.324243   -1.705104   -0.255281
     11          6           0        5.203911   -1.325418   -0.399723
     12          6           0        6.030574   -0.524302    0.671085
     13          6           0        5.236517    0.272175   -0.042155
     14          7           0        3.965281    0.150832    0.329464
     15          6           0        3.013004    0.699991   -0.259715
     16          6           0        1.726356    0.501722    0.216829
     17          6           0        0.753044    1.224923   -0.181376
     18          8           0       -0.484652    0.936128    0.755407
     19          1           0       -2.171743    4.039200   -0.243759
     20          1           0       -3.274680    1.836883    0.566166
     21          1           0       -3.038156   -0.528873   -0.915940
     22          1           0       -4.918254   -2.516223   -1.101504
     23          1           0       -4.666136   -2.526959    0.484798
     24          1           0       -2.170414   -3.016842   -0.233401
     25          1           0        4.845447   -2.209097    0.045295
     26          1           0        6.773832   -0.617892   -0.605771
     27          1           0        5.971270   -1.409704    1.331865
     28          1           0        5.608897    0.906257   -0.819413
     29          1           0        3.254560    1.468608   -0.914606
     30          1           0        1.398732   -0.271296    0.903347
     31          1           0        0.854071    2.048383   -0.917256
 ---------------------------------------------------------------------
 Rotational constants (GHZ):           0.8208912           0.1504347           0.1294999
 Standard basis: 6-31G(2df,p) (6D, 7F)
 There are   631 symmetry adapted cartesian basis functions of A   symmetry.
 There are   577 symmetry adapted basis functions of A   symmetry.
   577 basis functions,   931 primitive gaussians,   631 cartesian basis functions
    72 alpha electrons       72 beta electrons
       nuclear repulsion energy      1405.7527638921 Hartrees.
 NAtoms=   31 NActive=   31 NUniq=   31 SFac= 1.00D+00 NAtFMM=   60 NAOKFM=F Big=F
 Integral buffers will be    131072 words long.
 Raffenetti 2 integral format.
 Two-electron integral symmetry is turned on.
 One-electron integrals computed using PRISM.
 PrsmSu:  requested number of processors reduced to:  12 ShMem   1 Linda.
 NBasis=   577 RedAO= T EigKep=  1.67D-04  NBF=   577
 NBsUse=   577 1.00D-06 EigRej= -1.00D+00 NBFU=   577
 ExpMin= 1.17D-01 ExpMax= 2.19D+04 ExpMxC= 3.30D+03 IAcc=3 IRadAn=         5 AccDes= 0.00D+00
 Harris functional with IExCor=  402 and IRadAn=       5 diagonalized for initial guess.
 HarFok:  IExCor=  402 AccDes= 0.00D+00 IRadAn=         5 IDoV= 1 UseB2=F ITyADJ=14
 ICtDFT=  3500011 ScaDFX=  1.000000  1.000000  1.000000  1.000000
 FoFCou: FMM=F IPFlag=           0 FMFlag=      100000 FMFlg1=           0
         NFxFlg=           0 DoJE=T BraDBF=F KetDBF=T FulRan=T
         wScrn=  0.000000 ICntrl=       500 IOpCl=  0 I1Cent=   200000004 NGrid=           0
         NMat0=    1 NMatS0=      1 NMatT0=    0 NMatD0=    1 NMtDS0=    0 NMtDT0=    0
 Petite list used in FoFCou.
 Requested convergence on RMS density matrix=1.00D-08 within 128 cycles.
 Requested convergence on MAX density matrix=1.00D-06.
 Requested convergence on             energy=1.00D-06.
 No special actions if energy rises.
 Integral accuracy reduced to 1.0D-05 until final iterations.
 EnCoef did    13 forward-backward iterations
 EnCoef did   100 forward-backward iterations
 EnCoef did   100 forward-backward iterations
 EnCoef did     5 forward-backward iterations
 EnCoef did     7 forward-backward iterations
 Initial convergence to 1.0D-05 achieved.  Increase integral accuracy.
 SCF Done:  E(RB3LYP) =  -1465.80693110     A.U. after   31 cycles
            NFock= 31  Conv=0.70D-08     -V/T= 2.0042

 **********************************************************************

            Population analysis using the SCF density.

 **********************************************************************

 Orbital symmetries:
       Occupied  (A) (A) (A) (A) (A) (A) (A) (A) (A) (A) (A) (A)
                 (A) (A) (A) (A) (A) (A) (A) (A) (A) (A) (A) (A)
                 (A) (A) (A) (A) (A) (A) (A) (A) (A) (A) (A) (A)
                 (A) (A) (A) (A) (A) (A) (A) (A) (A) (A) (A) (A)
                 (A) (A) (A) (A) (A) (A) (A) (A) (A) (A) (A) (A)
                 (A) (A) (A) (A) (A) (A) (A) (A) (A) (A) (A) (A)
       Virtual   (A) (A) (A) (A) (A) (A) (A) (A) (A) (A) (A) (A)
                 (A) (A) (A) (A) (A) (A) (A) (A) (A) (A) (A) (A)
                 (A) (A) (A) (A) (A) (A) (A) (A) (A) (A) (A) (A)
                 (A) (A) (A) (A) (A) (A) (A) (A) (A) (A) (A) (A)
                 (A) (A) (A) (A) (A) (A) (A) (A) (A) (A) (A) (A)
                 (A) (A) (A) (A) (A) (A) (A) (A) (A) (A) (A) (A)
                 (A) (A) (A) (A) (A) (A) (A) (A) (A) (A) (A) (A)
                 (A) (A) (A) (A) (A) (A) (A) (A) (A) (A) (A) (A)
                 (A) (A) (A) (A) (A) (A) (A) (A) (A) (A) (A) (A)
                 (A) (A) (A) (A) (A) (A) (A) (A) (A) (A) (A) (A)
                 (A) (A) (A) (A) (A) (A) (A) (A) (A) (A) (A) (A)
                 (A) (A) (A) (A) (A) (A) (A) (A) (A) (A) (A) (A)
                 (A) (A) (A) (A) (A) (A) (A) (A) (A) (A) (A) (A)
                 (A) (A) (A) (A) (A) (A) (A) (A) (A) (A) (A) (A)
                 (A) (A) (A) (A) (A) (A) (A) (A) (A) (A) (A) (A)
                 (A) (A) (A) (A) (A) (A) (A) (A) (A) (A) (A) (A)
                 (A) (A) (A) (A) (A) (A) (A) (A) (A) (A) (A) (A)
                 (A) (A) (A) (A) (A) (A) (A) (A) (A) (A) (A) (A)
                 (A) (A) (A) (A) (A) (A) (A) (A) (A) (A) (A) (A)
                 (A) (A) (A) (A) (A) (A) (A) (A) (A) (A) (A) (A)
                 (A) (A) (A) (A) (A) (A) (A) (A) (A) (A) (A) (A)
                 (A) (A) (A) (A) (A) (A) (A) (A) (A) (A) (A) (A)
                 (A) (A) (A) (A) (A) (A) (A) (A) (A) (A) (A) (A)
                 (A) (A) (A) (A) (A) (A) (A) (A) (A) (A) (A) (A)
                 (A) (A) (A) (A) (A) (A) (A) (A) (A) (A) (A) (A)
                 (A) (A) (A) (A) (A) (A) (A) (A) (A) (A) (A) (A)
                 (A) (A) (A) (A) (A) (A) (A) (A) (A) (A) (A) (A)
                 (A) (A) (A) (A) (A) (A) (A) (A) (A) (A) (A) (A)
                 (A) (A) (A) (A) (A) (A) (A) (A) (A) (A) (A) (A)
                 (A) (A) (A) (A) (A) (A) (A) (A) (A) (A) (A) (A)
                 (A) (A) (A) (A) (A) (A) (A) (A) (A) (A) (A) (A)
                 (A) (A) (A) (A) (A) (A) (A) (A) (A) (A) (A) (A)
                 (A) (A) (A) (A) (A) (A) (A) (A) (A) (A) (A) (A)
                 (A) (A) (A) (A) (A) (A) (A) (A) (A) (A) (A) (A)
                 (A) (A) (A) (A) (A) (A) (A) (A) (A) (A) (A) (A)
                 (A) (A) (A) (A) (A) (A) (A) (A) (A) (A) (A) (A)
                 (A) (A) (A) (A) (A) (A) (A) (A) (A) (A) (A) (A)
                 (A) (A) (A) (A) (A) (A) (A) (A) (A) (A) (A) (A)
                 (A) (A) (A) (A) (A) (A) (A) (A) (A) (A) (A) (A)
                 (A) (A) (A) (A) (A) (A) (A) (A) (A) (A) (A) (A)
                 (A) (A) (A) (A) (A) (A) (A) (A) (A) (A) (A) (A)
                 (A) (A) (A) (A) (A) (A) (A) (A) (A) (A) (A) (A)
                 (A)
 The electronic state is 1-A.
 Alpha  occ. eigenvalues --  -88.91051 -88.90079 -19.20147 -14.38662 -10.31015
 Alpha  occ. eigenvalues --  -10.29740 -10.28817 -10.28129 -10.26935 -10.26663
 Alpha  occ. eigenvalues --  -10.26092 -10.25878 -10.25202 -10.24584 -10.23717
 Alpha  occ. eigenvalues --  -10.22835 -10.21187 -10.20143  -7.97076  -7.95839
 Alpha  occ. eigenvalues --   -5.93569  -5.93251  -5.92620  -5.92448  -5.92064
 Alpha  occ. eigenvalues --   -5.91177  -1.11253  -1.04500  -0.92012  -0.84269
 Alpha  occ. eigenvalues --   -0.83854  -0.76574  -0.72877  -0.70788  -0.70013
 Alpha  occ. eigenvalues --   -0.69805  -0.63870  -0.62634  -0.62009  -0.60889
 Alpha  occ. eigenvalues --   -0.58591  -0.56437  -0.54154  -0.52790  -0.52600
 Alpha  occ. eigenvalues --   -0.50381  -0.48859  -0.48029  -0.47083  -0.45894
 Alpha  occ. eigenvalues --   -0.45358  -0.43206  -0.40311  -0.39763  -0.39511
 Alpha  occ. eigenvalues --   -0.37403  -0.35842  -0.34550  -0.33615  -0.32931
 Alpha  occ. eigenvalues --   -0.31241  -0.28864  -0.28457  -0.27566  -0.26392
 Alpha  occ. eigenvalues --   -0.24273  -0.22862  -0.21647  -0.20636  -0.19340
 Alpha  occ. eigenvalues --   -0.18786  -0.16656
 Alpha virt. eigenvalues --   -0.12908  -0.12321  -0.10189  -0.09004  -0.07263
 Alpha virt. eigenvalues --   -0.06478  -0.04890  -0.03785  -0.01753  -0.01424
 Alpha virt. eigenvalues --   -0.00836   0.00111   0.01201   0.02949   0.03508
 Alpha virt. eigenvalues --    0.05862   0.07337   0.08292   0.09317   0.09465
 Alpha virt. eigenvalues --    0.10024   0.12490   0.13701   0.14031   0.15328
 Alpha virt. eigenvalues --    0.16068   0.16558   0.17338   0.19641   0.20598
 Alpha virt. eigenvalues --    0.21318   0.21623   0.23027   0.24903   0.25163
 Alpha virt. eigenvalues --    0.26128   0.27814   0.29932   0.31569   0.33095
 Alpha virt. eigenvalues --    0.34119   0.34733   0.35444   0.35852   0.36661
 Alpha virt. eigenvalues --    0.36846   0.38145   0.39163   0.40254   0.40831
 Alpha virt. eigenvalues --    0.42236   0.43054   0.43498   0.44834   0.45409
 Alpha virt. eigenvalues --    0.46065   0.46676   0.47231   0.48508   0.49278
 Alpha virt. eigenvalues --    0.50269   0.51146   0.51460   0.51569   0.52952
 Alpha virt. eigenvalues --    0.53646   0.54371   0.55318   0.55531   0.56411
 Alpha virt. eigenvalues --    0.56595   0.57301   0.57985   0.59214   0.59327
 Alpha virt. eigenvalues --    0.60465   0.60924   0.61025   0.62003   0.63245
 Alpha virt. eigenvalues --    0.63545   0.64287   0.65271   0.66334   0.67516
 Alpha virt. eigenvalues --    0.68203   0.69089   0.69491   0.69992   0.70781
 Alpha virt. eigenvalues --    0.71468   0.72310   0.72903   0.73565   0.74159
 Alpha virt. eigenvalues --    0.74523   0.74810   0.75450   0.75816   0.76057
 Alpha virt. eigenvalues --    0.77093   0.77187   0.77940   0.78711   0.79594
 Alpha virt. eigenvalues --    0.80130   0.80302   0.81107   0.81847   0.82963
 Alpha virt. eigenvalues --    0.83893   0.84237   0.84615   0.85278   0.86202
 Alpha virt. eigenvalues --    0.86563   0.87635   0.88696   0.89501   0.90227
 Alpha virt. eigenvalues --    0.91685   0.92073   0.93162   0.94471   0.95188
 Alpha virt. eigenvalues --    0.95817   0.96973   0.97287   0.97813   0.99037
 Alpha virt. eigenvalues --    1.01178   1.01356   1.01700   1.03230   1.04669
 Alpha virt. eigenvalues --    1.06193   1.06371   1.06460   1.07453   1.08598
 Alpha virt. eigenvalues --    1.09612   1.10926   1.11462   1.12323   1.14009
 Alpha virt. eigenvalues --    1.14661   1.15955   1.16046   1.17764   1.19438
 Alpha virt. eigenvalues --    1.20180   1.21199   1.21577   1.24027   1.24800
 Alpha virt. eigenvalues --    1.25319   1.26154   1.27741   1.28910   1.30970
 Alpha virt. eigenvalues --    1.32102   1.33580   1.35764   1.38460   1.38736
 Alpha virt. eigenvalues --    1.38939   1.40593   1.40813   1.41850   1.43471
 Alpha virt. eigenvalues --    1.44070   1.44820   1.45936   1.46912   1.48485
 Alpha virt. eigenvalues --    1.48862   1.49904   1.50572   1.51772   1.53248
 Alpha virt. eigenvalues --    1.53917   1.54299   1.54802   1.57334   1.57732
 Alpha virt. eigenvalues --    1.59914   1.61090   1.61325   1.62830   1.63390
 Alpha virt. eigenvalues --    1.64114   1.65663   1.66323   1.67487   1.69179
 Alpha virt. eigenvalues --    1.70316   1.70979   1.71870   1.73142   1.73557
 Alpha virt. eigenvalues --    1.75997   1.76702   1.77663   1.79057   1.79394
 Alpha virt. eigenvalues --    1.81287   1.82302   1.83126   1.83303   1.84301
 Alpha virt. eigenvalues --    1.88596   1.89535   1.89902   1.93533   1.94562
 Alpha virt. eigenvalues --    1.95187   1.96767   1.98891   2.00429   2.01211
 Alpha virt. eigenvalues --    2.03159   2.05370   2.06631   2.07899   2.10376
 Alpha virt. eigenvalues --    2.10926   2.12077   2.12800   2.14762   2.15227
 Alpha virt. eigenvalues --    2.15470   2.17188   2.18656   2.19453   2.21036
 Alpha virt. eigenvalues --    2.22643   2.23772   2.25135   2.26221   2.26711
 Alpha virt. eigenvalues --    2.28306   2.29508   2.32089   2.33298   2.33540
 Alpha virt. eigenvalues --    2.34408   2.35351   2.36290   2.36482   2.37390
 Alpha virt. eigenvalues --    2.40106   2.40742   2.42801   2.43216   2.44045
 Alpha virt. eigenvalues --    2.45905   2.46940   2.47988   2.49710   2.50512
 Alpha virt. eigenvalues --    2.51078   2.52803   2.53228   2.54277   2.55588
 Alpha virt. eigenvalues --    2.57071   2.58395   2.60844   2.62722   2.64117
 Alpha virt. eigenvalues --    2.65886   2.68515   2.69911   2.70852   2.72788
 Alpha virt. eigenvalues --    2.73700   2.74057   2.75553   2.77930   2.79164
 Alpha virt. eigenvalues --    2.80250   2.81036   2.82081   2.83124   2.83178
 Alpha virt. eigenvalues --    2.83959   2.85208   2.86200   2.86510   2.87767
 Alpha virt. eigenvalues --    2.88902   2.89777   2.90420   2.90923   2.92028
 Alpha virt. eigenvalues --    2.93624   2.94239   2.94645   2.95150   2.97798
 Alpha virt. eigenvalues --    2.98567   2.99595   3.01901   3.02612   3.04034
 Alpha virt. eigenvalues --    3.04408   3.05332   3.05969   3.07586   3.07638
 Alpha virt. eigenvalues --    3.09511   3.10361   3.11474   3.12337   3.12679
 Alpha virt. eigenvalues --    3.13526   3.14720   3.15126   3.16101   3.18360
 Alpha virt. eigenvalues --    3.18722   3.20700   3.21788   3.22516   3.24014
 Alpha virt. eigenvalues --    3.25293   3.26747   3.27532   3.28369   3.29865
 Alpha virt. eigenvalues --    3.30067   3.32505   3.33143   3.35011   3.36358
 Alpha virt. eigenvalues --    3.37425   3.38309   3.39592   3.40512   3.41631
 Alpha virt. eigenvalues --    3.43209   3.45414   3.46185   3.46635   3.47708
 Alpha virt. eigenvalues --    3.50175   3.50346   3.51331   3.52740   3.54897
 Alpha virt. eigenvalues --    3.56270   3.57449   3.58850   3.60367   3.62214
 Alpha virt. eigenvalues --    3.63797   3.66163   3.67800   3.69268   3.70501
 Alpha virt. eigenvalues --    3.71108   3.72547   3.74674   3.75352   3.77399
 Alpha virt. eigenvalues --    3.77917   3.80737   3.82317   3.83950   3.86345
 Alpha virt. eigenvalues --    3.86753   3.88812   3.89184   3.91020   3.92772
 Alpha virt. eigenvalues --    3.94793   3.98075   3.99680   4.01072   4.02398
 Alpha virt. eigenvalues --    4.03338   4.04614   4.06030   4.07888   4.09012
 Alpha virt. eigenvalues --    4.14233   4.16242   4.18173   4.20529   4.22541
 Alpha virt. eigenvalues --    4.22978   4.25223   4.25913   4.28035   4.29220
 Alpha virt. eigenvalues --    4.30198   4.31157   4.31973   4.33216   4.34491
 Alpha virt. eigenvalues --    4.35787   4.38214   4.38459   4.39561   4.40482
 Alpha virt. eigenvalues --    4.42118   4.43638   4.44690   4.45626   4.46662
 Alpha virt. eigenvalues --    4.47757   4.48949   4.50865   4.52457   4.55176
 Alpha virt. eigenvalues --    4.56803   4.57321   4.58100   4.59696   4.59871
 Alpha virt. eigenvalues --    4.61166   4.61451   4.61785   4.62331   4.64312
 Alpha virt. eigenvalues --    4.64671   4.65731   4.66599   4.68427   4.70135
 Alpha virt. eigenvalues --    4.71630   4.72361   4.74956   4.76164   4.77940
 Alpha virt. eigenvalues --    4.78789   4.80809   4.81810   4.83399   4.85281
 Alpha virt. eigenvalues --    4.86156   4.87233   4.89294   4.90500   4.92212
 Alpha virt. eigenvalues --    4.93902   4.96180   4.96910   4.98202   4.99823
 Alpha virt. eigenvalues --    5.00927   5.03147   5.04167   5.06203   5.08450
 Alpha virt. eigenvalues --    5.12180   5.13626   5.15086   5.15887   5.19813
 Alpha virt. eigenvalues --    5.22353   5.23443   5.24689   5.28333   5.31316
 Alpha virt. eigenvalues --    5.32365   5.33963   5.36683   5.37348   5.38261
 Alpha virt. eigenvalues --    5.42272   5.47001   5.52531   5.54658   5.58414
 Alpha virt. eigenvalues --    5.64868   5.68696   5.70479   5.75884   5.88686
 Alpha virt. eigenvalues --    5.91290   5.94919   6.03086   6.07389   6.27061
 Alpha virt. eigenvalues --    6.36455   6.85953   7.19879   9.91319  10.10598
 Alpha virt. eigenvalues --   10.45698  10.51856  10.61449  10.68243  10.83504
 Alpha virt. eigenvalues --   11.25822  11.30928  11.42697  11.50303  11.56377
 Alpha virt. eigenvalues --   11.78233  11.84345  12.37619  13.84877  18.26795
          Condensed to atoms (all electrons):
               1          2          3          4          5          6
     1  S   15.988183  -0.031177   0.199212  -0.032102   0.001347  -0.000115
     2  C   -0.031177   5.458258   0.094205  -0.018271   0.001268   0.000111
     3  C    0.199212   0.094205   5.200906   0.577696  -0.026331  -0.000287
     4  C   -0.032102  -0.018271   0.577696   5.088997   0.307769  -0.078626
     5  S    0.001347   0.001268  -0.026331   0.307769  15.606230   0.324716
     6  C   -0.000115   0.000111  -0.000287  -0.078626   0.324716   5.071237
     7  C    0.000245   0.000493  -0.011170  -0.007836  -0.024278   0.224960
     8  C    0.000040   0.078044  -0.006365  -0.009128  -0.000512   0.003556
     9  C   -0.000002   0.042211  -0.001222   0.000282   0.000003  -0.000033
    10  C    0.000006   0.000032  -0.000001  -0.000000  -0.000000   0.000000
    11  C   -0.000000   0.000001   0.000000   0.000000   0.000000  -0.000000
    12  C    0.000000  -0.000000   0.000000  -0.000000   0.000000  -0.000000
    13  C    0.000000   0.000000   0.000000  -0.000000  -0.000000   0.000000
    14  N   -0.000032  -0.000204   0.000000  -0.000000  -0.000000   0.000000
    15  C   -0.000497  -0.000045   0.000034  -0.000000   0.000000  -0.000000
    16  C    0.021874  -0.050813   0.001059   0.000047   0.000000   0.000000
    17  C   -0.074325   0.185765   0.011538   0.001166  -0.000019  -0.000001
    18  O   -0.074991   0.229465  -0.128728  -0.001856  -0.000217   0.000001
    19  H    0.198744   0.000257  -0.006968   0.000519  -0.000014  -0.000000
    20  H   -0.046801  -0.000197   0.185526  -0.044648  -0.023285   0.000264
    21  H    0.000748   0.003927  -0.047318   0.294525  -0.070040  -0.016314
    22  H    0.000004  -0.000008   0.000105   0.000871  -0.024032   0.365215
    23  H    0.000003   0.000003   0.000014   0.009583  -0.036002   0.344645
    24  H   -0.000013  -0.000197   0.000973   0.000674   0.001235  -0.009732
    25  H    0.000000  -0.000002   0.000000  -0.000000  -0.000000   0.000000
    26  H   -0.000000   0.000000  -0.000000   0.000000  -0.000000  -0.000000
    27  H    0.000000  -0.000000   0.000000  -0.000000  -0.000000   0.000000
    28  H    0.000000   0.000000  -0.000000   0.000000  -0.000000  -0.000000
    29  H   -0.000184   0.000291   0.000000   0.000000   0.000000  -0.000000
    30  H    0.000682  -0.006115   0.000137  -0.000036   0.000001   0.000000
    31  H   -0.044443  -0.020493   0.000728  -0.000073  -0.000000   0.000000
               7          8          9         10         11         12
     1  S    0.000245   0.000040  -0.000002   0.000006  -0.000000   0.000000
     2  C    0.000493   0.078044   0.042211   0.000032   0.000001  -0.000000
     3  C   -0.011170  -0.006365  -0.001222  -0.000001   0.000000   0.000000
     4  C   -0.007836  -0.009128   0.000282  -0.000000   0.000000  -0.000000
     5  S   -0.024278  -0.000512   0.000003  -0.000000   0.000000   0.000000
     6  C    0.224960   0.003556  -0.000033   0.000000  -0.000000  -0.000000
     7  C    5.815206   0.034393  -0.000196  -0.000000   0.000000  -0.000000
     8  C    0.034393   5.859172   0.202771   0.000052  -0.000006   0.000000
     9  C   -0.000196   0.202771   5.922656   0.040216   0.001113  -0.000121
    10  C   -0.000000   0.000052   0.040216   5.942196   0.009309  -0.004160
    11  C    0.000000  -0.000006   0.001113   0.009309   5.690031   0.107410
    12  C   -0.000000   0.000000  -0.000121  -0.004160   0.107410   5.367132
    13  C   -0.000000   0.000000   0.000036  -0.018539   0.183589   0.292012
    14  N   -0.000000   0.000006   0.001996   0.056808  -0.032428  -0.015790
    15  C   -0.000000   0.000254  -0.011119   0.026995  -0.002164   0.008394
    16  C   -0.000028  -0.001118   0.001453  -0.015409  -0.001526  -0.000729
    17  C    0.000002  -0.003757  -0.006990  -0.000404   0.000072   0.000025
    18  O    0.000181  -0.005920  -0.002288   0.000004   0.000000  -0.000000
    19  H   -0.000000   0.000001   0.000000  -0.000000  -0.000000   0.000000
    20  H    0.000477   0.000151  -0.000022   0.000000  -0.000000   0.000000
    21  H    0.020634   0.004048  -0.000348   0.000000  -0.000000   0.000000
    22  H   -0.020276  -0.000292   0.000001   0.000000   0.000000   0.000000
    23  H   -0.031674  -0.000247   0.000002  -0.000000  -0.000000   0.000000
    24  H    0.215037  -0.015934   0.000796  -0.000002  -0.000000   0.000000
    25  H   -0.000000  -0.000004   0.000831   0.007658   0.305917  -0.029086
    26  H    0.000000  -0.000000  -0.000001   0.000953  -0.007480   0.225923
    27  H   -0.000000  -0.000000   0.000017   0.002198  -0.020416   0.370201
    28  H   -0.000000   0.000000  -0.000003   0.001802   0.000543  -0.043702
    29  H   -0.000000   0.000002  -0.000099   0.006497   0.000835   0.000724
    30  H   -0.000029   0.006360  -0.005040   0.004278  -0.000335  -0.000001
    31  H   -0.000001   0.000101   0.001391   0.000005   0.000002   0.000000
              13         14         15         16         17         18
     1  S    0.000000  -0.000032  -0.000497   0.021874  -0.074325  -0.074991
     2  C    0.000000  -0.000204  -0.000045  -0.050813   0.185765   0.229465
     3  C    0.000000   0.000000   0.000034   0.001059   0.011538  -0.128728
     4  C   -0.000000  -0.000000  -0.000000   0.000047   0.001166  -0.001856
     5  S   -0.000000  -0.000000   0.000000   0.000000  -0.000019  -0.000217
     6  C    0.000000   0.000000  -0.000000   0.000000  -0.000001   0.000001
     7  C   -0.000000  -0.000000  -0.000000  -0.000028   0.000002   0.000181
     8  C    0.000000   0.000006   0.000254  -0.001118  -0.003757  -0.005920
     9  C    0.000036   0.001996  -0.011119   0.001453  -0.006990  -0.002288
    10  C   -0.018539   0.056808   0.026995  -0.015409  -0.000404   0.000004
    11  C    0.183589  -0.032428  -0.002164  -0.001526   0.000072   0.000000
    12  C    0.292012  -0.015790   0.008394  -0.000729   0.000025  -0.000000
    13  C    4.935243   0.403906  -0.130425   0.009940  -0.000840   0.000000
    14  N    0.403906   6.219003   0.526977  -0.023944   0.000521   0.000015
    15  C   -0.130425   0.526977   4.898023   0.443300  -0.004685   0.002092
    16  C    0.009940  -0.023944   0.443300   5.092774   0.381185  -0.015446
    17  C   -0.000840   0.000521  -0.004685   0.381185   5.037406   0.112958
    18  O    0.000000   0.000015   0.002092  -0.015446   0.112958   8.084442
    19  H    0.000000   0.000000  -0.000000  -0.000092   0.000270   0.003177
    20  H    0.000000   0.000000  -0.000001  -0.000072   0.000206   0.005897
    21  H    0.000000   0.000000  -0.000001  -0.000058  -0.000290   0.001093
    22  H   -0.000000  -0.000000   0.000000  -0.000000  -0.000000   0.000000
    23  H    0.000000  -0.000000   0.000000  -0.000000   0.000000  -0.000000
    24  H    0.000000   0.000000   0.000000   0.000013  -0.000013   0.000028
    25  H   -0.018039   0.003708  -0.001737   0.000539   0.000002   0.000000
    26  H   -0.000087   0.006810  -0.000711   0.000009  -0.000000   0.000000
    27  H   -0.008315  -0.004698  -0.000121  -0.000019  -0.000000   0.000000
    28  H    0.369298  -0.035111  -0.003012  -0.000327   0.000040  -0.000000
    29  H   -0.010860  -0.052547   0.366574  -0.049180   0.000798  -0.000057
    30  H    0.000279  -0.002774  -0.022278   0.295134  -0.008358  -0.000830
    31  H   -0.000004   0.000040  -0.001031  -0.066891   0.403238  -0.011515
              19         20         21         22         23         24
     1  S    0.198744  -0.046801   0.000748   0.000004   0.000003  -0.000013
     2  C    0.000257  -0.000197   0.003927  -0.000008   0.000003  -0.000197
     3  C   -0.006968   0.185526  -0.047318   0.000105   0.000014   0.000973
     4  C    0.000519  -0.044648   0.294525   0.000871   0.009583   0.000674
     5  S   -0.000014  -0.023285  -0.070040  -0.024032  -0.036002   0.001235
     6  C   -0.000000   0.000264  -0.016314   0.365215   0.344645  -0.009732
     7  C   -0.000000   0.000477   0.020634  -0.020276  -0.031674   0.215037
     8  C    0.000001   0.000151   0.004048  -0.000292  -0.000247  -0.015934
     9  C    0.000000  -0.000022  -0.000348   0.000001   0.000002   0.000796
    10  C   -0.000000   0.000000   0.000000   0.000000  -0.000000  -0.000002
    11  C   -0.000000  -0.000000  -0.000000   0.000000  -0.000000  -0.000000
    12  C    0.000000   0.000000   0.000000   0.000000   0.000000   0.000000
    13  C    0.000000   0.000000   0.000000  -0.000000   0.000000   0.000000
    14  N    0.000000   0.000000   0.000000  -0.000000  -0.000000   0.000000
    15  C   -0.000000  -0.000001  -0.000001   0.000000   0.000000   0.000000
    16  C   -0.000092  -0.000072  -0.000058  -0.000000  -0.000000   0.000013
    17  C    0.000270   0.000206  -0.000290  -0.000000   0.000000  -0.000013
    18  O    0.003177   0.005897   0.001093   0.000000  -0.000000   0.000028
    19  H    0.813690   0.003629  -0.000006  -0.000000   0.000000  -0.000000
    20  H    0.003629   0.857603   0.018669  -0.000020   0.000049  -0.000004
    21  H   -0.000006   0.018669   0.648507  -0.000172   0.002117   0.002641
    22  H   -0.000000  -0.000020  -0.000172   0.555045  -0.042749  -0.001361
    23  H    0.000000   0.000049   0.002117  -0.042749   0.567349   0.003184
    24  H   -0.000000  -0.000004   0.002641  -0.001361   0.003184   0.592378
    25  H    0.000000   0.000000   0.000000  -0.000000  -0.000000   0.000000
    26  H   -0.000000  -0.000000  -0.000000  -0.000000   0.000000   0.000000
    27  H    0.000000   0.000000   0.000000  -0.000000  -0.000000   0.000000
    28  H   -0.000000  -0.000000  -0.000000   0.000000   0.000000  -0.000000
    29  H    0.000000  -0.000000  -0.000000   0.000000  -0.000000  -0.000000
    30  H    0.000001   0.000012   0.000008   0.000000  -0.000000   0.000011
    31  H    0.000720  -0.000002   0.000003  -0.000000   0.000000   0.000000
              25         26         27         28         29         30
     1  S    0.000000  -0.000000   0.000000   0.000000  -0.000184   0.000682
     2  C   -0.000002   0.000000  -0.000000   0.000000   0.000291  -0.006115
     3  C    0.000000  -0.000000   0.000000  -0.000000   0.000000   0.000137
     4  C   -0.000000   0.000000  -0.000000   0.000000   0.000000  -0.000036
     5  S   -0.000000  -0.000000  -0.000000  -0.000000   0.000000   0.000001
     6  C    0.000000  -0.000000   0.000000  -0.000000  -0.000000   0.000000
     7  C   -0.000000   0.000000  -0.000000  -0.000000  -0.000000  -0.000029
     8  C   -0.000004  -0.000000  -0.000000   0.000000   0.000002   0.006360
     9  C    0.000831  -0.000001   0.000017  -0.000003  -0.000099  -0.005040
    10  C    0.007658   0.000953   0.002198   0.001802   0.006497   0.004278
    11  C    0.305917  -0.007480  -0.020416   0.000543   0.000835  -0.000335
    12  C   -0.029086   0.225923   0.370201  -0.043702   0.000724  -0.000001
    13  C   -0.018039  -0.000087  -0.008315   0.369298  -0.010860   0.000279
    14  N    0.003708   0.006810  -0.004698  -0.035111  -0.052547  -0.002774
    15  C   -0.001737  -0.000711  -0.000121  -0.003012   0.366574  -0.022278
    16  C    0.000539   0.000009  -0.000019  -0.000327  -0.049180   0.295134
    17  C    0.000002  -0.000000  -0.000000   0.000040   0.000798  -0.008358
    18  O    0.000000   0.000000   0.000000  -0.000000  -0.000057  -0.000830
    19  H    0.000000  -0.000000   0.000000  -0.000000   0.000000   0.000001
    20  H    0.000000  -0.000000   0.000000  -0.000000  -0.000000   0.000012
    21  H    0.000000  -0.000000   0.000000  -0.000000  -0.000000   0.000008
    22  H   -0.000000  -0.000000  -0.000000   0.000000   0.000000   0.000000
    23  H   -0.000000   0.000000  -0.000000   0.000000  -0.000000  -0.000000
    24  H    0.000000   0.000000   0.000000  -0.000000  -0.000000   0.000011
    25  H    0.498578   0.001794  -0.011780  -0.000360  -0.000264   0.000041
    26  H    0.001794   0.657086  -0.012359  -0.010164   0.000075   0.000001
    27  H   -0.011780  -0.012359   0.460518   0.002900  -0.000002   0.000009
    28  H   -0.000360  -0.010164   0.002900   0.546940   0.009593   0.000002
    29  H   -0.000264   0.000075  -0.000002   0.009593   0.618105   0.003704
    30  H    0.000041   0.000001   0.000009   0.000002   0.003704   0.518891
    31  H   -0.000000   0.000000  -0.000000   0.000002   0.004336   0.004510
              31
     1  S   -0.044443
     2  C   -0.020493
     3  C    0.000728
     4  C   -0.000073
     5  S   -0.000000
     6  C    0.000000
     7  C   -0.000001
     8  C    0.000101
     9  C    0.001391
    10  C    0.000005
    11  C    0.000002
    12  C    0.000000
    13  C   -0.000004
    14  N    0.000040
    15  C   -0.001031
    16  C   -0.066891
    17  C    0.403238
    18  O   -0.011515
    19  H    0.000720
    20  H   -0.000002
    21  H    0.000003
    22  H   -0.000000
    23  H    0.000000
    24  H    0.000000
    25  H   -0.000000
    26  H    0.000000
    27  H   -0.000000
    28  H    0.000002
    29  H    0.004336
    30  H    0.004510
    31  H    0.528282
 Mulliken charges:
               1
     1  S   -0.106407
     2  C    0.033190
     3  C   -0.043744
     4  C   -0.089554
     5  S   -0.037841
     6  C   -0.229600
     7  C   -0.216139
     8  C   -0.145670
     9  C   -0.188295
    10  C   -0.060495
    11  C   -0.234466
    12  C   -0.278232
    13  C   -0.007193
    14  N   -0.052260
    15  C   -0.094815
    16  C   -0.021676
    17  C   -0.035509
    18  O   -0.197506
    19  H   -0.013927
    20  H    0.042567
    21  H    0.137626
    22  H    0.167668
    23  H    0.183724
    24  H    0.210285
    25  H    0.242204
    26  H    0.138150
    27  H    0.221867
    28  H    0.161559
    29  H    0.101659
    30  H    0.211735
    31  H    0.201094
 Sum of Mulliken charges =  -0.00000
 Mulliken charges with hydrogens summed into heavy atoms:
               1
     1  S   -0.120334
     2  C    0.033190
     3  C   -0.001177
     4  C    0.048072
     5  S   -0.037841
     6  C    0.121792
     7  C   -0.005854
     8  C   -0.145670
     9  C   -0.188295
    10  C   -0.060495
    11  C    0.007738
    12  C    0.081785
    13  C    0.154366
    14  N   -0.052260
    15  C    0.006844
    16  C    0.190059
    17  C    0.165585
    18  O   -0.197506
 Electronic spatial extent (au):  <R**2>=           7798.2348
 Charge=             -0.0000 electrons
 Dipole moment (field-independent basis, Debye):
    X=              5.7149    Y=             -0.5142    Z=             -0.5267  Tot=              5.7621
 Quadrupole moment (field-independent basis, Debye-Ang):
   XX=            -88.3726   YY=           -120.9845   ZZ=           -127.5002
   XY=             13.5023   XZ=              1.3035   YZ=             -4.2768
 Traceless Quadrupole moment (field-independent basis, Debye-Ang):
   XX=             23.9132   YY=             -8.6988   ZZ=            -15.2144
   XY=             13.5023   XZ=              1.3035   YZ=             -4.2768
 Octapole moment (field-independent basis, Debye-Ang**2):
  XXX=            114.9046  YYY=             -2.0724  ZZZ=              8.4353  XYY=              3.7898
  XXY=            -31.6492  XXZ=             -3.9002  XZZ=              1.5805  YZZ=              5.4787
  YYZ=              1.5746  XYZ=            -30.2836
 Hexadecapole moment (field-independent basis, Debye-Ang**3):
 XXXX=          -8207.5631 YYYY=          -1778.1622 ZZZZ=           -246.6204 XXXY=            188.0877
 XXXZ=            -57.7259 YYYX=             85.9135 YYYZ=            -13.7034 ZZZX=             19.7037
 ZZZY=             -6.9338 XXYY=          -1613.8299 XXZZ=          -1567.5662 YYZZ=           -350.3507
 XXYZ=            -81.7626 YYXZ=             22.0898 ZZXY=             28.4421
 N-N= 1.405752763892D+03 E-N=-6.259489700631D+03  KE= 1.459636692605D+03
 PrsmSu:  requested number of processors reduced to:  13 ShMem   1 Linda.
 Calling FoFJK, ICntrl=      2127 FMM=F ISym2X=0 I1Cent= 0 IOpClX= 0 NMat=1 NMatS=1 NMatT=0.
 ***** Axes restored to original set *****
 -------------------------------------------------------------------
 Center     Atomic                   Forces (Hartrees/Bohr)
 Number     Number              X              Y              Z
 -------------------------------------------------------------------
      1       16          -0.067086154    0.154878334   -0.007015449
      2        6          -0.005335784    0.015337605   -0.023528921
      3        6          -0.120729779    0.119793188   -0.009655594
      4        6          -0.023975963   -0.018620268    0.021065873
      5       16           0.011881563   -0.018279394    0.023831329
      6        6          -0.008381093   -0.029761182    0.113107924
      7        6          -0.008792081   -0.033008840    0.009642395
      8        6          -0.079687920   -0.054831951    0.050254212
      9        6           0.057821882    0.065276089   -0.038853604
     10        6          -0.028963901    0.005165547    0.015270891
     11        6          -0.014168666    0.007185214    0.072431874
     12        6           0.079906424   -0.153135162    0.041987143
     13        6           0.025770700    0.080274208    0.011240550
     14        7           0.013563530   -0.016414500   -0.055162707
     15        6          -0.002981659    0.051471695   -0.017428375
     16        6           0.024705204   -0.101678785   -0.031640818
     17        6           0.016810999    0.122147200    0.032005746
     18        8           0.013682471   -0.118818957    0.012665009
     19        1           0.042417766   -0.043850804    0.002277834
     20        1           0.021525441   -0.047293877    0.012369511
     21        1           0.068829641    0.003092135    0.020811451
     22        1          -0.019245694    0.025872486    0.004895810
     23        1           0.059609070   -0.029280577   -0.154940077
     24        1           0.012089478    0.056728136   -0.005230044
     25        1           0.027273460   -0.007064162   -0.034051953
     26        1          -0.012689174   -0.026746856   -0.077448852
     27        1          -0.047197581   -0.006934770   -0.000173318
     28        1          -0.013883299    0.009858541    0.007346689
     29        1          -0.017293081    0.018026556    0.038422462
     30        1          -0.013553789   -0.024229388   -0.011443723
     31        1           0.008077989   -0.005157464   -0.023053266
 -------------------------------------------------------------------
 Cartesian Forces:  Max     0.154940077 RMS     0.051953737

 GradGradGradGradGradGradGradGradGradGradGradGradGradGradGradGradGradGrad
 Berny optimization.
 FormGI is forming the generalized inverse of G from B-inverse, IUseBI=4.
 Internal  Forces:  Max     0.161345707 RMS     0.036040401
 Search for a local minimum.
 Step number   1 out of a maximum of  167
 All quantities printed in internal units (Hartrees-Bohrs-Radians)
 Mixed Optimization -- RFO/linear search
 Second derivative matrix not updated -- first step.
 ITU=  0
     Eigenvalues ---    0.00230   0.00273   0.00329   0.00365   0.00637
     Eigenvalues ---    0.00733   0.00950   0.01088   0.01487   0.01732
     Eigenvalues ---    0.02192   0.02270   0.02395   0.02618   0.02647
     Eigenvalues ---    0.02666   0.02917   0.03267   0.03504   0.03713
     Eigenvalues ---    0.03763   0.04062   0.04965   0.05050   0.05813
     Eigenvalues ---    0.06397   0.07187   0.07589   0.07807   0.08031
     Eigenvalues ---    0.08531   0.08654   0.08767   0.09851   0.10049
     Eigenvalues ---    0.11034   0.11585   0.11688   0.11729   0.11856
     Eigenvalues ---    0.12324   0.12577   0.13918   0.14182   0.14756
     Eigenvalues ---    0.15014   0.15090   0.15377   0.15559   0.15778
     Eigenvalues ---    0.15837   0.15890   0.16158   0.17071   0.17950
     Eigenvalues ---    0.18069   0.19119   0.19829   0.20763   0.21422
     Eigenvalues ---    0.21699   0.21777   0.21871   0.22087   0.22539
     Eigenvalues ---    0.22937   0.24079   0.25000   0.25000   0.26452
     Eigenvalues ---    0.27207   0.31280   0.32986   0.33026   0.34221
     Eigenvalues ---    0.35254   0.37233   0.39554   0.41546   0.42888
     Eigenvalues ---    0.47966   0.53030   0.58600   0.59509   0.60004
     Eigenvalues ---    0.73349   0.84276
 RFO step:  Lambda=-3.27235732D-01 EMin= 2.30252489D-03
 Linear search not attempted -- first point.
 Maximum step size (   0.300) exceeded in Quadratic search.
    -- Step size scaled by   0.428
 Iteration  1 RMS(Cart)=  0.07727048 RMS(Int)=  0.00263081
 Iteration  2 RMS(Cart)=  0.00315996 RMS(Int)=  0.00028964
 Iteration  3 RMS(Cart)=  0.00000573 RMS(Int)=  0.00028963
 Iteration  4 RMS(Cart)=  0.00000000 RMS(Int)=  0.00028963
 Variable       Old X    -DE/DX   Delta X   Delta X   Delta X     New X
                                 (Linear)    (Quad)   (Total)
    R1        3.83019   0.04409   0.00000   0.04004   0.04019   3.87038
    R2        3.36435  -0.06020   0.00000  -0.06204  -0.06204   3.30231
    R3        4.05424   0.05377   0.00000   0.05885   0.05884   4.11308
    R4        3.86063  -0.01682   0.00000  -0.01336  -0.01311   3.84752
    R5        3.08108  -0.02054   0.00000  -0.01206  -0.01172   3.06935
    R6        2.62114   0.00656   0.00000   0.00170   0.00130   2.62244
    R7        2.50310   0.00680   0.00000   0.00402   0.00407   2.50716
    R8        3.88020   0.02480   0.00000   0.02742   0.02748   3.90769
    R9        2.76614  -0.04972   0.00000  -0.04719  -0.04719   2.71895
   R10        3.39109  -0.01205   0.00000  -0.00719  -0.00717   3.38392
   R11        1.94509   0.06057   0.00000   0.03425   0.03425   1.97933
   R12        3.37436   0.00598   0.00000   0.00377   0.00379   3.37815
   R13        3.22748  -0.02339   0.00000  -0.02205  -0.02208   3.20539
   R14        2.09006  -0.00852   0.00000  -0.00554  -0.00554   2.08452
   R15        1.78766   0.16135   0.00000   0.07554   0.07554   1.86320
   R16        2.32744  -0.05618   0.00000  -0.04504  -0.04504   2.28240
   R17        3.65417  -0.08587   0.00000  -0.08774  -0.08778   3.56640
   R18        2.94768   0.02242   0.00000   0.02060   0.02056   2.96824
   R19        3.25702   0.01113   0.00000   0.01111   0.01106   3.26807
   R20        3.08113   0.00577   0.00000   0.00598   0.00598   3.08711
   R21        2.97101   0.04569   0.00000   0.03278   0.03264   3.00365
   R22        3.09432  -0.02566   0.00000  -0.02537  -0.02553   3.06879
   R23        1.98864   0.01233   0.00000   0.00730   0.00730   1.99594
   R24        2.51668   0.13339   0.00000   0.06624   0.06659   2.58327
   R25        2.79753  -0.06787   0.00000  -0.06509  -0.06509   2.73244
   R26        2.09076  -0.02348   0.00000  -0.01528  -0.01528   2.07548
   R27        2.51331   0.09116   0.00000   0.04226   0.04226   2.55557
   R28        2.02197   0.01215   0.00000   0.00742   0.00742   2.02939
   R29        2.35689   0.11085   0.00000   0.04051   0.04051   2.39740
   R30        2.61975   0.02803   0.00000   0.01485   0.01485   2.63461
   R31        1.96205   0.04399   0.00000   0.02533   0.02533   1.98737
   R32        2.41184   0.16063   0.00000   0.06512   0.06514   2.47699
   R33        2.04946   0.00261   0.00000   0.00153   0.00152   2.05098
   R34        2.98365  -0.03096   0.00000  -0.02395  -0.02437   2.95928
   R35        2.09565  -0.01148   0.00000  -0.00657  -0.00673   2.08892
    A1        2.60319   0.02169   0.00000   0.01988   0.01968   2.62287
    A2        1.23281  -0.03657   0.00000  -0.03283  -0.03252   1.20029
    A3        2.43298   0.01525   0.00000   0.01326   0.01316   2.44615
    A4        2.05436  -0.00520   0.00000  -0.00191  -0.00192   2.05244
    A5        2.16498  -0.04046   0.00000  -0.03350  -0.03416   2.13082
    A6        2.61760  -0.00221   0.00000  -0.00344  -0.00335   2.61425
    A7        2.58649  -0.04526   0.00000  -0.03648  -0.03665   2.54984
    A8        1.49043   0.03869   0.00000   0.03328   0.03354   1.52397
    A9        1.95851  -0.00460   0.00000  -0.00457  -0.00432   1.95419
   A10        2.53003  -0.00627   0.00000  -0.00907  -0.00917   2.52086
   A11        1.68494   0.03905   0.00000   0.03601   0.03606   1.72099
   A12        2.03842  -0.03369   0.00000  -0.02822  -0.02817   2.01025
   A13        1.47530   0.03292   0.00000   0.02729   0.02750   1.50280
   A14        1.95053  -0.01892   0.00000  -0.01520  -0.01531   1.93522
   A15        2.38698  -0.02818   0.00000  -0.02729  -0.02750   2.35948
   A16        2.02754  -0.00034   0.00000   0.00096   0.00092   2.02846
   A17        1.72099   0.03131   0.00000   0.02542   0.02526   1.74625
   A18        1.21041   0.04699   0.00000   0.04930   0.04933   1.25974
   A19        1.79335   0.01489   0.00000   0.01279   0.01224   1.80559
   A20        2.54538  -0.02652   0.00000  -0.02305  -0.02307   2.52231
   A21        2.77036  -0.04157   0.00000  -0.03542  -0.03531   2.73504
   A22        2.02823  -0.00837   0.00000  -0.00551  -0.00572   2.02251
   A23        1.89544  -0.04025   0.00000  -0.02264  -0.02164   1.87380
   A24        2.39459  -0.04686   0.00000  -0.04152  -0.04180   2.35279
   A25        1.20716   0.02542   0.00000   0.02389   0.02513   1.23229
   A26        1.54161   0.05029   0.00000   0.04238   0.04269   1.58430
   A27        1.44571   0.06616   0.00000   0.06612   0.06613   1.51184
   A28        2.44418  -0.01923   0.00000  -0.01367  -0.01361   2.43057
   A29        2.08455  -0.02330   0.00000  -0.02277  -0.02346   2.06109
   A30        1.52375   0.03501   0.00000   0.02975   0.03060   1.55435
   A31        2.01141  -0.01296   0.00000  -0.01313  -0.01382   1.99758
   A32        1.94518   0.03811   0.00000   0.02713   0.02645   1.97162
   A33        2.13643  -0.02169   0.00000  -0.01435  -0.01383   2.12260
   A34        2.20147  -0.01617   0.00000  -0.01249  -0.01253   2.18894
   A35        2.16232   0.03782   0.00000   0.02801   0.02801   2.19033
   A36        2.07519  -0.00251   0.00000  -0.00157  -0.00162   2.07357
   A37        2.03340   0.01519   0.00000   0.01374   0.01371   2.04711
   A38        2.13960  -0.00895   0.00000  -0.00760  -0.00766   2.13194
   A39        2.11705   0.03921   0.00000   0.02943   0.02942   2.14647
   A40        2.21418  -0.03111   0.00000  -0.02706  -0.02706   2.18712
   A41        1.95089  -0.00841   0.00000  -0.00272  -0.00273   1.94817
   A42        1.83231   0.00202   0.00000   0.00456   0.00475   1.83707
   A43        2.03806  -0.02939   0.00000  -0.02457  -0.02474   2.01332
   A44        1.88499  -0.01208   0.00000  -0.00765  -0.00753   1.87746
   A45        2.16316   0.03257   0.00000   0.02601   0.02606   2.18922
   A46        2.21548  -0.02010   0.00000  -0.01810  -0.01827   2.19721
   A47        1.65227  -0.01735   0.00000  -0.01462  -0.01500   1.63727
   A48        1.15359  -0.05504   0.00000  -0.04986  -0.04967   1.10392
   A49        1.36964   0.03045   0.00000   0.02926   0.02923   1.39887
   A50        2.09055  -0.02238   0.00000  -0.01782  -0.01729   2.07326
   A51        1.80011  -0.00861   0.00000  -0.01172  -0.01182   1.78829
   A52        1.55108  -0.09593   0.00000  -0.07106  -0.07106   1.48002
   A53        1.77406  -0.00611   0.00000  -0.00650  -0.00649   1.76757
   A54        1.46332   0.02699   0.00000   0.02244   0.02225   1.48557
    D1        2.23512  -0.01320   0.00000  -0.01484  -0.01462   2.22049
    D2        1.09231   0.01122   0.00000   0.00810   0.00820   1.10052
    D3       -2.91928  -0.00479   0.00000  -0.00455  -0.00472  -2.92400
    D4       -1.10150  -0.01373   0.00000  -0.01558  -0.01527  -1.11677
    D5       -2.24430   0.01069   0.00000   0.00736   0.00755  -2.23674
    D6        0.02730  -0.00531   0.00000  -0.00529  -0.00537   0.02192
    D7       -0.03830   0.00752   0.00000   0.00747   0.00759  -0.03071
    D8        2.95000   0.00997   0.00000   0.00965   0.00987   2.95987
    D9        3.05688   0.02090   0.00000   0.01379   0.01308   3.06997
   D10       -0.30639  -0.01949   0.00000  -0.02340  -0.02348  -0.32986
   D11        2.56790   0.00397   0.00000   0.00616   0.00602   2.57392
   D12       -1.24598   0.02533   0.00000   0.02543   0.02524  -1.22074
   D13        2.51973  -0.02269   0.00000  -0.02257  -0.02226   2.49747
   D14       -0.31644  -0.01600   0.00000  -0.01515  -0.01480  -0.33123
   D15        1.69036   0.01343   0.00000   0.01131   0.01084   1.70120
   D16       -1.14580   0.02013   0.00000   0.01874   0.01831  -1.12750
   D17       -0.51127  -0.00272   0.00000  -0.00389  -0.00384  -0.51511
   D18        2.93575   0.00398   0.00000   0.00354   0.00363   2.93938
   D19        3.11519  -0.00828   0.00000  -0.00948  -0.00920   3.10599
   D20        2.07428  -0.02006   0.00000  -0.02046  -0.02058   2.05369
   D21       -1.08052   0.01031   0.00000   0.00863   0.00891  -1.07161
   D22       -2.12143  -0.00148   0.00000  -0.00236  -0.00248  -2.12391
   D23       -2.47599   0.01592   0.00000   0.01963   0.01951  -2.45648
   D24        0.32434   0.01601   0.00000   0.01779   0.01778   0.34213
   D25        0.61803  -0.00871   0.00000  -0.01316  -0.01311   0.60491
   D26       -1.67312   0.00121   0.00000   0.00108   0.00091  -1.67221
   D27        1.95990   0.03756   0.00000   0.03769   0.03760   1.99749
   D28       -2.78143   0.02549   0.00000   0.02818   0.02812  -2.75331
   D29       -0.18750  -0.00099   0.00000   0.00050  -0.00003  -0.18753
   D30        1.56584   0.00781   0.00000   0.00934   0.00980   1.57564
   D31        2.59079   0.02858   0.00000   0.02631   0.02613   2.61692
   D32       -2.79790   0.00440   0.00000   0.00467   0.00456  -2.79334
   D33       -2.94923  -0.01491   0.00000  -0.01698  -0.01704  -2.96627
   D34       -2.10954  -0.00088   0.00000   0.00129   0.00131  -2.10823
   D35        2.30904  -0.03614   0.00000  -0.03134  -0.03022   2.27882
   D36        0.17116   0.02027   0.00000   0.02035   0.01959   0.19075
   D37       -0.77294   0.02584   0.00000   0.03214   0.03189  -0.74105
   D38       -3.02591   0.02871   0.00000   0.03383   0.03349  -2.99242
   D39        2.08360   0.00957   0.00000  -0.00350  -0.00372   2.07989
   D40        1.22807  -0.03977   0.00000  -0.03509  -0.03488   1.19320
   D41        2.53888   0.02405   0.00000   0.02577   0.02517   2.56405
   D42       -0.58804   0.00680   0.00000   0.00556   0.00493  -0.58311
   D43        0.29785  -0.01438   0.00000  -0.01787  -0.01782   0.28004
   D44       -2.82907  -0.03164   0.00000  -0.03808  -0.03805  -2.86712
   D45       -1.98995   0.00336   0.00000   0.00679   0.00707  -1.98288
   D46       -3.02839  -0.00873   0.00000  -0.01160  -0.01175  -3.04014
   D47        0.09786   0.00928   0.00000   0.00953   0.00940   0.10726
   D48        3.14069  -0.00283   0.00000  -0.00393  -0.00401   3.13668
   D49       -0.27455   0.00997   0.00000   0.01231   0.01238  -0.26217
   D50        2.91002   0.02174   0.00000   0.02564   0.02559   2.93562
   D51       -0.28522   0.01371   0.00000   0.01696   0.01695  -0.26828
   D52        0.05956   0.00409   0.00000   0.00479   0.00480   0.06436
   D53       -3.13569  -0.00394   0.00000  -0.00389  -0.00384  -3.13953
   D54        2.40429  -0.01502   0.00000  -0.01271  -0.01269   2.39160
   D55       -2.94577  -0.00472   0.00000  -0.00596  -0.00609  -2.95186
   D56       -0.00283  -0.00607   0.00000  -0.00757  -0.00769  -0.01052
   D57       -0.69108  -0.00718   0.00000  -0.00435  -0.00424  -0.69532
   D58        0.24204   0.00312   0.00000   0.00240   0.00237   0.24441
   D59       -3.09820   0.00177   0.00000   0.00079   0.00077  -3.09743
   D60       -1.60073  -0.00927   0.00000  -0.00649  -0.00667  -1.60741
   D61        1.49149  -0.01531   0.00000  -0.01353  -0.01351   1.47798
   D62        2.87294   0.01907   0.00000   0.01739   0.01756   2.89049
   D63       -2.47443  -0.01310   0.00000  -0.01196  -0.01198  -2.48641
[...]
   A53        1.52374  -0.00085   0.00356   0.00083   0.00430   1.52804
   A54        1.80721   0.00002   0.01421   0.00044   0.01367   1.82088
    D1        2.92234  -0.00087   0.03836   0.00928   0.04755   2.96989
    D2        1.73001  -0.00142   0.00788   0.00212   0.00966   1.73967
    D3       -2.30855  -0.00041   0.02004   0.00707   0.02762  -2.28093
    D4       -1.26113  -0.00043   0.00127  -0.00316  -0.00205  -1.26318
    D5       -2.45346  -0.00098  -0.02922  -0.01033  -0.03994  -2.49340
    D6       -0.20883   0.00003  -0.01706  -0.00537  -0.02198  -0.23081
    D7        0.26778  -0.00012   0.02679   0.00713   0.03373   0.30150
    D8        1.33799  -0.00066   0.05373   0.01123   0.06490   1.40289
    D9        2.50836   0.00018   0.01880   0.01076   0.02960   2.53797
   D10       -1.82163   0.00020   0.00942   0.00581   0.01504  -1.80659
   D11        2.65214  -0.00018   0.03247   0.00929   0.04223   2.69437
   D12       -0.82847  -0.00018   0.03423   0.00771   0.04256  -0.78591
   D13        1.82160   0.00034   0.01074   0.01361   0.02443   1.84603
   D14       -1.36719   0.00016   0.00688   0.00756   0.01454  -1.35265
   D15        1.76431   0.00041  -0.00056   0.00972   0.00913   1.77345
   D16       -1.42448   0.00023  -0.00442   0.00367  -0.00075  -1.42523
   D17        0.07873  -0.00020   0.00964   0.00905   0.01866   0.09739
   D18       -3.11006  -0.00037   0.00578   0.00299   0.00878  -3.10129
   D19        2.12957  -0.00082  -0.01061  -0.00019  -0.01089   2.11868
   D20        1.04671   0.00052   0.01951   0.00880   0.02828   1.07499
   D21       -2.08780  -0.00069  -0.01500  -0.00135  -0.01632  -2.10412
   D22        3.11252   0.00065   0.01513   0.00763   0.02285   3.13537
   D23       -1.79988  -0.00028  -0.03733  -0.02470  -0.06194  -1.86182
   D24        1.38674  -0.00010  -0.03364  -0.01886  -0.05240   1.33434
   D25       -1.14442   0.00032   0.01179   0.00918   0.02110  -1.12332
   D26        3.04493   0.00051   0.01250   0.00993   0.02248   3.06741
   D27        1.01976   0.00077   0.01008   0.01142   0.02156   1.04132
   D28       -1.18252   0.00142   0.01678   0.00858   0.02536  -1.15717
   D29        0.84900   0.00107   0.01381   0.01039   0.02423   0.87323
   D30        2.96324   0.00038   0.01828   0.00547   0.02377   2.98701
   D31        2.59950   0.00120   0.00304  -0.00720  -0.00421   2.59529
   D32        2.98929  -0.00097  -0.00067   0.00153   0.00105   2.99035
   D33        1.12684   0.00150   0.00280  -0.00303  -0.00022   1.12661
   D34       -0.13545  -0.00074   0.00329  -0.01573  -0.01225  -0.14769
   D35        1.09014  -0.00004  -0.00377  -0.01524  -0.01902   1.07112
   D36       -1.03427  -0.00061  -0.00274  -0.01802  -0.02074  -1.05502
   D37       -3.09543  -0.00066  -0.01094  -0.02542  -0.03639  -3.13182
   D38       -0.06392  -0.00008  -0.03609  -0.03850  -0.07455  -0.13847
   D39        3.12115   0.00015   0.00489   0.01323   0.01812   3.13927
   D40        3.09171  -0.00042   0.01339   0.02969   0.04308   3.13479
   D41        2.12664  -0.00088  -0.00098   0.00362   0.00266   2.12930
   D42       -1.04637   0.00030  -0.00739   0.00219  -0.00526  -1.05163
   D43       -2.14255  -0.00020  -0.00139   0.00791   0.00653  -2.13603
   D44        0.96762   0.00098  -0.00780   0.00647  -0.00139   0.96623
   D45        3.13652  -0.00021  -0.00100   0.00398   0.00293   3.13945
   D46        3.13259   0.00075  -0.00143   0.00584   0.00440   3.13699
   D47        0.01983  -0.00029   0.00435   0.00723   0.01165   0.03148
   D48        3.13288   0.00014  -0.00362  -0.00676  -0.01038   3.12250
   D49       -0.00236   0.00014  -0.00326  -0.00614  -0.00940  -0.01175
   D50       -3.12040   0.00003   0.00088   0.00305   0.00392  -3.11648
   D51        0.00595   0.00000   0.00138   0.00151   0.00290   0.00885
   D52        0.01430   0.00003   0.00049   0.00237   0.00286   0.01717
   D53        3.14066   0.00001   0.00100   0.00084   0.00184  -3.14068
   D54        2.83694  -0.00045   0.00190  -0.01525  -0.01345   2.82349
   D55       -2.33036  -0.00030   0.00161  -0.01758  -0.01582  -2.34618
   D56        0.03219  -0.00042   0.00048  -0.01364  -0.01325   0.01894
   D57       -0.28903  -0.00042   0.00136  -0.01372  -0.01247  -0.30151
   D58        0.82686  -0.00027   0.00107  -0.01605  -0.01485   0.81201
   D59       -3.09378  -0.00040  -0.00006  -0.01211  -0.01227  -3.10606
   D60       -2.74955  -0.00029   0.00068   0.01198   0.01262  -2.73693
   D61        0.37698  -0.00032   0.00120   0.01050   0.01168   0.38866
   D62        2.86119  -0.00042   0.04011   0.01610   0.05562   2.91682
   D63       -3.07158  -0.00120   0.02079   0.00999   0.03092  -3.04065
   D64        0.45936  -0.00017   0.03953   0.01261   0.05142   0.51078
   D65        0.80977  -0.00095   0.02021   0.00650   0.02672   0.83649
   D66        0.68866  -0.00020  -0.04324  -0.01422  -0.05754   0.63112
   D67       -2.77450   0.00006  -0.04239  -0.01591  -0.05836  -2.83286
   D68       -0.38499   0.00021  -0.04324  -0.01155  -0.05506  -0.44005
         Item               Value     Threshold  Converged?
 Maximum Force            0.004318     0.000450     NO 
 RMS     Force            0.000706     0.000300     NO 
 Maximum Displacement     0.329795     0.001800     NO 
 RMS     Displacement     0.063490     0.001200     NO 
 Predicted change in Energy=-1.917910D-04
 GradGradGradGradGradGradGradGradGradGradGradGradGradGradGradGradGradGrad

                          Input orientation:                          
 ---------------------------------------------------------------------
 Center     Atomic      Atomic             Coordinates (Angstroms)
 Number     Number       Type             X           Y           Z
 ---------------------------------------------------------------------
      1         16           0        1.673566    2.742805   -0.267689
      2          6           0        4.723193   -1.789774   -0.144857
      3          6           0        3.077265    2.522933   -1.327175
      4          6           0        4.291523    2.238203   -0.852444
      5         16           0        5.713127    2.256553   -1.913654
      6          6           0        6.064292    0.451740   -2.100809
      7          6           0        6.456612   -0.205785   -0.797092
      8          6           0        5.474784   -0.603260    0.265046
      9          6           0        6.135753   -1.624233   -0.455840
     10          6           0        4.702986   -7.043598    0.001909
     11          6           0        4.623414   -8.369343    0.297089
     12          6           0        3.704055   -8.706587    1.441642
     13          6           0        3.211930   -7.365616    1.823355
     14          7           0        3.760887   -6.485662    1.029999
     15          6           0        3.500855   -5.104504    1.119113
     16          6           0        4.088636   -4.219028    0.312400
     17          6           0        3.835064   -2.779083    0.433111
     18          8           0        3.578078   -2.053642   -0.856854
     19          1           0        0.737899    2.389658   -1.168630
     20          1           0        2.913514    2.684741   -2.388560
     21          1           0        4.460888    2.038327    0.200371
     22          1           0        6.892276    0.408633   -2.814706
     23          1           0        5.192580   -0.030472   -2.542282
     24          1           0        7.405622    0.134412   -0.389745
     25          1           0        5.161055   -9.145797   -0.228027
     26          1           0        4.197916   -9.191580    2.299149
     27          1           0        2.863359   -9.370400    1.186787
     28          1           0        2.494332   -7.090471    2.588140
     29          1           0        2.795537   -4.821933    1.895019
     30          1           0        4.781113   -4.590967   -0.437217
     31          1           0        3.158719   -2.455431    1.222360
 ---------------------------------------------------------------------
                    Distance matrix (angstroms):
                    1          2          3          4          5
     1  S    0.000000
     2  C    5.464392   0.000000
     3  C    1.772350   4.765122   0.000000
     4  C    2.729516   4.112374   1.334489   0.000000
     5  S    4.389042   4.525635   2.713426   1.774108   0.000000
     6  C    5.280888   3.263232   3.716272   2.809373   1.848159
     7  C    5.643755   2.437041   4.375714   3.265540   2.804031
     8  C    5.092073   1.463122   4.249276   3.274569   3.603064
     9  C    6.246401   1.455830   5.226141   4.298476   4.167053
    10  C   10.248109   5.255912   9.794281   9.330116   9.548956
    11  C   11.510882   6.595150  11.120723  10.674813  10.908003
    12  C   11.753011   7.169234  11.582803  11.198053  11.639794
    13  C   10.436436   6.103097  10.379179  10.027900  10.621080
    14  N    9.550157   4.935351   9.336937   8.940414   9.428820
    15  C    8.175724   3.752222   8.021318   7.643792   8.262989
    16  C    7.391629   2.552062   7.011783   6.564591   7.037572
    17  C    5.971134   1.449673   5.637751   5.199440   5.864474
    18  O    5.194245   1.373992   4.627856   4.350743   4.924738
    19  H    1.346061   5.865009   2.348517   3.570876   5.032461
    20  H    2.457425   5.322633   1.086064   2.111388   2.871709
    21  H    2.912821   3.852576   2.117227   1.084922   2.466744
    22  H    6.258640   4.082402   4.608396   3.736538   2.370041
    23  H    5.024768   3.010500   3.531419   2.968896   2.428297
    24  H    6.298815   3.310270   5.031747   3.786507   3.112928
    25  H   12.389633   7.369513  11.904182  11.434223  11.539484
    26  H   12.465575   7.812542  12.314053  11.856697  12.292409
    27  H   12.258093   7.918217  12.158007  11.872565  12.366080
    28  H   10.272425   6.366670  10.396491  10.104043  10.862487
    29  H    7.947413   4.131699   8.025519   7.722179   8.551215
    30  H    7.966793   2.817004   7.369036   6.859277   7.066614
    31  H    5.607814   2.181734   5.593824   5.255308   6.209861
                    6          7          8          9         10
     6  C    0.000000
     7  C    1.511931   0.000000
     8  C    2.656655   1.500036   0.000000
     9  C    2.649660   1.493786   1.413840   0.000000
    10  C    7.902827   7.104174   6.491754   5.624222   0.000000
    11  C    9.254057   8.438100   7.812676   6.953458   1.360538
    12  C   10.099239   9.211521   8.377575   7.724851   2.415828
    13  C    9.200331   8.286005   7.299198   6.834248   2.375839
    14  N    7.952056   7.074040   6.174565   5.610811   1.501937
    15  C    6.914547   6.033721   4.988690   4.640631   2.540344
    16  C    5.616304   4.790031   3.872651   3.393204   2.907237
    17  C    4.672091   3.873987   2.729677   2.723432   4.373249
    18  O    3.742410   3.421126   2.638136   2.624291   5.186767
    19  H    5.744123   6.291108   5.783689   6.764334  10.299436
    20  H    3.872531   4.841638   4.940919   5.717123  10.176303
    21  H    3.222359   3.164472   2.830221   4.080458   9.087319
    22  H    1.094104   2.153621   3.538091   3.204547   8.262086
    23  H    1.089637   2.161990   2.879031   2.789783   7.476399
    24  H    2.197181   1.087330   2.168190   2.170201   7.679939
    25  H    9.820177   9.051305   8.562505   7.587876   2.163779
    26  H   10.762742   9.768978   8.917803   8.283110   3.185316
    27  H   10.841066  10.041783   9.194123   8.567957   3.194084
    28  H    9.571615   8.634718   7.507581   7.239165   3.401315
    29  H    7.379907   6.477634   5.256650   5.187375   3.486836
    30  H    5.462873   4.708144   4.108060   3.261427   2.492857
    31  H    5.285590   4.473834   3.116271   3.517098   4.992548
                   11         12         13         14         15
    11  C    0.000000
    12  C    1.506305   0.000000
    13  C    2.308515   1.478545   0.000000
    14  N    2.197582   2.259466   1.305789   0.000000
    15  C    3.548948   3.622197   2.385804   1.408245   0.000000
    16  C    4.184656   4.643412   3.598974   2.400000   1.334294
    17  C    5.647212   6.014116   4.832945   3.755064   2.447423
    18  O    6.504798   7.039931   5.961095   4.820418   3.635680
    19  H   11.532635  11.778720  10.499437   9.630355   8.308439
    20  H   11.503446  12.043993  10.901329   9.823487   8.562774
    21  H   10.409389  10.842819   9.624350   8.592827   7.265383
    22  H    9.585608  10.553127   9.772180   8.492271   7.574388
    23  H    8.827386   9.662418   8.762768   7.515345   6.481786
    24  H    8.973644   9.758014   8.873291   7.689288   6.705976
    25  H    1.080595   2.259104   3.343098   3.258745   4.571990
    26  H    2.205757   1.102014   2.129013   3.020551   4.310750
    27  H    2.211667   1.101076   2.132107   3.025203   4.313797
    28  H    3.378968   2.321577   1.084227   2.097083   2.667432
    29  H    4.298678   4.015158   2.578535   2.109064   1.085979
    30  H    3.852298   4.650644   3.907838   2.604507   2.079650
    31  H    6.162452   6.278728   4.947115   4.079506   2.673071
                   16         17         18         19         20
    16  C    0.000000
    17  C    1.467075   0.000000
    18  O    2.513308   1.502104   0.000000
    19  H    7.556164   6.234893   5.282683   0.000000
    20  H    7.505873   6.218076   5.023948   2.511694   0.000000
    21  H    6.269418   4.863462   4.317556   3.982240   3.084604
    22  H    6.249355   5.482372   4.569452   6.671610   4.603565
    23  H    5.187668   4.272081   3.088770   5.252440   3.548261
    24  H    5.517956   4.681285   4.433494   7.081760   5.538815
    25  H    5.071016   6.536849   7.293826  12.390148  12.234418
    26  H    5.355875   6.688339   7.829094  12.574669  12.832432
    27  H    5.366796   6.705050   7.630350  12.180498  12.574262
    28  H    3.995746   5.002977   6.197752  10.347522  10.977160
    29  H    2.130794   2.718644   3.981031   8.101041   8.643676
    30  H    1.086180   2.221576   2.839261   8.100103   7.760902
    31  H    2.191586   1.088627   2.158802   5.920480   6.286513
                   21         22         23         24         25
    21  H    0.000000
    22  H    4.202171   0.000000
    23  H    3.512471   1.776512   0.000000
    24  H    3.555923   2.493824   3.091627   0.000000
    25  H   11.214205  10.048640   9.404569   9.549164   0.000000
    26  H   11.427372  11.206033  10.409357  10.222214   2.704875
    27  H   11.562187  11.308122  10.323056  10.651717   2.707684
    28  H    9.638658  10.235684   9.134843   9.229708   4.389371
    29  H    7.260054   8.143930   6.956547   7.144115   5.366451
    30  H    6.667578   5.924987   5.039714   5.405508   4.575434
    31  H    4.788942   6.200018   4.918287   5.228992   7.132599
                   26         27         28         29         30
    26  H    0.000000
    27  H    1.746530   0.000000
    28  H    2.720364   2.701490   0.000000
    29  H    4.606930   4.603775   2.391110   0.000000
    30  H    5.384557   5.399829   4.541990   3.071673   0.000000
    31  H    6.900370   6.921366   4.877536   2.486906   3.153866
                   31
    31  H    0.000000
 Stoichiometry    C14H13NOS2
 Framework group  C1[X(C14H13NOS2)]
 Deg. of freedom    87
 Full point group                 C1      NOp   1
 Largest Abelian subgroup         C1      NOp   1
 Largest concise Abelian subgroup C1      NOp   1
                         Standard orientation:                         
 ---------------------------------------------------------------------
 Center     Atomic      Atomic             Coordinates (Angstroms)
 Number     Number       Type             X           Y           Z
 ---------------------------------------------------------------------
      1         16           0       -4.512637    2.815591   -0.014699
      2          6           0       -0.112479   -0.412802   -0.289777
      3          6           0       -4.554573    1.120204    0.500210
      4          6           0       -4.190049    0.120858   -0.305576
      5         16           0       -4.464896   -1.569856    0.156384
      6          6           0       -2.752107   -2.128980    0.567998
      7          6           0       -1.827763   -2.110553   -0.628322
      8          6           0       -1.189737   -0.865780   -1.170146
      9          6           0       -0.364262   -1.824796   -0.539415
     10          6           0        5.042678   -0.829014    0.646036
     11          6           0        6.401922   -0.776084    0.672834
     12          6           0        6.998561    0.444033    0.021458
     13          6           0        5.783298    1.158685   -0.424080
     14          7           0        4.741057    0.455216   -0.072012
     15          6           0        3.418186    0.856444   -0.340679
     16          6           0        2.367009    0.112610    0.008722
     17          6           0        0.993735    0.524038   -0.302974
     18          8           0        0.004177    0.390039    0.819138
     19          1           0       -4.354027    3.349688    1.210643
     20          1           0       -4.945313    0.925156    1.494601
     21          1           0       -3.764180    0.304208   -1.286429
     22          1           0       -2.880995   -3.151451    0.935428
     23          1           0       -2.366701   -1.509417    1.377265
     24          1           0       -2.083451   -2.827191   -1.405072
     25          1           0        7.034298   -1.530211    1.119015
     26          1           0        7.654165    0.230789   -0.838278
     27          1           0        7.601952    1.081663    0.686076
     28          1           0        5.695574    2.116778   -0.923990
     29          1           0        3.325503    1.807544   -0.856594
     30          1           0        2.552849   -0.825743    0.523255
     31          1           0        0.863521    1.456407   -0.849639
 ---------------------------------------------------------------------
 Rotational constants (GHZ):           0.7429820           0.1101636           0.0987713
 Standard basis: 6-31G(2df,p) (6D, 7F)
 There are   631 symmetry adapted cartesian basis functions of A   symmetry.
 There are   577 symmetry adapted basis functions of A   symmetry.
   577 basis functions,   931 primitive gaussians,   631 cartesian basis functions
    72 alpha electrons       72 beta electrons
       nuclear repulsion energy      1327.1344612047 Hartrees.
 NAtoms=   31 NActive=   31 NUniq=   31 SFac= 1.00D+00 NAtFMM=   60 NAOKFM=F Big=F
 Integral buffers will be    131072 words long.
 Raffenetti 2 integral format.
 Two-electron integral symmetry is turned on.
 One-electron integrals computed using PRISM.
 PrsmSu:  requested number of processors reduced to:  12 ShMem   1 Linda.
 NBasis=   577 RedAO= T EigKep=  2.20D-04  NBF=   577
 NBsUse=   577 1.00D-06 EigRej= -1.00D+00 NBFU=   577
 Initial guess from the checkpoint file:  "SC12CdCSCdCCdC1CdCCdCNdCCdCO2.chk"
 B after Tr=     0.000000    0.000000    0.000000
         Rot=    0.999972   -0.006244    0.000209   -0.004197 Ang=  -0.86 deg.
 ExpMin= 1.17D-01 ExpMax= 2.19D+04 ExpMxC= 3.30D+03 IAcc=2 IRadAn=         4 AccDes= 0.00D+00
 Harris functional with IExCor=  402 and IRadAn=       4 diagonalized for initial guess.
 HarFok:  IExCor=  402 AccDes= 0.00D+00 IRadAn=         4 IDoV= 1 UseB2=F ITyADJ=14
 ICtDFT=  3500011 ScaDFX=  1.000000  1.000000  1.000000  1.000000
 FoFCou: FMM=F IPFlag=           0 FMFlag=      100000 FMFlg1=           0
         NFxFlg=           0 DoJE=T BraDBF=F KetDBF=T FulRan=T
         wScrn=  0.000000 ICntrl=       500 IOpCl=  0 I1Cent=   200000004 NGrid=           0
         NMat0=    1 NMatS0=      1 NMatT0=    0 NMatD0=    1 NMtDS0=    0 NMtDT0=    0
 Petite list used in FoFCou.
slurmstepd: error: *** JOB 27448341 ON lewis4-r630-hpc4rc-node351 CANCELLED AT 2023-05-17T20:46:16 DUE TO TIME LIMIT ***
