### Starting Gaussian ###
 Entering Gaussian System, Link 0=g16
 Initial command:
 /cluster/software/gaussian/gaussian-16-A.03/avx2/g16/l1.exe "/local/scratch/ks29c/Gau-14335.inp" -scrdir="/local/scratch/ks29c/"
 Entering Link 1 = /cluster/software/gaussian/gaussian-16-A.03/avx2/g16/l1.exe PID=     14336.
  
 Copyright (c) 1988,1990,1992,1993,1995,1998,2003,2009,2016,
            Gaussian, Inc.  All Rights Reserved.
  
 This is part of the Gaussian(R) 16 program.  It is based on
 the Gaussian(R) 09 system (copyright 2009, Gaussian, Inc.),
 the Gaussian(R) 03 system (copyright 2003, Gaussian, Inc.),
 the Gaussian(R) 98 system (copyright 1998, Gaussian, Inc.),
 the Gaussian(R) 94 system (copyright 1995, Gaussian, Inc.),
 the Gaussian 92(TM) system (copyright 1992, Gaussian, Inc.),
 the Gaussian 90(TM) system (copyright 1990, Gaussian, Inc.),
 the Gaussian 88(TM) system (copyright 1988, Gaussian, Inc.),
 the Gaussian 86(TM) system (copyright 1986, Carnegie Mellon
 University), and the Gaussian 82(TM) system (copyright 1983,
 Carnegie Mellon University). Gaussian is a federally registered
 trademark of Gaussian, Inc.
  
 This software contains proprietary and confidential information,
 including trade secrets, belonging to Gaussian, Inc.
  
 This software is provided under written license and may be
 used, copied, transmitted, or stored only in accord with that
 written license.
  
 The following legend is applicable only to US Government
 contracts under FAR:
  
                    RESTRICTED RIGHTS LEGEND
  
 Use, reproduction and disclosure by the US Government is
 subject to restrictions as set forth in subparagraphs (a)
 and (c) of the Commercial Computer Software - Restricted
 Rights clause in FAR 52.227-19.
  
 Gaussian, Inc.
 340 Quinnipiac St., Bldg. 40, Wallingford CT 06492
  
  
 ---------------------------------------------------------------
 Warning -- This program may not be used in any manner that
 competes with the business of Gaussian, Inc. or will provide
 assistance to any competitor of Gaussian, Inc.  The licensee
 of this program is prohibited from giving any competitor of
 Gaussian, Inc. access to this program.  By using this program,
 the user acknowledges that Gaussian, Inc. is engaged in the
 business of creating and licensing software in the field of
 computational chemistry and represents and warrants to the
 licensee that it is not a competitor of Gaussian, Inc. and that
 it will not use this program in any manner prohibited above.
 ---------------------------------------------------------------
  

 Cite this work as:
 Gaussian 16, Revision A.03,
 M. J. Frisch, G. W. Trucks, H. B. Schlegel, G. E. Scuseria, 
 M. A. Robb, J. R. Cheeseman, G. Scalmani, V. Barone, 
 G. A. Petersson, H. Nakatsuji, X. Li, M. Caricato, A. V. Marenich, 
 J. Bloino, B. G. Janesko, R. Gomperts, B. Mennucci, H. P. Hratchian, 
 J. V. Ortiz, A. F. Izmaylov, J. L. Sonnenberg, D. Williams-Young, 
 F. Ding, F. Lipparini, F. Egidi, J. Goings, B. Peng, A. Petrone, 
 T. Henderson, D. Ranasinghe, V. G. Zakrzewski, J. Gao, N. Rega, 
 G. Zheng, W. Liang, M. Hada, M. Ehara, K. Toyota, R. Fukuda, 
 J. Hasegawa, M. Ishida, T. Nakajima, Y. Honda, O. Kitao, H. Nakai, 
 T. Vreven, K. Throssell, J. A. Montgomery, Jr., J. E. Peralta, 
 F. Ogliaro, M. J. Bearpark, J. J. Heyd, E. N. Brothers, K. N. Kudin, 
 V. N. Staroverov, T. A. Keith, R. Kobayashi, J. Normand, 
 K. Raghavachari, A. P. Rendell, J. C. Burant, S. S. Iyengar, 
 J. Tomasi, M. Cossi, J. M. Millam, M. Klene, C. Adamo, R. Cammi, 
 J. W. Ochterski, R. L. Martin, K. Morokuma, O. Farkas, 
 J. B. Foresman, and D. J. Fox, Gaussian, Inc., Wallingford CT, 2016.
 
 ******************************************
 Gaussian 16:  ES64L-G16RevA.03 25-Dec-2016
                16-May-2023 
 ******************************************
 %chk=Sc1ccssc2ccccccc-2cnc1.chk
 %NProcShared=20
 Will use up to   20 processors via shared memory.
 -----------------------------
 # opt freq b3lyp/6-31g(2df,p)
 -----------------------------
 1/18=20,19=15,26=3,38=1/1,3;
 2/9=110,12=2,17=6,18=5,40=1/2;
 3/5=1,6=6,7=104,11=2,25=1,30=1,71=1,74=-5/1,2,3;
 4//1;
 5/5=2,38=5/2;
 6/7=2,8=2,9=2,10=2,28=1/1;
 7//1,2,3,16;
 1/18=20,19=15,26=3/3(2);
 2/9=110/2;
 99//99;
 2/9=110/2;
 3/5=1,6=6,7=104,11=2,25=1,30=1,71=1,74=-5/1,2,3;
 4/5=5,16=3,69=1/1;
 5/5=2,38=5/2;
 7//1,2,3,16;
 1/18=20,19=15,26=3/3(-5);
 2/9=110/2;
 6/7=2,8=2,9=2,10=2,19=2,28=1/1;
 99/9=1/99;
 -------------------
 Title Card Required
 -------------------
 Symbolic Z-matrix:
 Charge =  0 Multiplicity = 1
 S                     2.90698   0.68991   0.29146 
 C                     4.52322   0.13396   1.12324 
 C                     4.13519  -1.16792   1.55114 
 C                     4.91582  -2.08309   1.10851 
 S                     5.7564   -2.87219   2.38111 
 S                     7.48604  -2.78633   1.28795 
 C                     8.45566  -2.99975   2.66779 
 C                     8.95365  -4.25042   2.67794 
 C                     9.7104   -5.02327   3.62015 
 C                     9.27689  -5.26572   4.85887 
 C                     8.1246   -4.60386   5.4066 
 C                     8.03595  -3.2681    5.51624 
 C                     8.87508  -2.19551   4.88107 
 C                     8.47478  -1.84457   3.60153 
 C                     8.18924  -0.34794   2.7118 
 N                     7.27982   0.28604   1.9088 
 C                     5.90579   0.52843   1.16096 
 H                     1.88612  -0.24039   0.7048 
 H                     3.17428  -1.36478   2.04763 
 H                     5.56931  -1.77828   0.25822 
 H                     8.63387  -4.89676   1.85303 
 H                     10.58749  -5.53422   3.23412 
 H                     9.80787  -5.95542   5.50985 
 H                     7.27306  -5.23497   5.67436 
 H                     7.13187  -2.86213   5.96753 
 H                     9.36735  -1.65459   5.69972 
 H                     9.21671   0.15592   2.75376 
 H                     6.13872   1.16851   0.28285 
 

 GradGradGradGradGradGradGradGradGradGradGradGradGradGradGradGradGradGrad
 Berny optimization.
 Initialization pass.
                           ----------------------------
                           !    Initial Parameters    !
                           ! (Angstroms and Degrees)  !
 --------------------------                            --------------------------
 ! Name  Definition              Value          Derivative Info.                !
 --------------------------------------------------------------------------------
 ! R1    R(1,2)                  1.9008         estimate D2E/DX2                !
 ! R2    R(1,18)                 1.4417         estimate D2E/DX2                !
 ! R3    R(2,3)                  1.4243         estimate D2E/DX2                !
 ! R4    R(2,17)                 1.4382         estimate D2E/DX2                !
 ! R5    R(3,4)                  1.2817         estimate D2E/DX2                !
 ! R6    R(3,19)                 1.0994         estimate D2E/DX2                !
 ! R7    R(4,5)                  1.7172         estimate D2E/DX2                !
 ! R8    R(4,20)                 1.1149         estimate D2E/DX2                !
 ! R9    R(5,6)                  2.0479         estimate D2E/DX2                !
 ! R10   R(6,7)                  1.6999         estimate D2E/DX2                !
 ! R11   R(7,8)                  1.3462         estimate D2E/DX2                !
 ! R12   R(7,14)                 1.4855         estimate D2E/DX2                !
 ! R13   R(8,9)                  1.4345         estimate D2E/DX2                !
 ! R14   R(8,21)                 1.0957         estimate D2E/DX2                !
 ! R15   R(9,10)                 1.3346         estimate D2E/DX2                !
 ! R16   R(9,22)                 1.086          estimate D2E/DX2                !
 ! R17   R(10,11)                1.4373         estimate D2E/DX2                !
 ! R18   R(10,23)                1.0869         estimate D2E/DX2                !
 ! R19   R(11,12)                1.3432         estimate D2E/DX2                !
 ! R20   R(11,24)                1.0932         estimate D2E/DX2                !
 ! R21   R(12,13)                1.5027         estimate D2E/DX2                !
 ! R22   R(12,25)                1.089          estimate D2E/DX2                !
 ! R23   R(13,14)                1.3859         estimate D2E/DX2                !
 ! R24   R(13,26)                1.0978         estimate D2E/DX2                !
 ! R25   R(14,15)                1.7644         estimate D2E/DX2                !
 ! R26   R(15,16)                1.3689         estimate D2E/DX2                !
 ! R27   R(15,27)                1.1451         estimate D2E/DX2                !
 ! R28   R(16,17)                1.583          estimate D2E/DX2                !
 ! R29   R(17,28)                1.1113         estimate D2E/DX2                !
 ! A1    A(2,1,18)             106.7319         estimate D2E/DX2                !
 ! A2    A(1,2,3)               99.6226         estimate D2E/DX2                !
 ! A3    A(1,2,17)             138.4715         estimate D2E/DX2                !
 ! A4    A(3,2,17)             120.3127         estimate D2E/DX2                !
 ! A5    A(2,3,4)              112.518          estimate D2E/DX2                !
 ! A6    A(2,3,19)             122.5128         estimate D2E/DX2                !
 ! A7    A(4,3,19)             124.0864         estimate D2E/DX2                !
 ! A8    A(3,4,5)              111.7348         estimate D2E/DX2                !
 ! A9    A(3,4,20)             115.1609         estimate D2E/DX2                !
 ! A10   A(5,4,20)             113.8236         estimate D2E/DX2                !
 ! A11   A(4,5,6)               89.9184         estimate D2E/DX2                !
 ! A12   A(5,6,7)               92.4758         estimate D2E/DX2                !
 ! A13   A(6,7,8)              109.4972         estimate D2E/DX2                !
 ! A14   A(6,7,14)             114.8304         estimate D2E/DX2                !
 ! A15   A(8,7,14)             135.4759         estimate D2E/DX2                !
 ! A16   A(7,8,9)              134.4779         estimate D2E/DX2                !
 ! A17   A(7,8,21)             115.7471         estimate D2E/DX2                !
 ! A18   A(9,8,21)             109.309          estimate D2E/DX2                !
 ! A19   A(8,9,10)             122.4228         estimate D2E/DX2                !
 ! A20   A(8,9,22)             116.4919         estimate D2E/DX2                !
 ! A21   A(10,9,22)            120.4508         estimate D2E/DX2                !
 ! A22   A(9,10,11)            122.0369         estimate D2E/DX2                !
 ! A23   A(9,10,23)            120.8297         estimate D2E/DX2                !
 ! A24   A(11,10,23)           117.104          estimate D2E/DX2                !
 ! A25   A(10,11,12)           122.8173         estimate D2E/DX2                !
 ! A26   A(10,11,24)           116.8703         estimate D2E/DX2                !
 ! A27   A(12,11,24)           120.1792         estimate D2E/DX2                !
 ! A28   A(11,12,13)           129.6789         estimate D2E/DX2                !
 ! A29   A(11,12,25)           117.3464         estimate D2E/DX2                !
 ! A30   A(13,12,25)           111.8814         estimate D2E/DX2                !
 ! A31   A(12,13,14)           114.187          estimate D2E/DX2                !
 ! A32   A(12,13,26)           106.6729         estimate D2E/DX2                !
 ! A33   A(14,13,26)           133.8896         estimate D2E/DX2                !
 ! A34   A(7,14,13)            112.777          estimate D2E/DX2                !
 ! A35   A(7,14,15)            109.912          estimate D2E/DX2                !
 ! A36   A(13,14,15)           136.6462         estimate D2E/DX2                !
 ! A37   A(14,15,16)           142.768          estimate D2E/DX2                !
 ! A38   A(14,15,27)           102.0957         estimate D2E/DX2                !
 ! A39   A(16,15,27)           114.4444         estimate D2E/DX2                !
 ! A40   A(15,16,17)           157.6218         estimate D2E/DX2                !
 ! A41   A(2,17,16)            143.5884         estimate D2E/DX2                !
 ! A42   A(2,17,28)            109.7997         estimate D2E/DX2                !
 ! A43   A(16,17,28)           106.2328         estimate D2E/DX2                !
 ! D1    D(18,1,2,3)            13.7809         estimate D2E/DX2                !
 ! D2    D(18,1,2,17)          178.2706         estimate D2E/DX2                !
 ! D3    D(1,2,3,4)            124.1719         estimate D2E/DX2                !
 ! D4    D(1,2,3,19)           -45.4705         estimate D2E/DX2                !
 ! D5    D(17,2,3,4)           -43.9769         estimate D2E/DX2                !
 ! D6    D(17,2,3,19)          146.3807         estimate D2E/DX2                !
 ! D7    D(1,2,17,16)          169.5815         estimate D2E/DX2                !
 ! D8    D(1,2,17,28)          -19.0646         estimate D2E/DX2                !
 ! D9    D(3,2,17,16)          -28.2009         estimate D2E/DX2                !
 ! D10   D(3,2,17,28)          143.153          estimate D2E/DX2                !
 ! D11   D(2,3,4,5)            115.3588         estimate D2E/DX2                !
 ! D12   D(2,3,4,20)           -16.5293         estimate D2E/DX2                !
 ! D13   D(19,3,4,5)           -75.1895         estimate D2E/DX2                !
 ! D14   D(19,3,4,20)          152.9224         estimate D2E/DX2                !
 ! D15   D(3,4,5,6)           -136.099          estimate D2E/DX2                !
 ! D16   D(20,4,5,6)            -3.5395         estimate D2E/DX2                !
 ! D17   D(4,5,6,7)            159.9515         estimate D2E/DX2                !
 ! D18   D(5,6,7,8)            105.712          estimate D2E/DX2                !
 ! D19   D(5,6,7,14)           -69.9947         estimate D2E/DX2                !
 ! D20   D(6,7,8,9)           -173.1954         estimate D2E/DX2                !
 ! D21   D(6,7,8,21)            -2.0527         estimate D2E/DX2                !
 ! D22   D(14,7,8,9)             1.2443         estimate D2E/DX2                !
 ! D23   D(14,7,8,21)          172.3871         estimate D2E/DX2                !
 ! D24   D(6,7,14,13)          159.4266         estimate D2E/DX2                !
 ! D25   D(6,7,14,15)          -28.3223         estimate D2E/DX2                !
 ! D26   D(8,7,14,13)          -14.7974         estimate D2E/DX2                !
 ! D27   D(8,7,14,15)          157.4537         estimate D2E/DX2                !
 ! D28   D(7,8,9,10)            57.9018         estimate D2E/DX2                !
 ! D29   D(7,8,9,22)          -131.2016         estimate D2E/DX2                !
 ! D30   D(21,8,9,10)         -113.6478         estimate D2E/DX2                !
 ! D31   D(21,8,9,22)           57.2488         estimate D2E/DX2                !
 ! D32   D(8,9,10,11)           -9.7919         estimate D2E/DX2                !
 ! D33   D(8,9,10,23)          172.2396         estimate D2E/DX2                !
 ! D34   D(22,9,10,11)         179.6624         estimate D2E/DX2                !
 ! D35   D(22,9,10,23)           1.694          estimate D2E/DX2                !
 ! D36   D(9,10,11,12)         -58.621          estimate D2E/DX2                !
 ! D37   D(9,10,11,24)         117.1849         estimate D2E/DX2                !
 ! D38   D(23,10,11,12)        119.4193         estimate D2E/DX2                !
 ! D39   D(23,10,11,24)        -64.7748         estimate D2E/DX2                !
 ! D40   D(10,11,12,13)         14.53           estimate D2E/DX2                !
 ! D41   D(10,11,12,25)       -178.5135         estimate D2E/DX2                !
 ! D42   D(24,11,12,13)       -161.1418         estimate D2E/DX2                !
 ! D43   D(24,11,12,25)          5.8147         estimate D2E/DX2                !
 ! D44   D(11,12,13,14)         84.6001         estimate D2E/DX2                !
 ! D45   D(11,12,13,26)       -117.2963         estimate D2E/DX2                !
 ! D46   D(25,12,13,14)        -82.9238         estimate D2E/DX2                !
 ! D47   D(25,12,13,26)         75.1798         estimate D2E/DX2                !
 ! D48   D(12,13,14,7)         -57.2351         estimate D2E/DX2                !
 ! D49   D(12,13,14,15)        133.4064         estimate D2E/DX2                !
 ! D50   D(26,13,14,7)         152.4819         estimate D2E/DX2                !
 ! D51   D(26,13,14,15)        -16.8767         estimate D2E/DX2                !
 ! D52   D(7,14,15,16)          59.5511         estimate D2E/DX2                !
 ! D53   D(7,14,15,27)        -109.4006         estimate D2E/DX2                !
 ! D54   D(13,14,15,16)       -130.8821         estimate D2E/DX2                !
 ! D55   D(13,14,15,27)         60.1663         estimate D2E/DX2                !
 ! D56   D(14,15,16,17)          8.7726         estimate D2E/DX2                !
 ! D57   D(27,15,16,17)        176.8944         estimate D2E/DX2                !
 ! D58   D(15,16,17,2)          16.0644         estimate D2E/DX2                !
 ! D59   D(15,16,17,28)       -155.4641         estimate D2E/DX2                !
 --------------------------------------------------------------------------------
 Trust Radius=3.00D-01 FncErr=1.00D-07 GrdErr=1.00D-06 EigMax=2.50D+02 EigMin=1.00D-04
 Number of steps in this run=    141 maximum allowed number of steps=    168.
 GradGradGradGradGradGradGradGradGradGradGradGradGradGradGradGradGradGrad

                          Input orientation:                          
 ---------------------------------------------------------------------
 Center     Atomic      Atomic             Coordinates (Angstroms)
 Number     Number       Type             X           Y           Z
 ---------------------------------------------------------------------
      1         16           0        2.906980    0.689910    0.291460
      2          6           0        4.523220    0.133960    1.123240
      3          6           0        4.135190   -1.167920    1.551140
      4          6           0        4.915820   -2.083090    1.108510
      5         16           0        5.756400   -2.872190    2.381110
      6         16           0        7.486040   -2.786330    1.287950
      7          6           0        8.455660   -2.999750    2.667790
      8          6           0        8.953650   -4.250420    2.677940
      9          6           0        9.710400   -5.023270    3.620150
     10          6           0        9.276890   -5.265720    4.858870
     11          6           0        8.124600   -4.603860    5.406600
     12          6           0        8.035950   -3.268100    5.516240
     13          6           0        8.875080   -2.195510    4.881070
     14          6           0        8.474780   -1.844570    3.601530
     15          6           0        8.189240   -0.347940    2.711800
     16          7           0        7.279820    0.286040    1.908800
     17          6           0        5.905790    0.528430    1.160960
     18          1           0        1.886120   -0.240390    0.704800
     19          1           0        3.174280   -1.364780    2.047630
     20          1           0        5.569310   -1.778280    0.258220
     21          1           0        8.633870   -4.896760    1.853030
     22          1           0       10.587490   -5.534220    3.234120
     23          1           0        9.807870   -5.955420    5.509850
     24          1           0        7.273060   -5.234970    5.674360
     25          1           0        7.131870   -2.862130    5.967530
     26          1           0        9.367350   -1.654590    5.699720
     27          1           0        9.216710    0.155920    2.753760
     28          1           0        6.138720    1.168510    0.282850
 ---------------------------------------------------------------------
                    Distance matrix (angstroms):
                    1          2          3          4          5
     1  S    0.000000
     2  C    1.900834   0.000000
     3  C    2.558677   1.424274   0.000000
     4  C    3.520304   2.251591   1.281733   0.000000
     5  S    5.017408   3.484237   2.494335   1.717197   0.000000
     6  S    5.834812   4.163355   3.730511   2.670726   2.047932
     7  C    7.074488   5.260215   4.823792   3.975184   2.717437
     8  C    8.164825   6.424063   5.830012   4.844017   3.494286
     9  C    9.487209   7.729063   7.087136   6.159626   4.668670
    10  C    9.844111   8.106100   7.360035   6.573680   4.925660
    11  C    9.022872   7.332397   6.525768   5.926561   4.214338
    12  C    8.322890   6.573563   5.945477   5.528792   3.896426
    13  C    8.062778   6.203741   5.883106   5.469971   4.053870
    14  C    6.955613   5.066688   4.847061   4.351808   3.151986
    15  C    5.902326   4.024357   4.295907   4.036900   3.521350
    16  N    4.679811   2.870379   3.482904   3.441183   3.538121
    17  C    3.126494   1.438238   2.482915   2.793354   3.615978
    18  H    1.441688   2.696206   2.575834   3.568978   4.971464
    19  H    2.716125   2.218188   1.099365   2.104965   3.008461
    20  H    3.630574   2.345043   2.025063   1.114877   2.395476
    21  H    8.151482   6.537444   5.850941   4.721752   3.557750
    22  H   10.314518   8.565013   7.970519   6.971109   5.581528
    23  H   10.909367   9.178803   8.412541   7.635371   5.975762
    24  H    9.118249   7.556436   6.586962   6.028094   4.327642
    25  H    7.917351   6.264883   5.599548   5.397023   3.841149
    26  H    8.745418   6.899904   6.695003   6.409286   5.053185
    27  H    6.794171   4.968695   5.387086   5.120319   4.613249
    28  H    3.266998   2.094371   3.328903   3.570728   4.569039
                    6          7          8          9         10
     6  S    0.000000
     7  C    1.699903   0.000000
     8  C    2.495899   1.346207   0.000000
     9  C    3.923115   2.564370   1.434478   0.000000
    10  C    4.701701   3.257280   2.427298   1.334594   0.000000
    11  C    4.546917   3.191214   2.873644   2.425298   1.437303
    12  C    4.291030   2.891684   3.140553   3.078890   2.441834
    13  C    3.897308   2.391929   3.013737   3.206853   3.096471
    14  C    2.686479   1.485489   2.621154   3.410460   3.732097
    15  C    2.909911   2.665523   3.976785   4.999774   5.475167
    16  N    3.141248   3.571426   4.896198   6.084834   6.596457
    17  C    3.674364   4.606564   5.867545   7.165476   7.655784
    18  H    6.179076   7.390958   8.362033   9.622607   9.855644
    19  H    4.603172   5.563335   6.490403   7.653642   7.769315
    20  H    2.397991   3.953357   4.839450   6.243489   6.861076
    21  H    2.467943   2.072255   1.095669   2.073074   3.095913
    22  H    4.577933   3.359906   2.151026   1.085991   2.104656
    23  H    5.767015   4.317611   3.414152   2.109353   1.086923
    24  H    5.028100   3.928640   3.573829   3.194561   2.163632
    25  H    4.693576   3.558039   4.008445   4.102382   3.406976
    26  H    4.927867   3.439947   4.005076   3.973701   3.708837
    27  H    3.714923   3.247282   4.414837   5.274312   5.816295
    28  H    4.297238   5.332030   6.559351   7.888765   8.496316
                   11         12         13         14         15
    11  C    0.000000
    12  C    1.343181   0.000000
    13  C    2.576733   1.502674   0.000000
    14  C    3.315808   2.425927   1.385865   0.000000
    15  C    5.037755   4.051631   2.930806   1.764385   0.000000
    16  N    6.071193   5.120280   4.187760   2.971997   1.368862
    17  C    7.020611   6.157896   5.484136   4.264648   2.896079
    18  H    8.947929   8.374807   8.373129   7.373932   6.615810
    19  H    6.802940   6.268151   6.420095   5.544376   5.159933
    20  H    6.404625   5.995886   5.698503   4.429884   3.863931
    21  H    3.601806   4.053289   4.064967   3.521140   4.650478
    22  H    3.413366   4.105329   4.097777   4.267558   5.737763
    23  H    2.161197   3.218918   3.924587   4.724183   6.472471
    24  H    1.093213   2.115557   3.526201   4.151574   5.787850
    25  H    2.081773   1.088960   2.159527   2.904616   4.247230
    26  H    3.213805   2.099930   1.097776   2.288050   3.467412
    27  H    5.557497   4.555151   3.189260   2.295895   1.145133
    28  H    7.969742   7.118382   6.320437   5.054648   3.521939
                   16         17         18         19         20
    16  N    0.000000
    17  C    1.583027   0.000000
    18  H    5.551463   4.117877   0.000000
    19  H    4.427182   3.439706   2.174121   0.000000
    20  H    3.148281   2.499814   4.016270   3.018135   0.000000
    21  H    5.357049   6.111797   8.278426   6.505373   4.654016
    22  H    6.824411   7.935492  10.494567   8.587646   6.938674
    23  H    7.636388   8.728080  10.885963   8.778693   7.936845
    24  H    6.682892   7.446945   8.869131   6.703099   6.647258
    25  H    5.138692   6.008518   7.879577   5.768032   6.017686
    26  H    4.742879   6.111327   9.105932   7.195545   6.637042
    27  H    2.117175   3.692962   7.621866   6.270734   4.824145
    28  H    2.173609   1.111322   4.499739   4.280177   3.001401
                   21         22         23         24         25
    21  H    0.000000
    22  H    2.475964   0.000000
    23  H    3.983889   2.442164   0.000000
    24  H    4.070473   4.126714   2.640336   0.000000
    25  H    4.829579   5.152951   4.115688   2.395048   0.000000
    26  H    5.083963   4.755991   4.327499   4.147989   2.554848
    27  H    5.165326   5.872604   6.730080   6.431903   4.876833
    28  H    6.743793   8.569022   9.567370   8.447465   7.039033
                   26         27         28
    26  H    0.000000
    27  H    3.461115   0.000000
    28  H    6.909155   4.074894   0.000000
 Stoichiometry    C13H11NS3
 Framework group  C1[X(C13H11NS3)]
 Deg. of freedom    78
 Full point group                 C1      NOp   1
 Largest Abelian subgroup         C1      NOp   1
 Largest concise Abelian subgroup C1      NOp   1
                         Standard orientation:                         
 ---------------------------------------------------------------------
 Center     Atomic      Atomic             Coordinates (Angstroms)
 Number     Number       Type             X           Y           Z
 ---------------------------------------------------------------------
      1         16           0       -5.199135   -0.345747    0.389507
      2          6           0       -3.404984    0.272125    0.278039
      3          6           0       -2.716871   -0.943019    0.558189
      4          6           0       -1.883706   -1.258974   -0.363141
      5         16           0       -0.264567   -1.235467    0.208349
      6         16           0        0.320994   -0.268291   -1.499198
      7          6           0        1.748787    0.302425   -0.774381
      8          6           0        2.800551   -0.394649   -1.243584
      9          6           0        4.196846   -0.447287   -0.919059
     10          6           0        4.636264   -0.750867    0.304008
     11          6           0        3.749490   -0.844884    1.431230
     12          6           0        2.979806    0.177506    1.839203
     13          6           0        2.625236    1.454012    1.130090
     14          6           0        1.547201    1.343130    0.266280
     15          6           0        0.077543    2.257730   -0.075281
     16          7           0       -1.275099    2.125675   -0.238700
     17          6           0       -2.688321    1.412492   -0.226427
     18          1           0       -5.153035   -1.643519    1.015705
     19          1           0       -3.009855   -1.612092    1.379837
     20          1           0       -2.026506   -0.728885   -1.333484
     21          1           0        2.562563   -1.196652   -1.951146
     22          1           0        4.890651   -0.377752   -1.751631
     23          1           0        5.695335   -0.906223    0.492776
     24          1           0        3.668483   -1.821343    1.916082
     25          1           0        2.359029    0.016192    2.719230
     26          1           0        3.035704    2.274032    1.733575
     27          1           0        0.496465    3.274395   -0.395007
     28          1           0       -3.316872    1.955748   -0.964554
 ---------------------------------------------------------------------
 Rotational constants (GHZ):           0.8947495           0.1935854           0.1862837
 Standard basis: 6-31G(2df,p) (6D, 7F)
 There are   594 symmetry adapted cartesian basis functions of A   symmetry.
 There are   543 symmetry adapted basis functions of A   symmetry.
   543 basis functions,   897 primitive gaussians,   594 cartesian basis functions
    72 alpha electrons       72 beta electrons
       nuclear repulsion energy      1485.6307673800 Hartrees.
 NAtoms=   28 NActive=   28 NUniq=   28 SFac= 1.00D+00 NAtFMM=   60 NAOKFM=F Big=F
 Integral buffers will be    131072 words long.
 Raffenetti 2 integral format.
 Two-electron integral symmetry is turned on.
 One-electron integrals computed using PRISM.
 PrsmSu:  requested number of processors reduced to:  12 ShMem   1 Linda.
 NBasis=   543 RedAO= T EigKep=  4.06D-04  NBF=   543
 NBsUse=   543 1.00D-06 EigRej= -1.00D+00 NBFU=   543
 ExpMin= 1.17D-01 ExpMax= 2.19D+04 ExpMxC= 3.30D+03 IAcc=3 IRadAn=         5 AccDes= 0.00D+00
 Harris functional with IExCor=  402 and IRadAn=       5 diagonalized for initial guess.
 HarFok:  IExCor=  402 AccDes= 0.00D+00 IRadAn=         5 IDoV= 1 UseB2=F ITyADJ=14
 ICtDFT=  3500011 ScaDFX=  1.000000  1.000000  1.000000  1.000000
 FoFCou: FMM=F IPFlag=           0 FMFlag=      100000 FMFlg1=           0
         NFxFlg=           0 DoJE=T BraDBF=F KetDBF=T FulRan=T
         wScrn=  0.000000 ICntrl=       500 IOpCl=  0 I1Cent=   200000004 NGrid=           0
         NMat0=    1 NMatS0=      1 NMatT0=    0 NMatD0=    1 NMtDS0=    0 NMtDT0=    0
 Petite list used in FoFCou.
 Requested convergence on RMS density matrix=1.00D-08 within 128 cycles.
 Requested convergence on MAX density matrix=1.00D-06.
 Requested convergence on             energy=1.00D-06.
 No special actions if energy rises.
 Integral accuracy reduced to 1.0D-05 until final iterations.
 EnCoef did     6 forward-backward iterations
 EnCoef did   100 forward-backward iterations
 Initial convergence to 1.0D-05 achieved.  Increase integral accuracy.
 SCF Done:  E(RB3LYP) =  -1750.88005203     A.U. after   20 cycles
            NFock= 20  Conv=0.87D-08     -V/T= 2.0047

 **********************************************************************

            Population analysis using the SCF density.

 **********************************************************************

 Orbital symmetries:
       Occupied  (A) (A) (A) (A) (A) (A) (A) (A) (A) (A) (A) (A)
                 (A) (A) (A) (A) (A) (A) (A) (A) (A) (A) (A) (A)
                 (A) (A) (A) (A) (A) (A) (A) (A) (A) (A) (A) (A)
                 (A) (A) (A) (A) (A) (A) (A) (A) (A) (A) (A) (A)
                 (A) (A) (A) (A) (A) (A) (A) (A) (A) (A) (A) (A)
                 (A) (A) (A) (A) (A) (A) (A) (A) (A) (A) (A) (A)
       Virtual   (A) (A) (A) (A) (A) (A) (A) (A) (A) (A) (A) (A)
                 (A) (A) (A) (A) (A) (A) (A) (A) (A) (A) (A) (A)
                 (A) (A) (A) (A) (A) (A) (A) (A) (A) (A) (A) (A)
                 (A) (A) (A) (A) (A) (A) (A) (A) (A) (A) (A) (A)
                 (A) (A) (A) (A) (A) (A) (A) (A) (A) (A) (A) (A)
                 (A) (A) (A) (A) (A) (A) (A) (A) (A) (A) (A) (A)
                 (A) (A) (A) (A) (A) (A) (A) (A) (A) (A) (A) (A)
                 (A) (A) (A) (A) (A) (A) (A) (A) (A) (A) (A) (A)
                 (A) (A) (A) (A) (A) (A) (A) (A) (A) (A) (A) (A)
                 (A) (A) (A) (A) (A) (A) (A) (A) (A) (A) (A) (A)
                 (A) (A) (A) (A) (A) (A) (A) (A) (A) (A) (A) (A)
                 (A) (A) (A) (A) (A) (A) (A) (A) (A) (A) (A) (A)
                 (A) (A) (A) (A) (A) (A) (A) (A) (A) (A) (A) (A)
                 (A) (A) (A) (A) (A) (A) (A) (A) (A) (A) (A) (A)
                 (A) (A) (A) (A) (A) (A) (A) (A) (A) (A) (A) (A)
                 (A) (A) (A) (A) (A) (A) (A) (A) (A) (A) (A) (A)
                 (A) (A) (A) (A) (A) (A) (A) (A) (A) (A) (A) (A)
                 (A) (A) (A) (A) (A) (A) (A) (A) (A) (A) (A) (A)
                 (A) (A) (A) (A) (A) (A) (A) (A) (A) (A) (A) (A)
                 (A) (A) (A) (A) (A) (A) (A) (A) (A) (A) (A) (A)
                 (A) (A) (A) (A) (A) (A) (A) (A) (A) (A) (A) (A)
                 (A) (A) (A) (A) (A) (A) (A) (A) (A) (A) (A) (A)
                 (A) (A) (A) (A) (A) (A) (A) (A) (A) (A) (A) (A)
                 (A) (A) (A) (A) (A) (A) (A) (A) (A) (A) (A) (A)
                 (A) (A) (A) (A) (A) (A) (A) (A) (A) (A) (A) (A)
                 (A) (A) (A) (A) (A) (A) (A) (A) (A) (A) (A) (A)
                 (A) (A) (A) (A) (A) (A) (A) (A) (A) (A) (A) (A)
                 (A) (A) (A) (A) (A) (A) (A) (A) (A) (A) (A) (A)
                 (A) (A) (A) (A) (A) (A) (A) (A) (A) (A) (A) (A)
                 (A) (A) (A) (A) (A) (A) (A) (A) (A) (A) (A) (A)
                 (A) (A) (A) (A) (A) (A) (A) (A) (A) (A) (A) (A)
                 (A) (A) (A) (A) (A) (A) (A) (A) (A) (A) (A) (A)
                 (A) (A) (A) (A) (A) (A) (A) (A) (A) (A) (A) (A)
                 (A) (A) (A) (A) (A) (A) (A) (A) (A) (A) (A) (A)
                 (A) (A) (A) (A) (A) (A) (A) (A) (A) (A) (A) (A)
                 (A) (A) (A) (A) (A) (A) (A) (A) (A) (A) (A) (A)
                 (A) (A) (A) (A) (A) (A) (A) (A) (A) (A) (A) (A)
                 (A) (A) (A) (A) (A) (A) (A) (A) (A) (A) (A) (A)
                 (A) (A) (A) (A) (A) (A) (A) (A) (A) (A) (A) (A)
                 (A) (A) (A)
 The electronic state is 1-A.
 Alpha  occ. eigenvalues --  -88.89888 -88.88890 -88.87742 -14.37090 -10.28957
 Alpha  occ. eigenvalues --  -10.26982 -10.25332 -10.23760 -10.22108 -10.21620
 Alpha  occ. eigenvalues --  -10.20442 -10.20331 -10.20139 -10.19867 -10.19570
 Alpha  occ. eigenvalues --  -10.19139 -10.19104  -7.96171  -7.95325  -7.94280
 Alpha  occ. eigenvalues --   -5.92617  -5.92295  -5.91817  -5.91721  -5.91476
 Alpha  occ. eigenvalues --   -5.90822  -5.90776  -5.90411  -5.89685  -0.88688
 Alpha  occ. eigenvalues --   -0.86448  -0.85996  -0.82731  -0.79500  -0.78750
 Alpha  occ. eigenvalues --   -0.74130  -0.71943  -0.69980  -0.68364  -0.63370
 Alpha  occ. eigenvalues --   -0.61792  -0.58001  -0.57244  -0.54926  -0.53847
 Alpha  occ. eigenvalues --   -0.50017  -0.48305  -0.47412  -0.46881  -0.45932
 Alpha  occ. eigenvalues --   -0.45468  -0.44878  -0.44117  -0.42372  -0.41100
 Alpha  occ. eigenvalues --   -0.39549  -0.38953  -0.37069  -0.35544  -0.34783
 Alpha  occ. eigenvalues --   -0.34369  -0.32672  -0.31181  -0.30080  -0.29746
 Alpha  occ. eigenvalues --   -0.27584  -0.25590  -0.24778  -0.23277  -0.23091
 Alpha  occ. eigenvalues --   -0.20255  -0.17292
 Alpha virt. eigenvalues --   -0.09774  -0.06673  -0.04475  -0.03666  -0.02510
 Alpha virt. eigenvalues --   -0.01741   0.01263   0.02820   0.03388   0.04071
 Alpha virt. eigenvalues --    0.06170   0.07609   0.10082   0.11375   0.11964
 Alpha virt. eigenvalues --    0.12870   0.13692   0.13982   0.14470   0.14819
 Alpha virt. eigenvalues --    0.16359   0.17223   0.17482   0.18034   0.21606
 Alpha virt. eigenvalues --    0.22022   0.23237   0.24822   0.26337   0.26929
 Alpha virt. eigenvalues --    0.28052   0.28386   0.29732   0.30089   0.31217
 Alpha virt. eigenvalues --    0.32075   0.32312   0.33773   0.34711   0.34869
 Alpha virt. eigenvalues --    0.35011   0.35655   0.36643   0.37339   0.38559
 Alpha virt. eigenvalues --    0.38908   0.39404   0.40227   0.40850   0.41798
 Alpha virt. eigenvalues --    0.42010   0.43138   0.44189   0.44618   0.45311
 Alpha virt. eigenvalues --    0.46881   0.47384   0.48712   0.48775   0.49946
 Alpha virt. eigenvalues --    0.50575   0.50972   0.52446   0.52796   0.53180
 Alpha virt. eigenvalues --    0.53892   0.54175   0.55110   0.56324   0.56918
 Alpha virt. eigenvalues --    0.57210   0.57962   0.59100   0.59527   0.59933
 Alpha virt. eigenvalues --    0.61433   0.62311   0.62811   0.63962   0.64806
 Alpha virt. eigenvalues --    0.65076   0.65513   0.65566   0.67211   0.67677
 Alpha virt. eigenvalues --    0.68018   0.70443   0.70788   0.71016   0.72326
 Alpha virt. eigenvalues --    0.73596   0.73853   0.74166   0.75096   0.76056
 Alpha virt. eigenvalues --    0.76387   0.77218   0.77880   0.78053   0.78460
 Alpha virt. eigenvalues --    0.79522   0.80959   0.81115   0.81963   0.83385
 Alpha virt. eigenvalues --    0.83457   0.84978   0.85765   0.86076   0.87863
 Alpha virt. eigenvalues --    0.88907   0.89222   0.89376   0.90747   0.91193
 Alpha virt. eigenvalues --    0.92025   0.92633   0.93904   0.95078   0.96110
 Alpha virt. eigenvalues --    0.97768   0.98022   0.98197   1.00340   1.01249
 Alpha virt. eigenvalues --    1.01607   1.02568   1.03886   1.05054   1.05756
 Alpha virt. eigenvalues --    1.07862   1.09091   1.09322   1.11743   1.12290
 Alpha virt. eigenvalues --    1.13651   1.15550   1.16710   1.17833   1.18641
 Alpha virt. eigenvalues --    1.20052   1.21770   1.23266   1.24633   1.25691
 Alpha virt. eigenvalues --    1.26239   1.27245   1.27841   1.28631   1.30279
 Alpha virt. eigenvalues --    1.30675   1.32181   1.34718   1.35057   1.36363
 Alpha virt. eigenvalues --    1.37083   1.37640   1.39078   1.41815   1.43405
 Alpha virt. eigenvalues --    1.45307   1.45684   1.47248   1.47988   1.49544
 Alpha virt. eigenvalues --    1.49955   1.50933   1.51557   1.52374   1.53650
 Alpha virt. eigenvalues --    1.56143   1.57097   1.57977   1.58858   1.59089
 Alpha virt. eigenvalues --    1.61451   1.61948   1.62753   1.64860   1.65536
 Alpha virt. eigenvalues --    1.65908   1.67482   1.67878   1.69763   1.70357
 Alpha virt. eigenvalues --    1.70982   1.71817   1.73637   1.74968   1.76574
 Alpha virt. eigenvalues --    1.77434   1.78904   1.79108   1.79998   1.81932
 Alpha virt. eigenvalues --    1.83320   1.84276   1.84832   1.85945   1.86776
 Alpha virt. eigenvalues --    1.87905   1.88816   1.90204   1.92219   1.92853
 Alpha virt. eigenvalues --    1.93033   1.94586   1.95748   1.97112   1.98523
 Alpha virt. eigenvalues --    1.99014   2.00091   2.01309   2.03395   2.04718
 Alpha virt. eigenvalues --    2.05759   2.08228   2.10096   2.11432   2.11836
 Alpha virt. eigenvalues --    2.15804   2.16823   2.17513   2.18021   2.19413
 Alpha virt. eigenvalues --    2.19830   2.20085   2.23192   2.24052   2.25640
 Alpha virt. eigenvalues --    2.28212   2.28935   2.29490   2.30797   2.31411
 Alpha virt. eigenvalues --    2.31771   2.34646   2.35741   2.38418   2.38472
 Alpha virt. eigenvalues --    2.41257   2.42214   2.43682   2.45169   2.46954
 Alpha virt. eigenvalues --    2.47231   2.49915   2.50413   2.50800   2.52799
 Alpha virt. eigenvalues --    2.54334   2.55706   2.58468   2.60352   2.60500
 Alpha virt. eigenvalues --    2.62772   2.63570   2.66154   2.66729   2.68029
 Alpha virt. eigenvalues --    2.70736   2.73086   2.74346   2.76340   2.79135
 Alpha virt. eigenvalues --    2.79749   2.80256   2.81137   2.81897   2.83603
 Alpha virt. eigenvalues --    2.84693   2.85530   2.87614   2.87942   2.88998
 Alpha virt. eigenvalues --    2.89447   2.90650   2.92218   2.93623   2.94489
 Alpha virt. eigenvalues --    2.97044   2.97817   2.99174   2.99661   3.00786
 Alpha virt. eigenvalues --    3.02059   3.02879   3.07573   3.07854   3.08949
 Alpha virt. eigenvalues --    3.09489   3.10478   3.11985   3.12354   3.13491
 Alpha virt. eigenvalues --    3.15066   3.16067   3.16483   3.18445   3.19710
 Alpha virt. eigenvalues --    3.20169   3.20736   3.22499   3.23914   3.24453
 Alpha virt. eigenvalues --    3.25223   3.26582   3.27790   3.28634   3.29713
 Alpha virt. eigenvalues --    3.30752   3.31569   3.32255   3.32399   3.34964
 Alpha virt. eigenvalues --    3.35888   3.36302   3.37358   3.38075   3.39443
 Alpha virt. eigenvalues --    3.41476   3.42843   3.43491   3.44555   3.44803
 Alpha virt. eigenvalues --    3.45434   3.46940   3.48742   3.50857   3.51276
 Alpha virt. eigenvalues --    3.54446   3.54821   3.56191   3.57370   3.60913
 Alpha virt. eigenvalues --    3.61229   3.62520   3.63817   3.65618   3.66983
 Alpha virt. eigenvalues --    3.68646   3.69206   3.70753   3.73691   3.77120
 Alpha virt. eigenvalues --    3.78805   3.79543   3.81054   3.81800   3.83587
 Alpha virt. eigenvalues --    3.85963   3.88613   3.89164   3.91636   3.93498
 Alpha virt. eigenvalues --    3.95531   3.97375   3.99890   4.01115   4.02980
 Alpha virt. eigenvalues --    4.04751   4.06677   4.08756   4.10504   4.13006
 Alpha virt. eigenvalues --    4.16180   4.17575   4.20183   4.21469   4.22787
 Alpha virt. eigenvalues --    4.23905   4.25248   4.27504   4.28867   4.30635
 Alpha virt. eigenvalues --    4.31617   4.34554   4.35075   4.37219   4.37786
 Alpha virt. eigenvalues --    4.40296   4.41362   4.43233   4.44039   4.45678
 Alpha virt. eigenvalues --    4.45841   4.48016   4.48501   4.50064   4.51037
 Alpha virt. eigenvalues --    4.53578   4.54261   4.56509   4.57810   4.58138
 Alpha virt. eigenvalues --    4.58524   4.60363   4.61121   4.62453   4.63475
 Alpha virt. eigenvalues --    4.64182   4.64868   4.66416   4.67289   4.69591
 Alpha virt. eigenvalues --    4.70058   4.71155   4.73895   4.74265   4.76510
 Alpha virt. eigenvalues --    4.77589   4.79155   4.79766   4.83288   4.83854
 Alpha virt. eigenvalues --    4.84719   4.87360   4.87967   4.88960   4.91707
 Alpha virt. eigenvalues --    4.94671   4.96334   4.99689   5.02074   5.05498
 Alpha virt. eigenvalues --    5.06844   5.10103   5.11735   5.12638   5.14228
 Alpha virt. eigenvalues --    5.15648   5.18767   5.23341   5.24171   5.24825
 Alpha virt. eigenvalues --    5.27935   5.32910   5.34985   5.39055   5.39348
 Alpha virt. eigenvalues --    5.40243   5.41467   5.45552   5.46979   5.53573
 Alpha virt. eigenvalues --    5.54447   5.60044   5.62957   5.73616   5.78504
 Alpha virt. eigenvalues --    5.79735   5.84692   5.89688   5.90583   6.02054
 Alpha virt. eigenvalues --    6.54648   9.42288   9.99743  10.49076  10.69051
 Alpha virt. eigenvalues --   10.81987  11.00417  11.16138  11.28515  11.41705
 Alpha virt. eigenvalues --   11.75319  11.77071  11.89183  12.04970  12.21513
 Alpha virt. eigenvalues --   12.65945
          Condensed to atoms (all electrons):
               1          2          3          4          5          6
     1  S   15.798440   0.247711  -0.060404   0.002953  -0.001504   0.000066
     2  C    0.247711   4.902628   0.446825  -0.040369   0.006951   0.000724
     3  C   -0.060404   0.446825   4.890121   0.623627  -0.090828   0.001426
     4  C    0.002953  -0.040369   0.623627   5.007174   0.224167  -0.003715
     5  S   -0.001504   0.006951  -0.090828   0.224167  15.975009   0.010823
     6  S    0.000066   0.000724   0.001426  -0.003715   0.010823  16.069982
     7  C   -0.000000   0.000001  -0.000036   0.000873  -0.022882   0.253872
     8  C   -0.000000   0.000000  -0.000005   0.000079  -0.002083  -0.069548
     9  C    0.000000  -0.000000  -0.000000  -0.000001  -0.000409   0.010072
    10  C    0.000000  -0.000000  -0.000000  -0.000000  -0.000093   0.001264
    11  C    0.000000   0.000000   0.000000   0.000012   0.002701  -0.000661
    12  C   -0.000000   0.000000   0.000000   0.000038   0.002691   0.002312
    13  C    0.000000  -0.000001   0.000009   0.000008  -0.003621   0.009310
    14  C   -0.000001   0.000162  -0.000081  -0.000123   0.013148  -0.079458
    15  C   -0.000037  -0.000953   0.000216  -0.001081   0.004010  -0.018317
    16  N    0.000744  -0.006077  -0.004111  -0.002671   0.004319  -0.020817
    17  C   -0.029209   0.477204  -0.035464  -0.012284   0.001666  -0.001407
    18  H    0.269034  -0.007735  -0.008185   0.000122  -0.000122   0.000003
    19  H   -0.002449  -0.046761   0.353248  -0.041897  -0.003691   0.000240
    20  H    0.004276  -0.025040  -0.048710   0.377587  -0.063412   0.001630
    21  H   -0.000000  -0.000000  -0.000000  -0.000015   0.001427  -0.024643
    22  H   -0.000000   0.000000  -0.000000   0.000000   0.000000  -0.000739
    23  H   -0.000000   0.000000   0.000000   0.000000   0.000003   0.000025
    24  H   -0.000000  -0.000000   0.000000   0.000000   0.000115   0.000074
    25  H   -0.000000  -0.000000  -0.000003   0.000003   0.001160   0.000166
    26  H    0.000000  -0.000000   0.000000   0.000000   0.000163  -0.000537
    27  H    0.000001  -0.000059  -0.000005  -0.000018   0.000572   0.000076
    28  H   -0.000118  -0.070944   0.004180   0.001362  -0.000207   0.000072
               7          8          9         10         11         12
     1  S   -0.000000  -0.000000   0.000000   0.000000   0.000000  -0.000000
     2  C    0.000001   0.000000  -0.000000  -0.000000   0.000000   0.000000
     3  C   -0.000036  -0.000005  -0.000000  -0.000000   0.000000   0.000000
     4  C    0.000873   0.000079  -0.000001  -0.000000   0.000012   0.000038
     5  S   -0.022882  -0.002083  -0.000409  -0.000093   0.002701   0.002691
     6  S    0.253872  -0.069548   0.010072   0.001264  -0.000661   0.002312
     7  C    4.630436   0.599988  -0.001860  -0.012240   0.001594  -0.010165
     8  C    0.599988   4.964969   0.364616  -0.004845  -0.028990  -0.001018
     9  C   -0.001860   0.364616   4.890811   0.644980  -0.001415  -0.017171
    10  C   -0.012240  -0.004845   0.644980   4.779506   0.391927  -0.006822
    11  C    0.001594  -0.028990  -0.001415   0.391927   4.849662   0.656969
    12  C   -0.010165  -0.001018  -0.017171  -0.006822   0.656969   4.771123
    13  C   -0.033588  -0.013430   0.004495  -0.010118  -0.021261   0.381943
    14  C    0.419926  -0.026220  -0.011037   0.000620  -0.010358  -0.023436
    15  C   -0.047505   0.002737   0.000075  -0.000024  -0.000009   0.001914
    16  N   -0.002472  -0.000023  -0.000000   0.000000  -0.000000  -0.000007
    17  C    0.000081  -0.000002  -0.000000   0.000000   0.000000  -0.000000
    18  H   -0.000000   0.000000  -0.000000  -0.000000   0.000000  -0.000000
    19  H   -0.000000  -0.000000   0.000000  -0.000000   0.000000   0.000000
    20  H    0.000377   0.000007  -0.000000  -0.000000   0.000000  -0.000000
    21  H   -0.029204   0.380958  -0.068731   0.001144   0.000242   0.000102
    22  H    0.002622  -0.046759   0.363313  -0.044250   0.005832   0.000566
    23  H    0.000203   0.005935  -0.042518   0.372750  -0.058220   0.001506
    24  H   -0.000665   0.001814   0.000979  -0.046548   0.356793  -0.034842
    25  H    0.000070   0.000284   0.000343   0.006814  -0.042274   0.375780
    26  H    0.004259   0.000747  -0.000724   0.001098   0.003466  -0.052423
    27  H    0.000887  -0.000179  -0.000009   0.000001   0.000000  -0.000110
    28  H    0.000001  -0.000000  -0.000000   0.000000  -0.000000  -0.000000
              13         14         15         16         17         18
     1  S    0.000000  -0.000001  -0.000037   0.000744  -0.029209   0.269034
     2  C   -0.000001   0.000162  -0.000953  -0.006077   0.477204  -0.007735
     3  C    0.000009  -0.000081   0.000216  -0.004111  -0.035464  -0.008185
     4  C    0.000008  -0.000123  -0.001081  -0.002671  -0.012284   0.000122
     5  S   -0.003621   0.013148   0.004010   0.004319   0.001666  -0.000122
     6  S    0.009310  -0.079458  -0.018317  -0.020817  -0.001407   0.000003
     7  C   -0.033588   0.419926  -0.047505  -0.002472   0.000081  -0.000000
     8  C   -0.013430  -0.026220   0.002737  -0.000023  -0.000002   0.000000
     9  C    0.004495  -0.011037   0.000075  -0.000000  -0.000000  -0.000000
    10  C   -0.010118   0.000620  -0.000024   0.000000   0.000000  -0.000000
    11  C   -0.021261  -0.010358  -0.000009  -0.000000   0.000000   0.000000
    12  C    0.381943  -0.023436   0.001914  -0.000007  -0.000000  -0.000000
    13  C    5.143855   0.576792  -0.037295   0.000303   0.000011   0.000000
    14  C    0.576792   4.966007   0.270349  -0.021266  -0.000868   0.000000
    15  C   -0.037295   0.270349   4.929083   0.633778  -0.042249   0.000000
    16  N    0.000303  -0.021266   0.633778   6.350486   0.376016  -0.000001
    17  C    0.000011  -0.000868  -0.042249   0.376016   4.966145   0.000311
    18  H    0.000000   0.000000   0.000000  -0.000001   0.000311   0.578175
    19  H   -0.000000  -0.000000  -0.000005   0.000017   0.004036   0.003029
    20  H   -0.000001  -0.000084  -0.000284  -0.000697   0.008460   0.000062
    21  H    0.000033   0.006153  -0.000017   0.000001   0.000000  -0.000000
    22  H   -0.000219   0.000361   0.000004  -0.000000  -0.000000   0.000000
    23  H    0.000668  -0.000092   0.000000  -0.000000  -0.000000   0.000000
    24  H    0.005471   0.000524   0.000004  -0.000000  -0.000000   0.000000
    25  H   -0.066986  -0.007396   0.000065   0.000011  -0.000000  -0.000000
    26  H    0.345245  -0.034641  -0.001925  -0.000010   0.000000  -0.000000
    27  H    0.003396  -0.068244   0.344386  -0.030961   0.002921  -0.000000
    28  H    0.000000  -0.000047   0.002336  -0.041635   0.380440  -0.000041
              19         20         21         22         23         24
     1  S   -0.002449   0.004276  -0.000000  -0.000000  -0.000000  -0.000000
     2  C   -0.046761  -0.025040  -0.000000   0.000000   0.000000  -0.000000
     3  C    0.353248  -0.048710  -0.000000  -0.000000   0.000000   0.000000
     4  C   -0.041897   0.377587  -0.000015   0.000000   0.000000   0.000000
     5  S   -0.003691  -0.063412   0.001427   0.000000   0.000003   0.000115
     6  S    0.000240   0.001630  -0.024643  -0.000739   0.000025   0.000074
     7  C   -0.000000   0.000377  -0.029204   0.002622   0.000203  -0.000665
     8  C   -0.000000   0.000007   0.380958  -0.046759   0.005935   0.001814
     9  C    0.000000  -0.000000  -0.068731   0.363313  -0.042518   0.000979
    10  C   -0.000000  -0.000000   0.001144  -0.044250   0.372750  -0.046548
    11  C    0.000000   0.000000   0.000242   0.005832  -0.058220   0.356793
    12  C    0.000000  -0.000000   0.000102   0.000566   0.001506  -0.034842
    13  C   -0.000000  -0.000001   0.000033  -0.000219   0.000668   0.005471
    14  C   -0.000000  -0.000084   0.006153   0.000361  -0.000092   0.000524
    15  C   -0.000005  -0.000284  -0.000017   0.000004   0.000000   0.000004
    16  N    0.000017  -0.000697   0.000001  -0.000000  -0.000000  -0.000000
    17  C    0.004036   0.008460   0.000000  -0.000000  -0.000000  -0.000000
    18  H    0.003029   0.000062  -0.000000   0.000000   0.000000   0.000000
    19  H    0.616232   0.006963  -0.000000  -0.000000   0.000000   0.000000
    20  H    0.006963   0.592376  -0.000006   0.000000   0.000000   0.000000
    21  H   -0.000000  -0.000006   0.599461  -0.000638  -0.000268   0.000081
    22  H   -0.000000   0.000000  -0.000638   0.626053  -0.008129  -0.000257
    23  H    0.000000   0.000000  -0.000268  -0.008129   0.621436   0.000601
    24  H    0.000000   0.000000   0.000081  -0.000257   0.000601   0.619545
    25  H   -0.000000  -0.000000   0.000018   0.000014  -0.000165  -0.007895
    26  H   -0.000000  -0.000000   0.000009  -0.000009   0.000030  -0.000286
    27  H   -0.000000  -0.000006   0.000005  -0.000000  -0.000000  -0.000000
    28  H   -0.000160   0.000068   0.000000  -0.000000  -0.000000  -0.000000
              25         26         27         28
     1  S   -0.000000   0.000000   0.000001  -0.000118
     2  C   -0.000000  -0.000000  -0.000059  -0.070944
     3  C   -0.000003   0.000000  -0.000005   0.004180
     4  C    0.000003   0.000000  -0.000018   0.001362
     5  S    0.001160   0.000163   0.000572  -0.000207
     6  S    0.000166  -0.000537   0.000076   0.000072
     7  C    0.000070   0.004259   0.000887   0.000001
     8  C    0.000284   0.000747  -0.000179  -0.000000
     9  C    0.000343  -0.000724  -0.000009  -0.000000
    10  C    0.006814   0.001098   0.000001   0.000000
    11  C   -0.042274   0.003466   0.000000  -0.000000
    12  C    0.375780  -0.052423  -0.000110  -0.000000
    13  C   -0.066986   0.345245   0.003396   0.000000
    14  C   -0.007396  -0.034641  -0.068244  -0.000047
    15  C    0.000065  -0.001925   0.344386   0.002336
    16  N    0.000011  -0.000010  -0.030961  -0.041635
    17  C   -0.000000   0.000000   0.002921   0.380440
    18  H   -0.000000  -0.000000  -0.000000  -0.000041
    19  H   -0.000000  -0.000000  -0.000000  -0.000160
    20  H   -0.000000  -0.000000  -0.000006   0.000068
    21  H    0.000018   0.000009   0.000005   0.000000
    22  H    0.000014  -0.000009  -0.000000  -0.000000
    23  H   -0.000165   0.000030  -0.000000  -0.000000
    24  H   -0.007895  -0.000286  -0.000000  -0.000000
    25  H    0.623137   0.000411  -0.000002   0.000000
    26  H    0.000411   0.618200   0.001008   0.000000
    27  H   -0.000002   0.001008   0.595746  -0.000037
    28  H    0.000000   0.000000  -0.000037   0.578508
 Mulliken charges:
               1
     1  S   -0.229503
     2  C    0.115733
     3  C   -0.071821
     4  C   -0.135830
     5  S   -0.060075
     6  S   -0.142297
     7  C    0.245429
     8  C   -0.129036
     9  C   -0.135811
    10  C   -0.075163
    11  C   -0.106011
    12  C   -0.048949
    13  C   -0.285021
    14  C    0.029309
    15  C   -0.039259
    16  N   -0.234928
    17  C   -0.095810
    18  H    0.165347
    19  H    0.111197
    20  H    0.146435
    21  H    0.133888
    22  H    0.102237
    23  H    0.106234
    24  H    0.104490
    25  H    0.116446
    26  H    0.115919
    27  H    0.150630
    28  H    0.146220
 Sum of Mulliken charges =  -0.00000
 Mulliken charges with hydrogens summed into heavy atoms:
               1
     1  S   -0.064156
     2  C    0.115733
     3  C    0.039376
     4  C    0.010605
     5  S   -0.060075
     6  S   -0.142297
     7  C    0.245429
     8  C    0.004851
     9  C   -0.033574
    10  C    0.031071
    11  C   -0.001520
    12  C    0.067497
    13  C   -0.169102
    14  C    0.029309
    15  C    0.111371
    16  N   -0.234928
    17  C    0.050410
 Electronic spatial extent (au):  <R**2>=           5873.1079
 Charge=             -0.0000 electrons
 Dipole moment (field-independent basis, Debye):
    X=              2.4519    Y=             -0.7753    Z=              0.9121  Tot=              2.7286
 Quadrupole moment (field-independent basis, Debye-Ang):
   XX=           -113.1684   YY=           -117.9990   ZZ=           -117.2592
   XY=              6.3411   XZ=             -1.5060   YZ=             -3.6619
 Traceless Quadrupole moment (field-independent basis, Debye-Ang):
   XX=              2.9738   YY=             -1.8568   ZZ=             -1.1170
   XY=              6.3411   XZ=             -1.5060   YZ=             -3.6619
 Octapole moment (field-independent basis, Debye-Ang**2):
  XXX=             77.1293  YYY=             -1.7529  ZZZ=              0.6760  XYY=             -3.3147
  XXY=            -41.4802  XXZ=              0.6751  XZZ=              6.5695  YZZ=             -4.7759
  YYZ=              7.1747  XYZ=             16.8152
 Hexadecapole moment (field-independent basis, Debye-Ang**3):
 XXXX=          -6400.5177 YYYY=          -1029.8151 ZZZZ=           -755.3686 XXXY=             76.4502
 XXXZ=            -62.8879 YYYX=             57.3285 YYYZ=            -18.2915 ZZZX=             -7.5695
 ZZZY=             -8.4391 XXYY=          -1155.1071 XXZZ=          -1169.8748 YYZZ=           -285.9076
 XXYZ=            -73.9795 YYXZ=             -2.0987 ZZXY=              9.0328
 N-N= 1.485630767380D+03 E-N=-7.100288599871D+03  KE= 1.742637017079D+03
 PrsmSu:  requested number of processors reduced to:  13 ShMem   1 Linda.
 Calling FoFJK, ICntrl=      2127 FMM=F ISym2X=0 I1Cent= 0 IOpClX= 0 NMat=1 NMatS=1 NMatT=0.
 ***** Axes restored to original set *****
 -------------------------------------------------------------------
 Center     Atomic                   Forces (Hartrees/Bohr)
 Number     Number              X              Y              Z
 -------------------------------------------------------------------
      1       16           0.001865915    0.024833747   -0.004825112
      2        6          -0.003590237   -0.012647474    0.005465199
      3        6          -0.069778568    0.062090847    0.019834993
      4        6           0.066685942   -0.033216437   -0.028892747
      5       16          -0.001369242   -0.055711335    0.018750064
      6       16          -0.004898336   -0.005735053   -0.047324437
      7        6          -0.011624016    0.006283468    0.017022113
      8        6           0.004412715   -0.013366582   -0.002540945
      9        6           0.017132151    0.000138601    0.012043559
     10        6           0.016427985   -0.002099195   -0.003040283
     11        6          -0.015378815    0.017538766    0.010107527
     12        6          -0.002437786   -0.027509477   -0.016175039
     13        6          -0.017001343    0.015622623    0.012912110
     14        6           0.004333618   -0.001513782   -0.021836106
     15        6          -0.020999552    0.014805256   -0.028042823
     16        7           0.014332675   -0.019343911    0.031210862
     17        6          -0.004216543   -0.009711523   -0.016473850
     18        1           0.038706381    0.014999948   -0.001872115
     19        1           0.015061012    0.002012970    0.016583858
     20        1          -0.005551020   -0.008790736    0.013500494
     21        1           0.004867882    0.008574923   -0.002996699
     22        1           0.000783044   -0.003595406   -0.000538526
     23        1          -0.000473843   -0.004919708   -0.002047900
     24        1           0.004407473    0.002676504    0.011265656
     25        1          -0.000951814    0.003320094    0.000876921
     26        1          -0.005533223    0.020262373   -0.015205596
     27        1          -0.032614787    0.000416130   -0.002782860
     28        1           0.007402332    0.004584368    0.025021680
 -------------------------------------------------------------------
 Cartesian Forces:  Max     0.069778568 RMS     0.020421069

 GradGradGradGradGradGradGradGradGradGradGradGradGradGradGradGradGradGrad
 Berny optimization.
 FormGI is forming the generalized inverse of G from B-inverse, IUseBI=4.
 Internal  Forces:  Max     0.116429960 RMS     0.025557021
 Search for a local minimum.
 Step number   1 out of a maximum of  141
 All quantities printed in internal units (Hartrees-Bohrs-Radians)
 Mixed Optimization -- RFO/linear search
 Second derivative matrix not updated -- first step.
 ITU=  0
     Eigenvalues ---    0.00230   0.00463   0.00931   0.01058   0.01272
     Eigenvalues ---    0.01430   0.01494   0.01592   0.01641   0.01745
     Eigenvalues ---    0.01906   0.01959   0.02072   0.02152   0.02284
     Eigenvalues ---    0.02418   0.02444   0.02477   0.02759   0.02790
     Eigenvalues ---    0.02963   0.03852   0.05179   0.06465   0.09874
     Eigenvalues ---    0.12712   0.13392   0.14079   0.15526   0.15686
     Eigenvalues ---    0.15784   0.15810   0.15920   0.15932   0.15964
     Eigenvalues ---    0.15972   0.15993   0.16000   0.17274   0.18265
     Eigenvalues ---    0.18510   0.19548   0.19709   0.20104   0.21172
     Eigenvalues ---    0.22034   0.23011   0.23376   0.24315   0.24438
     Eigenvalues ---    0.24566   0.24879   0.25016   0.29146   0.29334
     Eigenvalues ---    0.30807   0.32089   0.32460   0.32495   0.33547
     Eigenvalues ---    0.33752   0.33929   0.34166   0.34444   0.34933
     Eigenvalues ---    0.35171   0.35280   0.35596   0.38130   0.39305
     Eigenvalues ---    0.39469   0.41414   0.46669   0.50488   0.52455
     Eigenvalues ---    0.56054   0.56744   0.71320
 RFO step:  Lambda=-1.92125453D-01 EMin= 2.30000000D-03
 Linear search not attempted -- first point.
 Maximum step size (   0.300) exceeded in Quadratic search.
    -- Step size scaled by   0.531
 Iteration  1 RMS(Cart)=  0.14210554 RMS(Int)=  0.00451978
 Iteration  2 RMS(Cart)=  0.01116577 RMS(Int)=  0.00049218
 Iteration  3 RMS(Cart)=  0.00002469 RMS(Int)=  0.00049206
 Iteration  4 RMS(Cart)=  0.00000002 RMS(Int)=  0.00049206
 Variable       Old X    -DE/DX   Delta X   Delta X   Delta X     New X
                                 (Linear)    (Quad)   (Total)
    R1        3.59206  -0.01992   0.00000  -0.02727  -0.02727   3.56478
    R2        2.72439  -0.03762   0.00000  -0.05131  -0.05131   2.67309
    R3        2.69149   0.03371   0.00000   0.02956   0.02931   2.72080
    R4        2.71788  -0.05141   0.00000  -0.05170  -0.05235   2.66553
    R5        2.42213   0.11643   0.00000   0.07011   0.07026   2.49238
    R6        2.07750  -0.00603   0.00000  -0.00605  -0.00605   2.07145
    R7        3.24503   0.03552   0.00000   0.04095   0.04135   3.28638
    R8        2.10681  -0.01595   0.00000  -0.01651  -0.01651   2.09031
    R9        3.87003   0.01708   0.00000   0.02366   0.02405   3.89408
   R10        3.21235   0.03750   0.00000   0.04146   0.04203   3.25438
   R11        2.54396   0.02198   0.00000   0.01583   0.01580   2.55977
   R12        2.80717   0.01086   0.00000   0.01129   0.01163   2.81880
   R13        2.71077   0.02809   0.00000   0.02505   0.02495   2.73572
   R14        2.07051  -0.00422   0.00000  -0.00420  -0.00420   2.06632
   R15        2.52202   0.00746   0.00000   0.00618   0.00623   2.52824
   R16        2.05223   0.00252   0.00000   0.00245   0.00245   2.05468
   R17        2.71611   0.01702   0.00000   0.01652   0.01665   2.73276
   R18        2.05399   0.00166   0.00000   0.00162   0.00162   2.05561
   R19        2.53824  -0.01668   0.00000  -0.01244  -0.01249   2.52576
   R20        2.06587  -0.00222   0.00000  -0.00220  -0.00220   2.06368
   R21        2.83964   0.00351   0.00000   0.00114   0.00100   2.84065
   R22        2.05784   0.00239   0.00000   0.00234   0.00234   2.06018
   R23        2.61891  -0.02338   0.00000  -0.01873  -0.01866   2.60024
   R24        2.07450  -0.00384   0.00000  -0.00383  -0.00383   2.07066
   R25        3.33420  -0.03353   0.00000  -0.05702  -0.05712   3.27708
   R26        2.58678  -0.10057   0.00000  -0.08062  -0.08110   2.50567
   R27        2.16399  -0.02918   0.00000  -0.03203  -0.03203   2.13196
   R28        2.99149  -0.06813   0.00000  -0.09016  -0.09079   2.90069
   R29        2.10009  -0.01558   0.00000  -0.01600  -0.01600   2.08409
    A1        1.86282  -0.04800   0.00000  -0.07236  -0.07236   1.79047
    A2        1.73874   0.06942   0.00000   0.08565   0.08643   1.82517
    A3        2.41678  -0.07218   0.00000  -0.08619  -0.08607   2.33071
    A4        2.09985   0.00373   0.00000   0.00371   0.00296   2.10281
    A5        1.96381   0.01585   0.00000   0.02507   0.02520   1.98901
    A6        2.13825  -0.00748   0.00000  -0.01271  -0.01288   2.12537
    A7        2.16572  -0.00656   0.00000  -0.00986  -0.00989   2.15582
    A8        1.95014   0.04075   0.00000   0.07043   0.06956   2.01970
    A9        2.00994  -0.01279   0.00000  -0.01267  -0.01291   1.99703
   A10        1.98660  -0.01283   0.00000  -0.01347  -0.01378   1.97282
   A11        1.56937  -0.01391   0.00000   0.00707   0.00950   1.57887
   A12        1.61401  -0.01167   0.00000  -0.00732  -0.00704   1.60697
   A13        1.91109   0.04003   0.00000   0.03774   0.03692   1.94801
   A14        2.00417  -0.01096   0.00000   0.00121   0.00231   2.00648
   A15        2.36450  -0.02845   0.00000  -0.03775  -0.03813   2.32637
   A16        2.34708  -0.00716   0.00000  -0.00587  -0.00588   2.34120
   A17        2.02017  -0.00200   0.00000  -0.00454  -0.00461   2.01555
   A18        1.90780   0.01015   0.00000   0.01274   0.01267   1.92047
   A19        2.13668   0.01371   0.00000   0.01774   0.01779   2.15447
   A20        2.03317  -0.00576   0.00000  -0.00694  -0.00696   2.02620
   A21        2.10226  -0.00754   0.00000  -0.01043  -0.01046   2.09181
   A22        2.12994   0.00133   0.00000   0.00462   0.00484   2.13479
   A23        2.10888  -0.00287   0.00000  -0.00559  -0.00571   2.10317
   A24        2.04385   0.00155   0.00000   0.00108   0.00097   2.04482
   A25        2.14357  -0.00508   0.00000  -0.00688  -0.00713   2.13644
   A26        2.03977   0.00541   0.00000   0.00775   0.00789   2.04766
   A27        2.09752  -0.00040   0.00000  -0.00096  -0.00085   2.09668
   A28        2.26332   0.00036   0.00000  -0.00408  -0.00460   2.25872
   A29        2.04808   0.00164   0.00000   0.00537   0.00565   2.05373
   A30        1.95270  -0.00134   0.00000   0.00056   0.00075   1.95345
   A31        1.99294   0.01764   0.00000   0.02753   0.02758   2.02052
   A32        1.86179   0.01418   0.00000   0.02436   0.02470   1.88649
   A33        2.33681  -0.03151   0.00000  -0.04951  -0.04972   2.28709
   A34        1.96833   0.02325   0.00000   0.02989   0.03009   1.99842
   A35        1.91833   0.05072   0.00000   0.06520   0.06534   1.98367
   A36        2.38493  -0.07486   0.00000  -0.09696  -0.09732   2.28760
   A37        2.49177   0.02803   0.00000   0.03423   0.03401   2.52579
   A38        1.78191   0.00044   0.00000   0.00631   0.00606   1.78797
   A39        1.99743  -0.02611   0.00000  -0.03497  -0.03526   1.96217
   A40        2.75102   0.01051   0.00000   0.00075  -0.00029   2.75073
   A41        2.50609  -0.00501   0.00000  -0.01510  -0.01617   2.48992
   A42        1.91637   0.01902   0.00000   0.03279   0.03308   1.94945
   A43        1.85411  -0.01244   0.00000  -0.01395  -0.01371   1.84040
    D1        0.24052  -0.00836   0.00000  -0.01646  -0.01581   0.22472
    D2        3.11141   0.00620   0.00000   0.01057   0.00991   3.12132
    D3        2.16721   0.00111   0.00000   0.00437   0.00586   2.17307
    D4       -0.79361  -0.00890   0.00000  -0.00942  -0.00820  -0.80181
    D5       -0.76754   0.00766   0.00000   0.00481   0.00448  -0.76306
    D6        2.55482  -0.00236   0.00000  -0.00898  -0.00958   2.54525
    D7        2.95976  -0.01471   0.00000  -0.03394  -0.03309   2.92667
    D8       -0.33274   0.00289   0.00000   0.00913   0.00980  -0.32294
    D9       -0.49220   0.00520   0.00000   0.00126   0.00140  -0.49080
   D10        2.49849   0.02280   0.00000   0.04433   0.04429   2.54278
   D11        2.01339   0.00830   0.00000   0.04177   0.04206   2.05545
   D12       -0.28849  -0.00101   0.00000   0.00396   0.00373  -0.28476
   D13       -1.31230   0.01844   0.00000   0.05555   0.05612  -1.25618
   D14        2.66900   0.00914   0.00000   0.01775   0.01780   2.68680
   D15       -2.37537   0.01074   0.00000   0.00728   0.00675  -2.36862
   D16       -0.06178   0.01945   0.00000   0.04420   0.04423  -0.01755
   D17        2.79168  -0.08894   0.00000  -0.16317  -0.16150   2.63018
   D18        1.84502   0.01846   0.00000   0.03282   0.03186   1.87688
   D19       -1.22164   0.01316   0.00000   0.02169   0.02036  -1.20128
   D20       -3.02283  -0.01591   0.00000  -0.02822  -0.02800  -3.05083
   D21       -0.03583  -0.00555   0.00000  -0.00499  -0.00490  -0.04072
   D22        0.02172  -0.00671   0.00000  -0.00999  -0.00999   0.01173
   D23        3.00872   0.00365   0.00000   0.01324   0.01311   3.02183
   D24        2.78252   0.00524   0.00000  -0.00201  -0.00251   2.78000
   D25       -0.49432  -0.00731   0.00000  -0.02233  -0.02323  -0.51754
   D26       -0.25826  -0.00627   0.00000  -0.02225  -0.02227  -0.28053
   D27        2.74809  -0.01881   0.00000  -0.04256  -0.04298   2.70511
   D28        1.01058  -0.00022   0.00000   0.00602   0.00598   1.01656
   D29       -2.28990   0.00189   0.00000   0.00749   0.00750  -2.28240
   D30       -1.98353  -0.00943   0.00000  -0.01514  -0.01519  -1.99872
   D31        0.99918  -0.00732   0.00000  -0.01367  -0.01367   0.98551
   D32       -0.17090   0.00178   0.00000   0.00543   0.00541  -0.16549
   D33        3.00615   0.00140   0.00000   0.00158   0.00168   3.00783
   D34        3.13570  -0.00067   0.00000   0.00346   0.00340   3.13910
   D35        0.02957  -0.00106   0.00000  -0.00039  -0.00033   0.02923
   D36       -1.02313   0.00468   0.00000   0.00870   0.00885  -1.01428
   D37        2.04526   0.00362   0.00000   0.00724   0.00746   2.05273
   D38        2.08426   0.00496   0.00000   0.01228   0.01233   2.09659
   D39       -1.13053   0.00391   0.00000   0.01082   0.01095  -1.11959
   D40        0.25360  -0.00958   0.00000  -0.02378  -0.02349   0.23011
   D41       -3.11565  -0.00584   0.00000  -0.01261  -0.01235  -3.12800
   D42       -2.81246  -0.00872   0.00000  -0.02261  -0.02241  -2.83487
   D43        0.10149  -0.00497   0.00000  -0.01143  -0.01127   0.09021
   D44        1.47655   0.00187   0.00000   0.00115   0.00102   1.47757
   D45       -2.04721  -0.00629   0.00000  -0.00798  -0.00746  -2.05467
   D46       -1.44729  -0.00201   0.00000  -0.01008  -0.01017  -1.45746
   D47        1.31213  -0.01017   0.00000  -0.01921  -0.01865   1.29348
   D48       -0.99894   0.00944   0.00000   0.02412   0.02437  -0.97457
   D49        2.32838   0.00841   0.00000   0.02843   0.02850   2.35688
   D50        2.66131   0.00130   0.00000   0.00573   0.00627   2.66758
   D51       -0.29455   0.00027   0.00000   0.01005   0.01039  -0.28416
   D52        1.03936   0.01666   0.00000   0.03937   0.03938   1.07874
   D53       -1.90940   0.00253   0.00000   0.00094   0.00085  -1.90855
   D54       -2.28432   0.01609   0.00000   0.03310   0.03288  -2.25145
   D55        1.05010   0.00196   0.00000  -0.00533  -0.00565   1.04445
   D56        0.15311   0.00196   0.00000  -0.01107  -0.01066   0.14245
   D57        3.08739   0.01970   0.00000   0.03395   0.03358   3.12097
   D58        0.28038   0.01343   0.00000   0.01741   0.01728   0.29766
   D59       -2.71336  -0.00537   0.00000  -0.02714  -0.02647  -2.73983
         Item               Value     Threshold  Converged?
 Maximum Force            0.116430     0.000450     NO 
 RMS     Force            0.025557     0.000300     NO 
 Maximum Displacement     0.542083     0.001800     NO 
 RMS     Displacement     0.141524     0.001200     NO 
 Predicted change in Energy=-8.840580D-02
 GradGradGradGradGradGradGradGradGradGradGradGradGradGradGradGradGradGrad

                          Input orientation:                          
 ---------------------------------------------------------------------
 Center     Atomic      Atomic             Coordinates (Angstroms)
 Number     Number       Type             X           Y           Z
 ---------------------------------------------------------------------
      1         16           0        3.016929    0.948761    0.341938
      2          6           0        4.534828    0.189769    1.165602
      3          6           0        4.114331   -1.131766    1.552530
      4          6           0        4.877728   -2.097096    1.078304
      5         16           0        5.692581   -3.068571    2.268530
      6         16           0        7.435907   -2.977563    1.173610
      7          6           0        8.406138   -3.116355    2.589648
      8          6           0        8.992912   -4.334250    2.675015
      9          6           0        9.804689   -4.994354    3.675546
     10          6           0        9.399229   -5.203676    4.933217
     11          6           0        8.190954   -4.612760    5.464381
     12          6           0        7.991782   -3.291390    5.491585
     13          6           0        8.750313   -2.197265    4.793627
     14          6           0        8.365508   -1.934586    3.498917
     15          6           0        8.078499   -0.434378    2.677757
     16          7           0        7.218798    0.242280    1.928638
     17          6           0        5.898542    0.547720    1.207668
     18          1           0        1.988189    0.046468    0.700372
     19          1           0        3.155273   -1.308975    2.052911
     20          1           0        5.536930   -1.790991    0.244455
     21          1           0        8.736565   -5.036903    1.877398
     22          1           0       10.721476   -5.457084    3.318371
     23          1           0        9.993996   -5.811984    5.611068
     24          1           0        7.399338   -5.293176    5.785250
     25          1           0        7.057715   -2.928940    5.921337
     26          1           0        9.193081   -1.549109    5.558163
     27          1           0        9.078019    0.082453    2.759271
     28          1           0        6.161912    1.246282    0.395921
 ---------------------------------------------------------------------
                    Distance matrix (angstroms):
                    1          2          3          4          5
     1  S    0.000000
     2  C    1.886401   0.000000
     3  C    2.645453   1.439786   0.000000
     4  C    3.644456   2.314078   1.318912   0.000000
     5  S    5.197098   3.629548   2.598988   1.739076   0.000000
     6  S    5.969512   4.295151   3.818824   2.707136   2.060659
     7  C    7.114840   5.286342   4.840848   3.971489   2.732909
     8  C    8.310586   6.528368   5.942762   4.948644   3.557999
     9  C    9.618069   7.806817   7.197705   6.278113   4.753711
    10  C    9.983291   8.182089   7.479281   6.704861   5.039690
    11  C    9.161904   7.410199   6.636170   6.045139   4.340491
    12  C    8.321473   6.540881   5.934202   5.531791   3.965357
    13  C    7.911176   6.052339   5.756068   5.367548   4.060175
    14  C    6.847446   4.962999   4.743990   4.248574   3.153461
    15  C    5.743573   3.903048   4.179368   3.945608   3.577576
    16  N    4.546696   2.790821   3.415724   3.417068   3.661502
    17  C    3.035461   1.410538   2.474472   2.837931   3.774309
    18  H    1.414536   2.592748   2.575828   3.617615   5.087740
    19  H    2.836184   2.221873   1.096165   2.130223   3.095255
    20  H    3.723728   2.403358   2.041917   1.106142   2.398607
    21  H    8.420217   6.743838   6.059759   4.916465   3.645978
    22  H   10.452467   8.648468   8.092029   7.103296   5.665417
    23  H   11.052189   9.251256   8.540880   7.779623   6.099267
    24  H    9.370002   7.720703   6.784137   6.223245   4.497689
    25  H    7.905328   6.221601   5.565951   5.375804   3.902062
    26  H    8.461277   6.634576   6.481741   6.244332   5.038249
    27  H    6.582614   4.815795   5.250595   5.021805   4.650911
    28  H    3.159486   2.087111   3.344464   3.645950   4.727038
                    6          7          8          9         10
     6  S    0.000000
     7  C    1.722142   0.000000
     8  C    2.553249   1.354569   0.000000
     9  C    3.992275   2.581085   1.447682   0.000000
    10  C    4.790079   3.291725   2.453665   1.337889   0.000000
    11  C    4.653459   3.248019   2.915694   2.439197   1.446114
    12  C    4.364904   2.936591   3.165894   3.079726   2.439164
    13  C    3.929510   2.412614   3.018953   3.191476   3.078812
    14  C    2.712750   1.491643   2.613587   3.385944   3.716550
    15  C    3.023768   2.703352   4.005641   4.976816   5.438532
    16  N    3.314301   3.623139   4.964794   6.095970   6.590918
    17  C    3.846072   4.650092   5.963377   7.215469   7.695004
    18  H    6.248708   7.400195   8.494471   9.765204  10.020205
    19  H    4.677733   5.579095   6.604342   7.773654   7.902649
    20  H    2.424334   3.935591   4.931490   6.344106   6.967658
    21  H    2.535332   2.074846   1.093447   2.091898   3.131288
    22  H    4.641443   3.372068   2.159305   1.087288   2.102447
    23  H    5.853956   4.349332   3.436027   2.109645   1.087782
    24  H    5.160486   3.995505   3.623890   3.213386   2.175668
    25  H    4.763014   3.599100   4.032182   4.105530   3.410791
    26  H    4.934819   3.447843   4.013679   3.973414   3.713343
    27  H    3.817663   3.273006   4.418326   5.209758   5.724716
    28  H    4.479814   5.374160   6.659667   7.935446   8.524625
                   11         12         13         14         15
    11  C    0.000000
    12  C    1.336574   0.000000
    13  C    2.568543   1.503205   0.000000
    14  C    3.326580   2.439531   1.375990   0.000000
    15  C    5.023624   4.010943   2.834785   1.734157   0.000000
    16  N    6.084241   5.077294   4.062644   2.918812   1.325946
    17  C    7.071444   6.121467   5.341034   4.183011   2.806758
    18  H    9.103762   8.374971   8.216775   7.240623   6.421304
    19  H    6.921793   6.256698   6.293255   5.443241   5.039198
    20  H    6.500297   5.984134   5.584430   4.314278   3.771066
    21  H    3.652949   4.082139   4.070396   3.520139   4.717718
    22  H    3.423710   4.106620   4.085130   4.241601   5.711681
    23  H    2.170395   3.221263   3.909112   4.706100   6.418107
    24  H    1.092052   2.108169   3.520386   4.176234   5.807382
    25  H    2.080454   1.090201   2.161474   2.926975   4.217304
    26  H    3.224750   2.117332   1.095748   2.252545   3.283542
    27  H    5.490859   4.475295   3.072964   2.263447   1.128183
    28  H    8.008413   7.064324   6.156107   4.960075   3.421214
                   16         17         18         19         20
    16  N    0.000000
    17  C    1.534981   0.000000
    18  H    5.376453   3.974854   0.000000
    19  H    4.351330   3.418666   2.242470   0.000000
    20  H    3.130390   2.555017   4.022148   3.029050   0.000000
    21  H    5.493269   6.300073   8.530335   6.714095   4.841499
    22  H    6.832486   7.985827  10.649569   8.720989   7.054695
    23  H    7.610265   8.752629  11.069298   8.927806   8.051979
    24  H    6.748875   7.571176   9.145945   6.914934   6.814269
    25  H    5.101395   5.970722   7.862037   5.728705   5.986209
    26  H    4.503367   5.846151   8.834843   6.985669   6.454567
    27  H    2.042596   3.568335   7.382821   6.124862   4.730053
    28  H    2.115243   1.102853   4.353413   4.279583   3.104605
                   21         22         23         24         25
    21  H    0.000000
    22  H    2.488539   0.000000
    23  H    4.015243   2.431388   0.000000
    24  H    4.138255   4.141130   2.651745   0.000000
    25  H    4.859576   5.156559   4.126737   2.392663   0.000000
    26  H    5.091281   4.756568   4.337784   4.157778   2.568193
    27  H    5.205967   5.805172   6.611819   6.393114   4.811318
    28  H    6.949966   8.617741   9.576103   8.563913   6.983206
                   26         27         28
    26  H    0.000000
    27  H    3.241763   0.000000
    28  H    6.606885   3.929835   0.000000
 Stoichiometry    C13H11NS3
 Framework group  C1[X(C13H11NS3)]
 Deg. of freedom    78
 Full point group                 C1      NOp   1
 Largest Abelian subgroup         C1      NOp   1
 Largest concise Abelian subgroup C1      NOp   1
                         Standard orientation:                         
 ---------------------------------------------------------------------
 Center     Atomic      Atomic             Coordinates (Angstroms)
 Number     Number       Type             X           Y           Z
 ---------------------------------------------------------------------
      1         16           0       -5.248196   -0.084374    0.433725
      2          6           0       -3.417071    0.327926    0.245313
      3          6           0       -2.730544   -0.829491    0.757222
      4          6           0       -1.877616   -1.366225   -0.093635
      5         16           0       -0.212181   -1.367991    0.407072
      6         16           0        0.370281   -0.749534   -1.470311
      7          6           0        1.749772    0.067438   -0.841557
      8          6           0        2.896752   -0.589335   -1.138111
      9          6           0        4.287391   -0.400569   -0.782763
     10          6           0        4.730425   -0.386225    0.479561
     11          6           0        3.833298   -0.358704    1.613427
[...]
 .00014303,-0.00001142,0.00003809,-0.00000022,0.00000142,0.00000173,-0.
 00000150,-0.00000355,0.00000636,-0.00000761,0.00002245,-0.00002621,-0.
 00001176,-0.00178216,0.12916909,0.11926077,-0.00000841,0.00001656,0.00
 000689,0.00005785,-0.00000770,-0.00000760,-0.00002863,0.00002041,-0.00
 002439,0.00000232,-0.00004397,0.00001332,-0.00011392,-0.00011615,0.000
 09495,0.00012350,0.00051071,-0.00076261,-0.00075659,-0.00260051,-0.000
 89174,-0.01464254,0.00673950,0.00084916,-0.30123410,0.06875353,0.03060
 215,-0.00877108,0.00349641,0.00035809,0.00170365,0.00303819,0.00074656
 ,-0.00035481,-0.00068451,0.00035407,0.00031010,0.00056968,-0.00061081,
 -0.00041529,0.00029034,0.00035384,-0.00000353,-0.00005943,0.00031205,0
 .00002896,0.00008767,-0.00011955,-0.00003101,-0.00002511,0.00001976,-0
 .00000728,0.00000852,-0.00000076,0.00001879,-0.00000548,-0.00000234,0.
 00002860,0.00000981,0.00001058,0.00075215,0.00005801,-0.00054191,0.322
 43112,-0.00001407,-0.00000908,0.00000854,-0.00001207,-0.00001978,0.000
 00204,-0.00000950,0.00002721,0.00001290,0.00001895,-0.00003250,0.00002
 028,-0.00023049,-0.00004114,-0.00006991,0.00031491,0.00004857,0.000738
 62,-0.00237176,0.00131914,-0.00117954,0.00192775,0.00270842,0.00388738
 ,0.06882621,-0.05826448,-0.01999486,0.00915611,0.00320376,0.00285594,0
 .00021012,0.01277856,-0.00363422,-0.00114534,-0.00138990,0.00147270,0.
 00077133,0.00071600,-0.00095984,-0.00026096,0.00077282,0.00031316,0.00
 034537,0.00013998,0.00019575,-0.00018231,0.00001362,-0.00008723,0.0001
 0290,-0.00001483,-0.00002204,-0.00000538,0.00001293,-0.00000300,-0.000
 00277,-0.00000327,-0.00000763,-0.00000096,0.00000113,0.00000611,0.0006
 5212,0.00060313,0.00052950,-0.07771577,0.04574449,0.00000419,0.0000299
 5,-0.00000293,0.00008980,0.00002794,0.00002169,-0.00002047,-0.00001138
 ,-0.00006583,0.00002001,-0.00005563,0.00000142,0.00006701,-0.00017431,
 0.00033988,0.00029124,0.00091156,-0.00206945,-0.00020444,-0.00212719,-
 0.00180374,-0.02766905,0.00861430,0.00159556,0.02457128,-0.01283408,-0
 .05265779,0.03123287,-0.00895464,-0.00495479,-0.00073024,-0.00310554,-
 0.00303283,0.00073272,0.00059021,-0.00073193,-0.00009099,0.00020110,-0
 .00014126,-0.00021077,-0.00065935,0.00013050,-0.00021023,0.00021365,0.
 00003930,0.00017280,-0.00005750,-0.00004040,-0.00016528,0.00003241,0.0
 0008167,-0.00000446,-0.00000725,0.00000516,0.00001037,-0.00000570,-0.0
 0000178,0.00003553,0.00001399,0.00000176,0.00083851,-0.00031174,0.0003
 5036,-0.03065764,0.01629095,0.06182522,-0.00000974,-0.00001615,0.00000
 358,-0.00001231,-0.00000542,-0.00003771,-0.00001032,-0.00000288,0.0000
 3854,-0.00002763,0.00003889,-0.00000675,-0.00000313,0.00002101,-0.0000
 4168,-0.00000273,-0.00023152,0.00013144,-0.00012327,-0.00023469,0.0000
 1490,0.00028072,0.00300517,0.00082045,0.00837672,0.00106526,0.00935571
 ,-0.17666245,0.00837873,-0.13614137,-0.01813049,0.00423856,-0.02219445
 ,-0.00383156,-0.00177944,0.00240237,-0.00034282,-0.00049185,-0.0003642
 2,-0.00000383,0.00083509,0.00017290,0.00011455,-0.00028360,0.00018820,
 -0.00006552,0.00014154,-0.00005682,0.00008556,-0.00006599,-0.00005185,
 -0.00000479,0.00001653,-0.00000685,0.00001877,0.00000394,0.00000717,0.
 00000076,-0.00000809,0.00000407,0.00047799,0.00004836,0.00059067,0.000
 86003,-0.00182098,0.00084512,0.18786377,-0.00000189,0.00001652,0.00001
 191,0.00000750,-0.00002940,0.00000789,-0.00002091,0.00004820,-0.000057
 65,0.00009541,-0.00004696,0.00008686,-0.00048629,-0.00014839,-0.000376
 07,-0.00037085,-0.00014762,0.00096035,-0.00097706,-0.00196029,-0.00151
 863,0.00157072,0.01253029,-0.00390548,-0.00076574,0.00345291,-0.009899
 36,0.00659988,-0.03666555,0.01379629,0.01039826,0.00044318,0.00521949,
 -0.00049678,0.00138018,-0.00211836,0.00009564,0.00084175,-0.00036932,0
 .00019412,0.00089121,0.00086020,0.00021512,0.00013113,0.00018326,-0.00
 007717,-0.00003438,-0.00004967,-0.00001636,0.00001384,-0.00000419,0.00
 000126,-0.00000445,0.00000017,0.00000290,-0.00000055,-0.00000170,-0.00
 000097,0.00001816,0.00000712,0.00068314,-0.00038865,0.00154731,-0.0022
 2953,-0.00667130,0.00156302,-0.01501146,0.02660262,-0.00000785,0.00001
 565,0.00000837,0.00003704,-0.00003504,0.00000623,-0.00003657,0.0000423
 6,-0.00005587,-0.00000335,-0.00002779,0.00004657,-0.00010460,-0.000023
 69,-0.00007285,-0.00012039,0.00013290,0.00011781,-0.00002768,-0.000432
 29,-0.00004225,0.00305962,-0.00237877,-0.00178743,-0.02220846,0.000483
 95,-0.02248097,-0.13053665,0.00804787,-0.20098154,0.00627003,-0.000453
 21,0.00872745,0.00159250,-0.00097565,-0.00023156,0.00014730,0.00021113
 ,-0.00024078,-0.00003327,-0.00002701,-0.00007696,-0.00004683,0.0000301
 2,0.00014439,0.00000772,0.00008257,-0.00003785,-0.00002487,0.00000045,
 0.00001211,-0.00000390,0.00000216,0.00000301,0.00000086,-0.00000441,-0
 .00000394,0.00001435,0.00001211,0.00000757,-0.00062152,0.00002047,-0.0
 0104579,0.00012691,0.00081723,0.00074644,0.14338116,-0.00502274,0.2170
 2085,0.00000221,-0.00003109,-0.00000652,-0.00002413,0.00002423,-0.0000
 4634,0.00003487,0.00000064,0.00006746,-0.00005870,0.00001678,-0.000061
 63,0.00013765,0.00012115,0.00006699,0.00008649,-0.00018080,-0.00010116
 ,0.00005267,0.00075562,0.00031876,-0.00018174,-0.00046654,0.00007962,-
 0.00470915,-0.00026339,-0.00036305,-0.00636992,-0.01237704,0.02563001,
 -0.08129870,-0.03933968,0.07247788,0.00869082,0.01251269,-0.01726887,-
 0.00046125,0.00480450,0.00284060,-0.00014021,-0.00042263,-0.00024164,-
 0.00036179,-0.00012085,-0.00012152,0.00004452,0.00004321,0.00000771,0.
 00007281,-0.00007515,-0.00005835,-0.00000495,0.00001162,-0.00000466,0.
 00000325,0.00000059,0.00000262,-0.00000963,-0.00001479,-0.00000103,0.0
 0027910,0.00003861,0.00011125,0.00014829,0.00181005,0.00076488,0.00088
 423,0.00038850,-0.00074829,0.08316794,0.00002031,0.00001787,-0.0000136
 6,0.00003049,0.00002667,0.00004357,0.00001653,-0.00006343,0.00001077,0
 .00002493,-0.00003001,-0.00004454,-0.00001941,-0.00000710,0.00001958,0
 .00007270,0.00026160,0.00009280,0.00000137,0.00084193,-0.00003930,0.00
 037152,0.00036440,0.00079560,0.00061621,-0.00068714,0.00118809,0.00623
 867,0.00543773,-0.00782264,-0.03963795,-0.10371518,0.11191953,-0.00286
 375,-0.01066402,0.02067519,0.00563333,0.00566271,0.00707685,-0.0004029
 0,-0.00261894,-0.00033467,-0.00126166,0.00052953,-0.00026104,0.0002079
 9,-0.00007828,-0.00003057,-0.00007488,0.00003048,0.00000379,0.00001355
 ,-0.00002706,-0.00000084,0.00000708,0.00001176,0.00001000,-0.00000491,
 0.00000137,-0.00000984,0.00013531,0.00015355,-0.00011838,0.00006991,-0
 .00096726,-0.00006185,0.00007953,0.00042695,0.00032035,0.03374883,0.10
 825298,-0.00000259,-0.00001706,0.00000077,0.00002330,0.00000803,-0.000
 04510,0.00001152,0.00004127,0.00001801,-0.00003616,-0.00003816,-0.0000
 0437,-0.00005376,-0.00000984,-0.00000317,0.00006483,0.00006486,0.00001
 354,0.00011579,0.00038170,-0.00012360,0.00009059,0.00049231,0.00019626
 ,0.00112998,0.00060060,0.00265658,0.00557468,0.00350399,-0.00808184,0.
 06604811,0.11722228,-0.22971045,0.00854749,0.00627386,-0.00872450,0.00
 033972,0.00545547,0.00610314,-0.00011075,-0.00119558,-0.00006487,-0.00
 065610,0.00002040,-0.00002159,0.00006501,0.00010456,-0.00000658,0.0000
 1856,-0.00007396,-0.00006615,-0.00000815,0.00001398,-0.00000357,0.0000
 0963,-0.00000073,0.00000328,0.00000701,-0.00000527,0.00000553,0.000059
 13,0.00005697,-0.00000356,0.00003475,-0.00063741,-0.00021479,0.0007095
 4,-0.00045360,0.00043445,-0.07991773,-0.12930617,0.24045797,-0.0000074
 1,0.00001870,-0.00000702,0.00004206,0.00004385,0.00005338,0.00002418,-
 0.00013161,0.00004858,0.00002902,0.00001444,-0.00003588,0.00006807,0.0
 0007307,0.00002225,0.00010028,0.00004938,0.00003664,-0.00045414,0.0005
 4909,0.00011881,0.00075168,0.00021962,0.00070664,-0.00116691,-0.000491
 58,-0.00090034,0.00189475,0.00563539,0.00159267,-0.01758770,0.00501912
 ,0.00987856,-0.25771714,0.03787261,0.11109524,-0.00164606,0.00239875,0
 .00230196,-0.00115331,-0.00144953,-0.00044560,-0.00030193,0.00059468,-
 0.00028109,0.00018192,-0.00028421,0.00001618,-0.00014156,0.00007861,0.
 00008386,0.00002050,-0.00001317,-0.00001694,0.00000072,0.00002151,-0.0
 0003731,-0.00002216,-0.00000939,-0.00001726,0.00016868,0.00011035,-0.0
 0004971,-0.00024541,-0.00062617,0.00034904,0.00006019,-0.00001628,-0.0
 0007223,-0.00026606,-0.00290417,-0.00208372,0.27660330,0.00008325,-0.0
 0000773,-0.00004027,0.00003959,0.00005442,0.00001363,0.00003588,-0.000
 06128,-0.00001006,0.00003430,-0.00001190,-0.00003333,-0.00008211,-0.00
 002354,0.00001674,0.00016648,0.00039862,0.00017643,-0.00070547,0.00019
 849,-0.00028416,0.00099557,0.00029585,0.00103689,-0.00092377,-0.000308
 65,-0.00082059,0.00305153,0.00435944,0.00833422,0.02182106,0.00141145,
 -0.01055145,0.03745265,-0.05760331,-0.00762180,-0.01510410,0.00657652,
 0.00770878,-0.00163675,-0.00248500,0.00340207,0.00095834,0.00173300,-0
 .00042132,0.00010009,-0.00107697,-0.00004249,-0.00035118,0.00023162,0.
 00029376,0.00003245,-0.00003102,-0.00002576,0.00002517,0.00008186,0.00
 002723,-0.00001077,-0.00000089,-0.00002502,0.00007906,0.00017275,-0.00
 023347,-0.00025388,-0.00070564,-0.00000945,0.00189693,-0.00075751,-0.0
 0076673,-0.00182306,-0.00326042,-0.00317847,-0.04667347,0.05008301,-0.
 00007482,-0.00005547,0.00004545,-0.00006626,0.00005928,-0.00007178,0.0
 0021553,0.00027849,-0.00010894,-0.00013002,-0.00010633,0.00001789,0.00
 004145,0.00006780,0.00009547,0.00021857,-0.00012265,0.00003963,0.00040
 138,0.00069600,0.00057138,0.00059455,-0.00003179,0.00011583,-0.0015916
 6,-0.00019261,-0.00110846,0.00113711,0.00658816,0.00506763,-0.01329685
 ,0.00675447,0.00574274,0.11691585,-0.01520607,-0.09679624,0.02285671,-
 0.00163273,-0.01504733,-0.00058380,0.00358537,0.00009012,-0.00185039,-
 0.00029281,-0.00089896,0.00029678,0.00034817,-0.00007517,0.00026532,-0
 .00023489,-0.00026233,-0.00003464,0.00003682,0.00001218,-0.00019799,-0
 .00011245,-0.00009281,-0.00003698,0.00001656,0.00003911,0.00014138,0.0
 0000064,0.00003498,-0.00027177,-0.00070021,0.00045297,0.00044184,-0.00
 052677,-0.00032847,-0.00230465,-0.00356736,-0.00150867,-0.12285031,0.0
 0371183,0.10341886,-0.00017047,0.00010926,-0.00008047,-0.00061657,-0.0
 0003456,0.00006340,-0.00006151,-0.00015708,-0.00004855,0.00002119,-0.0
 0004405,-0.00015080,-0.00034403,-0.00013084,-0.00005847,-0.00027507,0.
 00187227,0.00156671,0.01075189,-0.00128278,0.00444916,-0.00153041,-0.0
 0109866,-0.00217712,0.00047486,0.00066006,0.00120564,0.00058584,-0.000
 24176,-0.00007403,0.00103606,-0.00276565,0.00097623,0.00544035,-0.0010
 8492,-0.00407948,-0.05410842,0.04671299,0.02147458,0.00570105,0.010386
 09,0.00096936,-0.00753732,0.00048513,-0.00113908,0.00033906,0.00139624
 ,-0.00050537,0.00140549,0.00006556,-0.00086198,-0.00001604,-0.00004297
 ,0.00003332,-0.00004269,-0.00003523,-0.00000061,0.00002425,0.00001706,
 0.00004066,-0.00062200,-0.00059467,0.00067138,0.00013899,0.00025969,-0
 .00006785,0.00020479,0.00020076,-0.00003591,0.00025619,-0.00015917,-0.
 00000527,0.00070853,0.00078821,-0.00042544,0.03794518,-0.00015553,0.00
 015667,0.00012468,0.00046393,-0.00054964,0.00097508,-0.00014667,-0.000
 23948,-0.00017601,0.00003662,-0.00008454,0.00000521,-0.00019735,-0.000
 04538,-0.00004086,0.00026749,0.00034594,0.00044686,0.00198659,0.000842
 06,-0.00020707,-0.00054607,-0.00024237,-0.00045619,0.00040864,0.000144
 31,0.00059206,0.00001497,-0.00049084,-0.00053676,-0.00313712,-0.000886
 69,0.00105046,0.00571099,-0.01757749,-0.00174661,0.04752228,-0.3017255
 4,-0.05607140,0.00262459,-0.00626362,-0.00233903,-0.00133218,-0.000618
 49,0.00111373,-0.00028974,0.00111605,-0.00012704,0.00091563,-0.0001688
 3,0.00067663,0.00003914,-0.00005343,-0.00000906,-0.00007234,-0.0000512
 0,-0.00008046,-0.00000245,0.00002425,0.00000548,-0.00011736,-0.0001476
 2,0.00011920,0.00007932,0.00008675,-0.00007929,0.00013391,0.00010866,-
 0.00004913,0.00081136,0.00026795,0.00074262,-0.00004999,0.00079675,0.0
 0052971,-0.05504382,0.32534261,-0.00003636,0.00014944,0.00005538,-0.00
 056075,0.00001343,0.00015061,-0.00011767,-0.00024190,-0.00025413,0.000
 04615,-0.00003098,0.00012830,-0.00009253,-0.00002145,0.00002030,0.0000
 9518,-0.00032425,-0.00011626,0.00529638,0.00041618,-0.00223493,-0.0010
 0791,-0.00074129,-0.00145460,-0.00010790,0.00026108,0.00040224,0.00081
 553,0.00018894,0.00025232,0.00245492,0.00076198,-0.00219255,-0.0051883
 5,0.02594213,0.00387312,0.01631502,-0.04941541,-0.06001956,0.00762302,
 -0.03063139,-0.00725743,-0.00239612,-0.00182694,0.00007116,0.00072888,
 0.00079482,-0.00024621,-0.00053177,0.00111266,-0.00052940,0.00006757,-
 0.00010535,-0.00003233,0.00000362,0.00002919,0.00000914,0.00004437,0.0
 0003094,-0.00000194,-0.00020112,-0.00045783,0.00045562,0.00006610,0.00
 011418,0.00014599,-0.00013155,0.00007287,0.00011303,-0.00112586,-0.000
 80449,-0.00141636,0.00037365,-0.00066791,0.00039743,-0.02233236,0.0554
 5364,0.06950487,0.00030261,-0.00035752,-0.00066768,-0.00072509,-0.0010
 9673,-0.00007163,0.00033314,0.00048505,0.00087614,-0.00030164,-0.00035
 744,-0.00019488,-0.00007530,0.00042927,-0.00025786,0.00037010,-0.00063
 280,-0.00016216,0.00043572,0.00034742,-0.00017873,0.00001524,-0.000420
 41,0.00007506,0.00006008,0.00008168,0.00000688,0.00006426,0.00000310,-
 0.00004051,0.00001782,-0.00016914,-0.00005477,-0.00075676,0.00059765,-
 0.00036842,-0.00025950,-0.00200446,0.00172609,0.00086134,0.00538941,0.
 00584659,-0.19971009,0.02394413,0.12853736,-0.02335784,0.01672197,0.00
 246294,0.00949553,0.00423431,0.00546938,-0.00026875,0.00026825,-0.0000
 0855,-0.00010553,-0.00016998,-0.00004695,-0.00006062,0.00003313,-0.000
 02625,-0.00003008,-0.00003595,0.00005852,0.00001206,0.00000140,-0.0000
 0292,0.00001448,0.00000423,-0.00000272,0.00002873,0.00002258,0.0000221
 3,0.00004185,-0.00004161,0.00021174,0.00030164,0.00006755,-0.00005083,
 0.21447226,0.00067999,0.00002210,-0.00001504,0.00043801,-0.00144957,-0
 .00042348,0.00008643,-0.00017732,0.00014119,-0.00008389,-0.00011175,-0
 .00004444,-0.00034752,0.00016525,-0.00002403,-0.00035864,-0.00093353,-
 0.00006744,-0.00024326,0.00086663,0.00003390,0.00050059,-0.00000964,0.
 00018875,0.00011019,-0.00001809,-0.00009558,-0.00036821,0.00014645,0.0
 0014282,-0.00005751,-0.00034482,0.00030083,0.00094044,0.00094483,0.000
 49267,-0.00079416,-0.00339404,0.00297314,-0.01362629,0.00607294,0.0145
 3026,0.02401451,-0.05331722,-0.01838953,0.03100277,-0.02085449,-0.0165
 6061,0.00629189,0.00345806,0.00190431,0.00010804,0.00002178,-0.0001341
 0,0.00007333,-0.00000151,0.00002794,-0.00000149,0.00001839,-0.00003798
 ,-0.00000987,-0.00006087,0.00000761,-0.00001729,-0.00005810,-0.0000416
 3,0.00004797,-0.00005042,-0.00003526,0.00004018,-0.00015809,-0.0000600
 9,-0.00003117,-0.00000881,0.00012170,-0.00035809,0.00001020,-0.0001670
 9,-0.04785181,0.06934736,0.00038364,-0.00016541,-0.00036155,0.00023937
 ,-0.00102491,-0.00024256,0.00009858,0.00016406,0.00056810,-0.00009703,
 -0.00031524,-0.00018261,-0.00017509,0.00001054,0.00007249,-0.00021538,
 -0.00106521,0.00022823,-0.00026937,-0.00154010,-0.00098124,-0.00036654
 ,0.00074575,0.00007015,-0.00027033,-0.00010304,-0.00014092,0.00006607,
 -0.00001198,0.00013971,0.00085066,-0.00014847,-0.00041980,-0.00190828,
 0.00011205,-0.00136268,0.00062189,0.00281452,0.00069309,0.01997785,0.0
 0146446,-0.01130963,0.13080087,-0.01998271,-0.14689644,-0.01086294,-0.
 00436336,0.00644038,0.00493740,0.00697070,0.00590996,-0.00014516,0.000
 19074,-0.00007010,-0.00006337,-0.00015556,-0.00004501,-0.00003627,0.00
 003276,0.00000683,-0.00000107,0.00014725,-0.00002819,-0.00005764,0.000
 01366,0.00001541,-0.00010526,0.00000051,0.00001477,-0.00003322,0.00028
 012,0.00008657,0.00012110,0.00007202,0.00002413,0.00061466,0.00007003,
 0.00025109,-0.14311617,0.01541880,0.14756545,0.00008390,-0.00129255,-0
 .00139565,-0.00320960,-0.02891848,-0.00670112,-0.00387069,-0.00130368,
 0.00217311,-0.00015290,0.00016911,0.00048127,0.00013660,0.00009334,0.0
 0001551,-0.00002705,0.00004649,-0.00003468,0.00011743,-0.00009605,-0.0
 0001093,0.00000123,0.00001527,0.00002126,-0.00002283,-0.00002828,0.000
 01612,0.00006626,0.00001293,-0.00000002,0.00001200,-0.00001144,-0.0000
 4711,0.00001786,-0.00004155,-0.00005729,-0.00012501,0.00015729,0.00023
 408,0.00032660,-0.00025886,-0.00021776,-0.00256707,0.00056752,0.002966
 44,-0.00327381,0.03341214,0.01152680,-0.05070162,-0.02984164,-0.004743
 36,-0.00017107,0.00046261,0.00009700,0.00003959,-0.00119539,-0.0002115
 9,-0.00005714,0.00004141,-0.00015081,0.00000544,0.00000844,0.00000168,
 -0.00000378,0.00000160,0.00000894,-0.00001198,0.00001384,-0.00000238,-
 0.00000355,0.00001796,0.00000243,0.00001409,0.00004560,-0.00002261,-0.
 00001085,0.00000759,-0.00004931,-0.00117566,-0.00018512,-0.00098898,0.
 06456363,0.00092138,0.00052384,0.00149004,-0.00064595,-0.01174745,-0.0
 0387914,-0.00181693,0.00090069,-0.00274981,-0.00016364,-0.00029343,0.0
 0026799,0.00026864,0.00022840,0.00004783,0.00016885,-0.00037268,-0.000
 00671,-0.00013156,-0.00005579,-0.00013944,0.00001890,0.00007997,0.0000
 5683,-0.00002452,0.00000935,0.00002680,0.00003544,-0.00001829,-0.00001
 378,-0.00002009,0.00006683,-0.00000114,-0.00004525,0.00000539,0.000122
 19,0.00014589,-0.00004937,-0.00026902,-0.00044314,-0.00011383,0.000369
 10,-0.00092166,0.00285268,-0.00313112,0.00841779,-0.01417197,-0.004612
 53,-0.03464826,-0.30175834,-0.07220310,0.00046687,0.00027915,-0.000309
 64,-0.00008096,0.00016233,0.00006098,-0.00020418,-0.00006284,-0.000099
 70,-0.00000450,0.00002728,-0.00001310,0.00001076,0.00000077,0.00000744
 ,0.00000064,-0.00000011,0.00001240,-0.00001356,-0.00001057,-0.00000655
 ,-0.00001845,-0.00005113,-0.00001290,0.00012093,-0.00009704,0.00009480
 ,0.00050669,-0.00012570,0.00036803,0.02809988,0.32379186,0.00149211,0.
 00238321,-0.00428023,0.00137646,-0.00151454,0.00424007,0.00070448,-0.0
 0274695,0.00840846,0.00025865,0.00180059,0.00068032,-0.00062661,-0.000
 91493,-0.00009817,-0.00063266,0.00082940,-0.00009569,0.00005564,0.0002
 4138,0.00080111,-0.00012396,-0.00024410,-0.00027236,0.00006066,0.00002
 038,-0.00003193,-0.00019420,-0.00001610,-0.00001422,-0.00003114,-0.000
 09085,0.00009337,-0.00001467,0.00012646,-0.00013305,0.00015448,-0.0008
 6382,0.00014630,0.00070612,0.00044578,0.00034614,0.00071477,-0.0020118
 5,0.00104736,0.00656907,-0.01277132,-0.00245486,-0.00708750,-0.0671388
 8,-0.05986388,-0.00108269,-0.00043484,0.00034270,-0.00014073,-0.001496
 94,-0.00049116,0.00069986,0.00021688,0.00026068,0.00005103,-0.00008914
 ,-0.00001324,-0.00000043,0.00001696,-0.00003579,0.00003086,-0.00001372
 ,-0.00001678,0.00003673,-0.00002089,0.00002311,-0.00000114,-0.00006131
 ,0.00013338,-0.00002230,0.00001349,-0.00007490,-0.00004181,-0.00018762
 ,-0.00004564,-0.00291104,0.08452328,0.05139891\\0.00001032,0.00000160,
 0.00000157,-0.00001545,0.00000902,-0.00000345,0.00000269,-0.00001166,0
 .00001013,-0.00001748,0.00001977,0.00001803,0.00003650,-0.00000542,-0.
 00000062,-0.00004008,-0.00001816,-0.00005272,0.00000216,0.00004723,0.0
 0006263,0.00000483,-0.00000444,-0.00000258,-0.00000957,0.00000132,0.00
 000785,0.00000427,0.00000366,-0.00000667,-0.00000662,0.00000685,0.0000
 0160,-0.00000651,-0.00001216,0.00001321,-0.00000048,0.00001288,0.00002
 380,0.00001260,-0.00003405,-0.00004096,-0.00000377,-0.00004245,0.00001
 853,0.00001327,0.00005158,-0.00001872,0.00000560,-0.00001990,0.0000060
 2,-0.00000291,0.00000359,0.00000062,-0.00000550,0.00000054,-0.00000655
 ,0.00000834,-0.00000266,-0.00000496,0.00000369,0.00000024,-0.00000171,
 0.00000043,-0.00000380,-0.00000474,0.00000125,-0.00000122,0.00000166,0
 .00000338,-0.00000066,0.00000107,0.00000271,0.00000328,-0.00000546,-0.
 00000234,0.00000358,-0.00000406,0.00000691,0.00000065,-0.00000857,-0.0
 0000823,-0.00000922,-0.00000499\\\@


 IN THE UNIVERSE THE DIFFICULT THINGS ARE DONE AS IF THEY WERE EASY.

                                                          -- LAO-TSU
 Job cpu time:       0 days 13 hours 18 minutes  7.4 seconds.
 Elapsed time:       0 days  3 hours 19 minutes 33.3 seconds.
 File lengths (MBytes):  RWF=    673 Int=      0 D2E=      0 Chk=     24 Scr=      1
 Normal termination of Gaussian 16 at Wed May 17 07:34:20 2023.
### All Done ###
