### Starting Gaussian ###
 Entering Gaussian System, Link 0=g16
 Initial command:
 /cluster/software/gaussian/gaussian-16-A.03/avx2/g16/l1.exe "/local/scratch/yxie/Gau-11762.inp" -scrdir="/local/scratch/yxie/"
 Entering Link 1 = /cluster/software/gaussian/gaussian-16-A.03/avx2/g16/l1.exe PID=     11763.
  
 Copyright (c) 1988,1990,1992,1993,1995,1998,2003,2009,2016,
            Gaussian, Inc.  All Rights Reserved.
  
 This is part of the Gaussian(R) 16 program.  It is based on
 the Gaussian(R) 09 system (copyright 2009, Gaussian, Inc.),
 the Gaussian(R) 03 system (copyright 2003, Gaussian, Inc.),
 the Gaussian(R) 98 system (copyright 1998, Gaussian, Inc.),
 the Gaussian(R) 94 system (copyright 1995, Gaussian, Inc.),
 the Gaussian 92(TM) system (copyright 1992, Gaussian, Inc.),
 the Gaussian 90(TM) system (copyright 1990, Gaussian, Inc.),
 the Gaussian 88(TM) system (copyright 1988, Gaussian, Inc.),
 the Gaussian 86(TM) system (copyright 1986, Carnegie Mellon
 University), and the Gaussian 82(TM) system (copyright 1983,
 Carnegie Mellon University). Gaussian is a federally registered
 trademark of Gaussian, Inc.
  
 This software contains proprietary and confidential information,
 including trade secrets, belonging to Gaussian, Inc.
  
 This software is provided under written license and may be
 used, copied, transmitted, or stored only in accord with that
 written license.
  
 The following legend is applicable only to US Government
 contracts under FAR:
  
                    RESTRICTED RIGHTS LEGEND
  
 Use, reproduction and disclosure by the US Government is
 subject to restrictions as set forth in subparagraphs (a)
 and (c) of the Commercial Computer Software - Restricted
 Rights clause in FAR 52.227-19.
  
 Gaussian, Inc.
 340 Quinnipiac St., Bldg. 40, Wallingford CT 06492
  
  
 ---------------------------------------------------------------
 Warning -- This program may not be used in any manner that
 competes with the business of Gaussian, Inc. or will provide
 assistance to any competitor of Gaussian, Inc.  The licensee
 of this program is prohibited from giving any competitor of
 Gaussian, Inc. access to this program.  By using this program,
 the user acknowledges that Gaussian, Inc. is engaged in the
 business of creating and licensing software in the field of
 computational chemistry and represents and warrants to the
 licensee that it is not a competitor of Gaussian, Inc. and that
 it will not use this program in any manner prohibited above.
 ---------------------------------------------------------------
  

 Cite this work as:
 Gaussian 16, Revision A.03,
 M. J. Frisch, G. W. Trucks, H. B. Schlegel, G. E. Scuseria, 
 M. A. Robb, J. R. Cheeseman, G. Scalmani, V. Barone, 
 G. A. Petersson, H. Nakatsuji, X. Li, M. Caricato, A. V. Marenich, 
 J. Bloino, B. G. Janesko, R. Gomperts, B. Mennucci, H. P. Hratchian, 
 J. V. Ortiz, A. F. Izmaylov, J. L. Sonnenberg, D. Williams-Young, 
 F. Ding, F. Lipparini, F. Egidi, J. Goings, B. Peng, A. Petrone, 
 T. Henderson, D. Ranasinghe, V. G. Zakrzewski, J. Gao, N. Rega, 
 G. Zheng, W. Liang, M. Hada, M. Ehara, K. Toyota, R. Fukuda, 
 J. Hasegawa, M. Ishida, T. Nakajima, Y. Honda, O. Kitao, H. Nakai, 
 T. Vreven, K. Throssell, J. A. Montgomery, Jr., J. E. Peralta, 
 F. Ogliaro, M. J. Bearpark, J. J. Heyd, E. N. Brothers, K. N. Kudin, 
 V. N. Staroverov, T. A. Keith, R. Kobayashi, J. Normand, 
 K. Raghavachari, A. P. Rendell, J. C. Burant, S. S. Iyengar, 
 J. Tomasi, M. Cossi, J. M. Millam, M. Klene, C. Adamo, R. Cammi, 
 J. W. Ochterski, R. L. Martin, K. Morokuma, O. Farkas, 
 J. B. Foresman, and D. J. Fox, Gaussian, Inc., Wallingford CT, 2016.
 
 ******************************************
 Gaussian 16:  ES64L-G16RevA.03 25-Dec-2016
                17-May-2023 
 ******************************************
 %chk=SC1dCCdCCdCCdCCdNNdCCdCS1.chk
 %NProcShared=20
 Will use up to   20 processors via shared memory.
 -----------------------------
 # opt freq b3lyp/6-31g(2df,p)
 -----------------------------
 1/18=20,19=15,26=3,38=1/1,3;
 2/9=110,12=2,17=6,18=5,40=1/2;
 3/5=1,6=6,7=104,11=2,25=1,30=1,71=1,74=-5/1,2,3;
 4//1;
 5/5=2,38=5/2;
 6/7=2,8=2,9=2,10=2,28=1/1;
 7//1,2,3,16;
 1/18=20,19=15,26=3/3(2);
 2/9=110/2;
 99//99;
 2/9=110/2;
 3/5=1,6=6,7=104,11=2,25=1,30=1,71=1,74=-5/1,2,3;
 4/5=5,16=3,69=1/1;
 5/5=2,38=5/2;
 7//1,2,3,16;
 1/18=20,19=15,26=3/3(-5);
 2/9=110/2;
 6/7=2,8=2,9=2,10=2,19=2,28=1/1;
 99/9=1/99;
 -------------------
 Title Card Required
 -------------------
 Symbolic Z-matrix:
 Charge =  0 Multiplicity = 1
 S                     3.97512   0.06347  -0.89484 
 C                     6.64846   0.05974  -1.52678 
 C                     4.64044   0.05833  -1.76581 
 C                     5.87116   0.06097  -1.31801 
 C                     5.90597   0.05061  -3.07218 
 C                     7.5171    0.05175  -2.87942 
 C                     7.92727   0.04402  -4.18771 
 C                     9.82631   0.0425   -4.44557 
 C                     10.15113   0.03509  -5.6998 
 C                     10.41724   0.04261  -4.42634 
 N                     11.55346   0.03426  -5.84013 
 N                     13.33664   0.04091  -4.71325 
 C                     12.91301   0.02876  -6.77054 
 C                     13.6401   0.03841  -5.13709 
 C                     11.87659   0.04355  -4.26794 
 S                     9.31473   0.05319  -2.63513 
 H                     1.89952   0.06228  -1.09694 
 H                     3.16746   0.05431  -2.44502 
 H                     5.70909   0.06863  -0.02119 
 H                     5.01892   0.04791  -3.52916 
 H                     8.47899   0.06051  -1.39616 
 H                     7.20854   0.03987  -4.89069 
 H                     10.74866   0.05129  -2.95759 
 H                     9.25017   0.03368  -5.93762 
 H                     11.80887   0.05081  -3.03891 
 H                     13.87658   0.02285  -7.77095 
 H                     15.22468   0.03459  -5.78404 
 H                     13.10951   0.03534  -5.65694 
 
 Add virtual bond connecting atoms H19        and C4         Dist= 2.47D+00.
 Add virtual bond connecting atoms H26        and C13        Dist= 2.62D+00.
 Add virtual bond connecting atoms H18        and S1         Dist= 3.30D+00.
 Add virtual bond connecting atoms H18        and C3         Dist= 3.07D+00.
 Add virtual bond connecting atoms H27        and C14        Dist= 3.23D+00.
 Add virtual bond connecting atoms H18        and H17        Dist= 3.50D+00.

 GradGradGradGradGradGradGradGradGradGradGradGradGradGradGradGradGradGrad
 Berny optimization.
 Initialization pass.
                           ----------------------------
                           !    Initial Parameters    !
                           ! (Angstroms and Degrees)  !
 --------------------------                            --------------------------
 ! Name  Definition              Value          Derivative Info.                !
 --------------------------------------------------------------------------------
 ! R1    R(1,3)                  1.096          estimate D2E/DX2                !
 ! R2    R(1,4)                  1.9427         estimate D2E/DX2                !
 ! R3    R(1,18)                 1.748          estimate D2E/DX2                !
 ! R4    R(2,4)                  0.8048         estimate D2E/DX2                !
 ! R5    R(2,5)                  1.7145         estimate D2E/DX2                !
 ! R6    R(2,6)                  1.6076         estimate D2E/DX2                !
 ! R7    R(3,4)                  1.3097         estimate D2E/DX2                !
 ! R8    R(3,5)                  1.8189         estimate D2E/DX2                !
 ! R9    R(3,18)                 1.622          estimate D2E/DX2                !
 ! R10   R(4,5)                  1.7545         estimate D2E/DX2                !
 ! R11   R(4,19)                 1.3069         estimate D2E/DX2                !
 ! R12   R(5,6)                  1.6226         estimate D2E/DX2                !
 ! R13   R(5,20)                 0.9978         estimate D2E/DX2                !
 ! R14   R(6,7)                  1.3711         estimate D2E/DX2                !
 ! R15   R(6,16)                 1.8142         estimate D2E/DX2                !
 ! R16   R(7,16)                 2.0822         estimate D2E/DX2                !
 ! R17   R(7,22)                 1.0054         estimate D2E/DX2                !
 ! R18   R(8,9)                  1.2956         estimate D2E/DX2                !
 ! R19   R(8,10)                 0.5912         estimate D2E/DX2                !
 ! R20   R(8,16)                 1.8814         estimate D2E/DX2                !
 ! R21   R(9,10)                 1.301          estimate D2E/DX2                !
 ! R22   R(9,11)                 1.4093         estimate D2E/DX2                !
 ! R23   R(9,24)                 0.9318         estimate D2E/DX2                !
 ! R24   R(10,15)                1.4679         estimate D2E/DX2                !
 ! R25   R(10,16)                2.1033         estimate D2E/DX2                !
 ! R26   R(11,13)                1.6474         estimate D2E/DX2                !
 ! R27   R(11,15)                1.6051         estimate D2E/DX2                !
 ! R28   R(12,14)                0.5213         estimate D2E/DX2                !
 ! R29   R(12,15)                1.5265         estimate D2E/DX2                !
 ! R30   R(12,28)                0.9707         estimate D2E/DX2                !
 ! R31   R(13,14)                1.788          estimate D2E/DX2                !
 ! R32   R(13,26)                1.389          estimate D2E/DX2                !
 ! R33   R(13,28)                1.1308         estimate D2E/DX2                !
 ! R34   R(14,27)                1.7116         estimate D2E/DX2                !
 ! R35   R(14,28)                0.7428         estimate D2E/DX2                !
 ! R36   R(15,25)                1.2309         estimate D2E/DX2                !
 ! R37   R(16,21)                1.4945         estimate D2E/DX2                !
 ! R38   R(16,23)                1.4697         estimate D2E/DX2                !
 ! R39   R(17,18)                1.8507         estimate D2E/DX2                !
 ! A1    A(4,1,18)             104.9379         estimate D2E/DX2                !
 ! A2    A(4,2,6)              137.7415         estimate D2E/DX2                !
 ! A3    A(5,3,18)             109.3343         estimate D2E/DX2                !
 ! A4    A(1,4,5)              103.7185         estimate D2E/DX2                !
 ! A5    A(1,4,19)              70.2949         estimate D2E/DX2                !
 ! A6    A(2,4,3)              144.9715         estimate D2E/DX2                !
 ! A7    A(2,4,19)             112.1576         estimate D2E/DX2                !
 ! A8    A(3,4,19)             102.8709         estimate D2E/DX2                !
 ! A9    A(2,5,3)               69.7514         estimate D2E/DX2                !
 ! A10   A(2,5,20)             142.9181         estimate D2E/DX2                !
 ! A11   A(3,5,6)              127.267          estimate D2E/DX2                !
 ! A12   A(3,5,20)              73.1667         estimate D2E/DX2                !
 ! A13   A(4,5,6)               84.3141         estimate D2E/DX2                !
 ! A14   A(4,5,20)             116.1197         estimate D2E/DX2                !
 ! A15   A(6,5,20)             159.5662         estimate D2E/DX2                !
 ! A16   A(2,6,7)              164.6994         estimate D2E/DX2                !
 ! A17   A(2,6,16)             114.9684         estimate D2E/DX2                !
 ! A18   A(5,6,7)              100.5841         estimate D2E/DX2                !
 ! A19   A(6,7,22)             116.959          estimate D2E/DX2                !
 ! A20   A(8,9,11)             110.2338         estimate D2E/DX2                !
 ! A21   A(8,9,24)              90.2677         estimate D2E/DX2                !
 ! A22   A(10,9,11)             83.9118         estimate D2E/DX2                !
 ! A23   A(10,9,24)            116.5898         estimate D2E/DX2                !
 ! A24   A(11,9,24)            159.4984         estimate D2E/DX2                !
 ! A25   A(9,10,15)            107.9977         estimate D2E/DX2                !
 ! A26   A(9,10,16)            136.5848         estimate D2E/DX2                !
 ! A27   A(15,10,16)           115.4175         estimate D2E/DX2                !
 ! A28   A(9,11,13)            151.3283         estimate D2E/DX2                !
 ! A29   A(9,11,15)             95.8994         estimate D2E/DX2                !
 ! A30   A(13,11,15)           112.7723         estimate D2E/DX2                !
 ! A31   A(14,12,15)           142.5631         estimate D2E/DX2                !
 ! A32   A(15,12,28)            93.4293         estimate D2E/DX2                !
 ! A33   A(11,13,14)            79.6084         estimate D2E/DX2                !
 ! A34   A(11,13,28)            65.6206         estimate D2E/DX2                !
 ! A35   A(14,13,26)           112.0804         estimate D2E/DX2                !
 ! A36   A(26,13,28)           126.0682         estimate D2E/DX2                !
 ! A37   A(12,14,13)           120.404          estimate D2E/DX2                !
 ! A38   A(12,14,27)           147.8108         estimate D2E/DX2                !
 ! A39   A(13,14,27)            91.7852         estimate D2E/DX2                !
 ! A40   A(27,14,28)           113.3758         estimate D2E/DX2                !
 ! A41   A(10,15,11)            72.1912         estimate D2E/DX2                !
 ! A42   A(10,15,12)           156.8434         estimate D2E/DX2                !
 ! A43   A(10,15,25)            93.0411         estimate D2E/DX2                !
 ! A44   A(11,15,12)            84.6522         estimate D2E/DX2                !
 ! A45   A(12,15,25)           110.1156         estimate D2E/DX2                !
 ! A46   A(6,16,8)              98.0396         estimate D2E/DX2                !
 ! A47   A(6,16,10)            113.8734         estimate D2E/DX2                !
 ! A48   A(6,16,21)             63.738          estimate D2E/DX2                !
 ! A49   A(6,16,23)            159.5871         estimate D2E/DX2                !
 ! A50   A(7,16,8)              57.5636         estimate D2E/DX2                !
 ! A51   A(7,16,10)             73.3973         estimate D2E/DX2                !
 ! A52   A(7,16,21)            104.2141         estimate D2E/DX2                !
 ! A53   A(7,16,23)            119.111          estimate D2E/DX2                !
 ! A54   A(8,16,21)            161.7776         estimate D2E/DX2                !
 ! A55   A(8,16,23)             61.5475         estimate D2E/DX2                !
 ! A56   A(10,16,23)            45.7137         estimate D2E/DX2                !
 ! A57   A(21,16,23)           136.6749         estimate D2E/DX2                !
 ! A58   A(1,18,17)             70.7644         estimate D2E/DX2                !
 ! A59   A(3,18,17)            108.4894         estimate D2E/DX2                !
 ! A60   L(1,3,5,18,-1)        186.7146         estimate D2E/DX2                !
 ! A61   L(4,3,18,1,-1)        184.7611         estimate D2E/DX2                !
 ! A62   L(1,4,2,19,-1)        182.4525         estimate D2E/DX2                !
 ! A63   L(5,4,19,1,-1)        174.0133         estimate D2E/DX2                !
 ! A64   L(5,6,16,7,-1)        180.9163         estimate D2E/DX2                !
 ! A65   L(16,7,22,1,-1)       176.1508         estimate D2E/DX2                !
 ! A66   L(9,8,16,10,-1)       181.2594         estimate D2E/DX2                !
 ! A67   L(8,10,15,9,-1)       184.3309         estimate D2E/DX2                !
 ! A68   L(11,13,26,28,-1)     191.6888         estimate D2E/DX2                !
 ! A69   L(11,15,25,10,-1)     165.2322         estimate D2E/DX2                !
 ! A70   L(10,16,21,6,-1)      177.6114         estimate D2E/DX2                !
 ! A71   L(12,28,13,11,-1)     183.5256         estimate D2E/DX2                !
 ! A72   L(1,3,5,18,-2)        180.0004         estimate D2E/DX2                !
 ! A73   L(4,3,18,1,-2)        180.0005         estimate D2E/DX2                !
 ! A74   L(1,4,2,19,-2)        180.0003         estimate D2E/DX2                !
 ! A75   L(5,4,19,1,-2)        180.0            estimate D2E/DX2                !
 ! A76   L(5,6,16,7,-2)        180.0001         estimate D2E/DX2                !
 ! A77   L(16,7,22,1,-2)       179.9999         estimate D2E/DX2                !
 ! A78   L(9,8,16,10,-2)       180.0002         estimate D2E/DX2                !
 ! A79   L(8,10,15,9,-2)       179.9995         estimate D2E/DX2                !
 ! A80   L(11,13,26,28,-2)     180.0002         estimate D2E/DX2                !
 ! A81   L(11,15,25,10,-2)     179.9999         estimate D2E/DX2                !
 ! A82   L(10,16,21,6,-2)      180.0001         estimate D2E/DX2                !
 ! A83   L(12,28,13,11,-2)     180.0004         estimate D2E/DX2                !
 ! D1    D(18,1,4,5)             0.0002         estimate D2E/DX2                !
 ! D2    D(18,1,4,19)         -179.9999         estimate D2E/DX2                !
 ! D3    D(4,1,18,17)         -179.9998         estimate D2E/DX2                !
 ! D4    D(6,2,4,3)             -0.001          estimate D2E/DX2                !
 ! D5    D(6,2,4,19)           179.9998         estimate D2E/DX2                !
 ! D6    D(4,2,6,7)              0.0            estimate D2E/DX2                !
 ! D7    D(4,2,6,16)          -179.9996         estimate D2E/DX2                !
 ! D8    D(2,4,18,17)         -179.9994         estimate D2E/DX2                !
 ! D9    D(19,4,18,17)           0.0003         estimate D2E/DX2                !
 ! D10   D(18,3,5,2)          -179.9997         estimate D2E/DX2                !
 ! D11   D(18,3,5,6)          -179.9998         estimate D2E/DX2                !
 ! D12   D(18,3,5,20)            0.0003         estimate D2E/DX2                !
 ! D13   D(5,3,18,17)         -179.9999         estimate D2E/DX2                !
 ! D14   D(1,4,5,6)            179.9999         estimate D2E/DX2                !
 ! D15   D(1,4,5,20)            -0.0001         estimate D2E/DX2                !
 ! D16   D(3,5,6,7)           -179.9999         estimate D2E/DX2                !
 ! D17   D(4,5,6,7)            179.9998         estimate D2E/DX2                !
 ! D18   D(20,5,6,7)            -0.0001         estimate D2E/DX2                !
 ! D19   D(3,5,16,8)          -179.9998         estimate D2E/DX2                !
 ! D20   D(3,5,16,10)         -179.9999         estimate D2E/DX2                !
 ! D21   D(3,5,16,21)            0.0001         estimate D2E/DX2                !
 ! D22   D(3,5,16,23)         -179.9993         estimate D2E/DX2                !
 ! D23   D(4,5,16,8)          -179.9999         estimate D2E/DX2                !
 ! D24   D(4,5,16,10)          180.0            estimate D2E/DX2                !
 ! D25   D(4,5,16,21)           -0.0001         estimate D2E/DX2                !
 ! D26   D(4,5,16,23)         -179.9994         estimate D2E/DX2                !
 ! D27   D(20,5,16,8)            0.0003         estimate D2E/DX2                !
 ! D28   D(20,5,16,10)           0.0002         estimate D2E/DX2                !
 ! D29   D(20,5,16,21)        -179.9999         estimate D2E/DX2                !
 ! D30   D(20,5,16,23)           0.0008         estimate D2E/DX2                !
 ! D31   D(2,6,7,22)             0.0005         estimate D2E/DX2                !
 ! D32   D(5,6,7,22)             0.0003         estimate D2E/DX2                !
 ! D33   D(2,6,16,8)          -179.9999         estimate D2E/DX2                !
 ! D34   D(2,6,16,10)         -180.0            estimate D2E/DX2                !
 ! D35   D(2,6,16,21)           -0.0001         estimate D2E/DX2                !
 ! D36   D(2,6,16,23)         -179.9993         estimate D2E/DX2                !
 ! D37   D(6,7,16,22)           -0.0016         estimate D2E/DX2                !
 ! D38   D(9,8,10,16)         -179.9998         estimate D2E/DX2                !
 ! D39   D(11,9,16,6)          180.0            estimate D2E/DX2                !
 ! D40   D(11,9,16,7)         -179.9999         estimate D2E/DX2                !
 ! D41   D(11,9,16,21)         179.9997         estimate D2E/DX2                !
 ! D42   D(11,9,16,23)           0.0002         estimate D2E/DX2                !
 ! D43   D(24,9,16,6)           -0.0004         estimate D2E/DX2                !
 ! D44   D(24,9,16,7)           -0.0003         estimate D2E/DX2                !
 ! D45   D(24,9,16,21)          -0.0006         estimate D2E/DX2                !
 ! D46   D(24,9,16,23)         179.9999         estimate D2E/DX2                !
 ! D47   D(11,9,10,15)           0.0002         estimate D2E/DX2                !
 ! D48   D(11,9,10,16)         180.0            estimate D2E/DX2                !
 ! D49   D(24,9,10,15)         179.9998         estimate D2E/DX2                !
 ! D50   D(24,9,10,16)          -0.0005         estimate D2E/DX2                !
 ! D51   D(8,9,11,13)          179.9998         estimate D2E/DX2                !
 ! D52   D(8,9,11,15)           -0.0001         estimate D2E/DX2                !
 ! D53   D(10,9,11,13)         179.9997         estimate D2E/DX2                !
 ! D54   D(10,9,11,15)          -0.0002         estimate D2E/DX2                !
 ! D55   D(24,9,11,13)           0.0008         estimate D2E/DX2                !
 ! D56   D(24,9,11,15)        -179.9991         estimate D2E/DX2                !
 ! D57   D(9,10,15,11)          -0.0002         estimate D2E/DX2                !
 ! D58   D(9,10,15,12)          -0.0015         estimate D2E/DX2                !
 ! D59   D(9,10,15,25)         179.9998         estimate D2E/DX2                !
 ! D60   D(16,10,15,11)        180.0            estimate D2E/DX2                !
 ! D61   D(16,10,15,12)        179.9988         estimate D2E/DX2                !
 ! D62   D(16,10,15,25)          0.0001         estimate D2E/DX2                !
 ! D63   D(9,10,16,6)            0.0            estimate D2E/DX2                !
 ! D64   D(9,10,16,7)            0.0001         estimate D2E/DX2                !
 ! D65   D(9,10,16,23)        -179.9996         estimate D2E/DX2                !
 ! D66   D(15,10,16,6)         179.9997         estimate D2E/DX2                !
 ! D67   D(15,10,16,7)         179.9998         estimate D2E/DX2                !
 ! D68   D(15,10,16,23)          0.0001         estimate D2E/DX2                !
 ! D69   D(9,11,13,14)        -179.9998         estimate D2E/DX2                !
 ! D70   D(9,11,13,28)        -179.9999         estimate D2E/DX2                !
 ! D71   D(15,11,13,14)          0.0            estimate D2E/DX2                !
 ! D72   D(15,11,13,28)          0.0            estimate D2E/DX2                !
 ! D73   D(9,11,15,10)           0.0002         estimate D2E/DX2                !
 ! D74   D(9,11,15,12)         179.9997         estimate D2E/DX2                !
 ! D75   D(13,11,15,10)       -179.9998         estimate D2E/DX2                !
 ! D76   D(13,11,15,12)         -0.0002         estimate D2E/DX2                !
 ! D77   D(15,12,13,11)         -0.0002         estimate D2E/DX2                !
 ! D78   D(15,12,13,26)        179.9997         estimate D2E/DX2                !
 ! D79   D(15,12,14,13)         -0.0014         estimate D2E/DX2                !
 ! D80   D(15,12,14,27)        179.9994         estimate D2E/DX2                !
 ! D81   D(14,12,15,10)          0.0024         estimate D2E/DX2                !
 ! D82   D(14,12,15,11)          0.0012         estimate D2E/DX2                !
 ! D83   D(14,12,15,25)       -179.999          estimate D2E/DX2                !
 ! D84   D(28,12,15,10)          0.0015         estimate D2E/DX2                !
 ! D85   D(28,12,15,11)          0.0004         estimate D2E/DX2                !
 ! D86   D(28,12,15,25)       -179.9998         estimate D2E/DX2                !
 ! D87   D(11,13,14,12)          0.0006         estimate D2E/DX2                !
 ! D88   D(11,13,14,27)       -179.9998         estimate D2E/DX2                !
 ! D89   D(26,13,14,12)       -179.9995         estimate D2E/DX2                !
 ! D90   D(26,13,14,27)          0.0001         estimate D2E/DX2                !
 ! D91   D(14,13,28,12)         -0.0056         estimate D2E/DX2                !
 --------------------------------------------------------------------------------
 Trust Radius=3.00D-01 FncErr=1.00D-07 GrdErr=1.00D-06 EigMax=2.50D+02 EigMin=1.00D-04
 Number of steps in this run=    168 maximum allowed number of steps=    168.
 GradGradGradGradGradGradGradGradGradGradGradGradGradGradGradGradGradGrad

                          Input orientation:                          
 ---------------------------------------------------------------------
 Center     Atomic      Atomic             Coordinates (Angstroms)
 Number     Number       Type             X           Y           Z
 ---------------------------------------------------------------------
      1         16           0        3.975120    0.063470   -0.894840
      2          6           0        6.648460    0.059740   -1.526780
      3          6           0        4.640440    0.058330   -1.765810
      4          6           0        5.871160    0.060970   -1.318010
      5          6           0        5.905970    0.050610   -3.072180
      6          6           0        7.517100    0.051750   -2.879420
      7          6           0        7.927270    0.044020   -4.187710
      8          6           0        9.826310    0.042500   -4.445570
      9          6           0       10.151130    0.035090   -5.699800
     10          6           0       10.417240    0.042610   -4.426340
     11          7           0       11.553460    0.034260   -5.840130
     12          7           0       13.336640    0.040910   -4.713250
     13          6           0       12.913010    0.028760   -6.770540
     14          6           0       13.640100    0.038410   -5.137090
     15          6           0       11.876590    0.043550   -4.267940
     16         16           0        9.314730    0.053190   -2.635130
     17          1           0        1.899520    0.062280   -1.096940
     18          1           0        3.167460    0.054310   -2.445020
     19          1           0        5.709090    0.068630   -0.021190
     20          1           0        5.018920    0.047910   -3.529160
     21          1           0        8.478990    0.060510   -1.396160
     22          1           0        7.208540    0.039870   -4.890690
     23          1           0       10.748660    0.051290   -2.957590
     24          1           0        9.250170    0.033680   -5.937620
     25          1           0       11.808870    0.050810   -3.038910
     26          1           0       13.876580    0.022850   -7.770950
     27          1           0       15.224680    0.034590   -5.784040
     28          1           0       13.109510    0.035340   -5.656940
 ---------------------------------------------------------------------
                    Distance matrix (angstroms):
                    1          2          3          4          5
     1  S    0.000000
     2  C    2.747018   0.000000
     3  C    1.096023   2.022197   0.000000
     4  C    1.942691   0.804849   1.309658   0.000000
     5  C    2.910182   1.714537   1.818854   1.754546   0.000000
     6  C    4.060088   1.607555   3.084695   2.268745   1.622621
     7  C    5.144207   2.952313   4.082776   3.530305   2.308702
     8  C    6.844308   4.314900   5.837346   5.042339   4.153954
     9  C    7.825059   5.448247   6.770858   6.125267   4.992596
    10  C    7.346621   4.755149   6.360038   5.507168   4.710135
    11  N    9.049198   6.531819   8.024370   7.262150   6.289353
    12  N   10.110332   7.408488   9.182135   8.201308   7.609735
    13  C   10.696305   8.169612   9.668692   8.906109   7.923191
    14  C   10.555053   7.868788   9.610401   8.656923   8.005046
    15  C    8.591358   5.903182   7.656549   6.690858   6.089187
    16  S    5.616062   2.887469   4.754443   3.686874   3.436665
    17  H    2.085416   4.768354   2.821355   3.977788   4.466917
    18  H    1.747986   3.600077   1.622040   2.929196   2.809409
    19  H    1.941634   1.774626   2.045927   1.306931   3.057389
    20  H    2.833620   2.581679   1.803541   2.369740   0.997846
    21  H    4.531686   1.835185   3.856308   2.609001   3.070761
    22  H    5.140270   3.410275   4.044793   3.814849   2.236914
    23  H    7.080673   4.342687   6.223403   5.145709   4.844046
    24  H    7.297717   5.121043   6.217252   5.723570   4.403942
    25  H    8.121874   5.377402   7.280606   6.182071   5.902994
    26  H   12.054935   9.551792  11.016771  10.282443   9.252558
    27  H   12.266120   9.574782  11.321346  10.365059   9.705297
    28  H   10.301236   7.668376   9.320224   8.439235   7.653248
                    6          7          8          9         10
     6  C    0.000000
     7  C    1.371102   0.000000
     8  C    2.790226   1.916467   0.000000
     9  C    3.859137   2.689247   1.295630   0.000000
    10  C    3.286922   2.501379   0.591243   1.300989   0.000000
    11  N    5.005828   3.984952   2.219890   1.409334   1.813799
    12  N    6.101647   5.434840   3.520522   3.334785   2.933465
    13  C    6.652608   5.615055   3.864375   2.962179   3.424081
    14  C    6.525977   5.791181   3.875979   3.534058   3.300304
    15  C    4.575282   3.950135   2.057961   2.242210   1.467922
    16  S    1.814154   2.082219   1.881362   3.176806   2.103348
    17  H    5.893603   6.773992   8.605098   9.448605   9.145318
    18  H    4.371279   5.068813   6.952886   7.704908   7.515655
    19  H    3.382109   4.720256   6.043784   7.209678   6.447690
    20  H    2.581294   2.981980   4.893959   5.572380   5.472369
    21  H    1.767871   2.845596   3.333841   4.617144   3.597099
    22  H    2.034836   1.005371   2.655345   3.051806   3.242126
    23  H    3.232505   3.077903   1.750683   2.806603   1.505703
    24  H    3.515174   2.193708   1.599446   0.931820   1.909476
    25  H    4.294733   4.048037   2.430906   3.135073   1.965112
    26  H    8.023147   6.945095   5.240537   4.262486   4.811844
    27  H    8.236741   7.469977   5.561831   5.074249   4.995487
    28  H    6.244192   5.386495   3.499553   2.958690   2.960194
                   11         12         13         14         15
    11  N    0.000000
    12  N    2.109415   0.000000
    13  C    1.647443   2.100489   0.000000
    14  C    2.201897   0.521282   1.787991   0.000000
    15  C    1.605080   1.526451   2.708762   1.966066   0.000000
    16  S    3.909513   4.527084   5.481773   4.996884   3.037974
    17  H   10.756263  11.995244  12.389020  12.416304  10.468883
    18  H    9.047219  10.419082  10.662388  10.813125   8.897870
    19  H    8.247297   8.955206   9.871767   9.437916   7.488229
    20  H    6.931160   8.401582   8.533673   8.769850   6.897351
    21  H    5.403880   5.882196   6.967460   6.374332   4.448718
    22  H    4.447448   6.130668   6.006242   6.436278   4.709408
    23  H    2.992830   3.127314   4.384462   3.620885   1.728960
    24  H    2.305352   4.265955   3.756352   4.462326   3.112236
    25  H    2.812888   2.266626   3.891616   2.784945   1.230916
    26  H    3.020775   3.105059   1.389000   2.644501   4.033791
    27  H    3.671648   2.170559   2.513371   1.711564   3.675370
    28  H    1.566797   0.970654   1.130823   0.742818   1.857278
                   16         17         18         19         20
    16  S    0.000000
    17  H    7.573074   0.000000
    18  H    6.150209   1.850690   0.000000
    19  H    4.453489   3.958548   3.512128   0.000000
    20  H    4.387858   3.955573   2.145531   3.575279   0.000000
    21  H    1.494510   6.586271   5.414102   3.092403   4.064718
    22  H    3.086060   6.525238   4.723541   5.095214   2.578423
    23  H    1.469741   9.042644   7.598508   5.832668   5.758179
    24  H    3.303179   8.801424   7.014132   6.895260   4.868712
    25  H    2.526614  10.097851   8.661795   6.805459   6.807626
    26  H    6.869355  13.711088  11.960425  11.259164   9.820975
    27  H    6.696528  14.125493  12.511035  11.124660  10.451899
    28  H    4.850980  12.101992  10.448021   9.302097   8.365719
                   21         22         23         24         25
    21  H    0.000000
    22  H    3.718361   0.000000
    23  H    2.754914   4.033541   0.000000
    24  H    4.606549   2.294418   3.335620   0.000000
    25  H    3.713061   4.959057   1.063324   3.866492   0.000000
    26  H    8.353044   7.263535   5.740481   4.976433   5.164146
    27  H    8.047266   8.065767   5.293756   5.976484   4.382209
    28  H    6.292583   5.950513   3.586134   3.869533   2.923352
                   26         27         28
    26  H    0.000000
    27  H    2.401109   0.000000
    28  H    2.248909   2.118985   0.000000
 Stoichiometry    C12H12N2S2
 Framework group  C1[X(C12H12N2S2)]
 Deg. of freedom    78
 Full point group                 C1      NOp   1
 Largest Abelian subgroup         C1      NOp   1
 Largest concise Abelian subgroup C1      NOp   1
                         Standard orientation:                         
 ---------------------------------------------------------------------
 Center     Atomic      Atomic             Coordinates (Angstroms)
 Number     Number       Type             X           Y           Z
 ---------------------------------------------------------------------
      1         16           0       -5.404740   -0.099555   -0.000002
      2          6           0       -2.736957   -0.754568    0.000002
      3          6           0       -4.415734    0.372814    0.000003
      4          6           0       -3.524040   -0.586397   -0.000002
      5          6           0       -2.694075    0.959433   -0.000000
      6          6           0       -1.347557    0.054013    0.000002
      7          6           0       -0.386512    1.031926   -0.000000
      8          6           0        1.421564    0.396547    0.000003
      9          6           0        2.282003    1.365206    0.000002
     10          6           0        1.938884    0.110280   -0.000000
     11          7           0        3.594350    0.851427    0.000001
     12          7           0        4.668571   -0.963974   -0.000004
     13          6           0        5.228471    1.060517   -0.000003
     14          6           0        5.131775   -0.724858   -0.000001
     15          6           0        3.165929   -0.695420    0.000005
     16         16           0        0.141524   -0.982227   -0.000001
     17          1           0       -7.160501    1.025729    0.000001
     18          1           0       -5.417699    1.648383   -0.000006
     19          1           0       -4.258989   -1.667100   -0.000002
     20          1           0       -3.275634    1.770287   -0.000001
     21          1           0       -1.166813   -1.704595    0.000001
     22          1           0       -0.706177    1.985123    0.000002
     23          1           0        1.564957   -1.348254    0.000005
     24          1           0        1.588240    1.987285   -0.000004
     25          1           0        2.545853   -1.758745    0.000005
     26          1           0        6.541952    1.512280   -0.000003
     27          1           0        6.837122   -0.870617    0.000001
     28          1           0        4.896192   -0.020386   -0.000000
 ---------------------------------------------------------------------
 Rotational constants (GHZ):           2.9836543           0.1610155           0.1527711
 Standard basis: 6-31G(2df,p) (6D, 7F)
 There are   564 symmetry adapted cartesian basis functions of A   symmetry.
 There are   516 symmetry adapted basis functions of A   symmetry.
   516 basis functions,   836 primitive gaussians,   564 cartesian basis functions
    65 alpha electrons       65 beta electrons
       nuclear repulsion energy      1331.8347284507 Hartrees.
 NAtoms=   28 NActive=   28 NUniq=   28 SFac= 1.00D+00 NAtFMM=   60 NAOKFM=F Big=F
 Integral buffers will be    131072 words long.
 Raffenetti 2 integral format.
 Two-electron integral symmetry is turned on.
 One-electron integrals computed using PRISM.
 PrsmSu:  requested number of processors reduced to:  12 ShMem   1 Linda.
 NBasis=   516 RedAO= T EigKep=  1.60D-05  NBF=   516
 NBsUse=   515 1.00D-06 EigRej=  2.80D-07 NBFU=   515
 ExpMin= 1.17D-01 ExpMax= 2.19D+04 ExpMxC= 3.30D+03 IAcc=3 IRadAn=         5 AccDes= 0.00D+00
 Harris functional with IExCor=  402 and IRadAn=       5 diagonalized for initial guess.
 HarFok:  IExCor=  402 AccDes= 0.00D+00 IRadAn=         5 IDoV= 1 UseB2=F ITyADJ=14
 ICtDFT=  3500011 ScaDFX=  1.000000  1.000000  1.000000  1.000000
 FoFCou: FMM=F IPFlag=           0 FMFlag=      100000 FMFlg1=           0
         NFxFlg=           0 DoJE=T BraDBF=F KetDBF=T FulRan=T
         wScrn=  0.000000 ICntrl=       500 IOpCl=  0 I1Cent=   200000004 NGrid=           0
         NMat0=    1 NMatS0=      1 NMatT0=    0 NMatD0=    1 NMtDS0=    0 NMtDT0=    0
 Petite list used in FoFCou.
 Requested convergence on RMS density matrix=1.00D-08 within 128 cycles.
 Requested convergence on MAX density matrix=1.00D-06.
 Requested convergence on             energy=1.00D-06.
 No special actions if energy rises.
 Integral accuracy reduced to 1.0D-05 until final iterations.
 EnCoef did     3 forward-backward iterations
 EnCoef did     2 forward-backward iterations
 EnCoef did     2 forward-backward iterations
 EnCoef did     1 forward-backward iterations
 EnCoef did     6 forward-backward iterations
 Initial convergence to 1.0D-05 achieved.  Increase integral accuracy.
 SCF Done:  E(RB3LYP) =  -1358.60426772     A.U. after   28 cycles
            NFock= 28  Conv=0.57D-08     -V/T= 1.9788

 **********************************************************************

            Population analysis using the SCF density.

 **********************************************************************

 Orbital symmetries:
       Occupied  (A) (A) (A) (A) (A) (A) (A) (A) (A) (A) (A) (A)
                 (A) (A) (A) (A) (A) (A) (A) (A) (A) (A) (A) (A)
                 (A) (A) (A) (A) (A) (A) (A) (A) (A) (A) (A) (A)
                 (A) (A) (A) (A) (A) (A) (A) (A) (A) (A) (A) (A)
                 (A) (A) (A) (A) (A) (A) (A) (A) (A) (A) (A) (A)
                 (A) (A) (A) (A) (A)
       Virtual   (A) (A) (A) (A) (A) (A) (A) (A) (A) (A) (A) (A)
                 (A) (A) (A) (A) (A) (A) (A) (A) (A) (A) (A) (A)
                 (A) (A) (A) (A) (A) (A) (A) (A) (A) (A) (A) (A)
                 (A) (A) (A) (A) (A) (A) (A) (A) (A) (A) (A) (A)
                 (A) (A) (A) (A) (A) (A) (A) (A) (A) (A) (A) (A)
                 (A) (A) (A) (A) (A) (A) (A) (A) (A) (A) (A) (A)
                 (A) (A) (A) (A) (A) (A) (A) (A) (A) (A) (A) (A)
                 (A) (A) (A) (A) (A) (A) (A) (A) (A) (A) (A) (A)
                 (A) (A) (A) (A) (A) (A) (A) (A) (A) (A) (A) (A)
                 (A) (A) (A) (A) (A) (A) (A) (A) (A) (A) (A) (A)
                 (A) (A) (A) (A) (A) (A) (A) (A) (A) (A) (A) (A)
                 (A) (A) (A) (A) (A) (A) (A) (A) (A) (A) (A) (A)
                 (A) (A) (A) (A) (A) (A) (A) (A) (A) (A) (A) (A)
                 (A) (A) (A) (A) (A) (A) (A) (A) (A) (A) (A) (A)
                 (A) (A) (A) (A) (A) (A) (A) (A) (A) (A) (A) (A)
                 (A) (A) (A) (A) (A) (A) (A) (A) (A) (A) (A) (A)
                 (A) (A) (A) (A) (A) (A) (A) (A) (A) (A) (A) (A)
                 (A) (A) (A) (A) (A) (A) (A) (A) (A) (A) (A) (A)
                 (A) (A) (A) (A) (A) (A) (A) (A) (A) (A) (A) (A)
                 (A) (A) (A) (A) (A) (A) (A) (A) (A) (A) (A) (A)
                 (A) (A) (A) (A) (A) (A) (A) (A) (A) (A) (A) (A)
                 (A) (A) (A) (A) (A) (A) (A) (A) (A) (A) (A) (A)
                 (A) (A) (A) (A) (A) (A) (A) (A) (A) (A) (A) (A)
                 (A) (A) (A) (A) (A) (A) (A) (A) (A) (A) (A) (A)
                 (A) (A) (A) (A) (A) (A) (A) (A) (A) (A) (A) (A)
                 (A) (A) (A) (A) (A) (A) (A) (A) (A) (A) (A) (A)
                 (A) (A) (A) (A) (A) (A) (A) (A) (A) (A) (A) (A)
                 (A) (A) (A) (A) (A) (A) (A) (A) (A) (A) (A) (A)
                 (A) (A) (A) (A) (A) (A) (A) (A) (A) (A) (A) (A)
                 (A) (A) (A) (A) (A) (A) (A) (A) (A) (A) (A) (A)
                 (A) (A) (A) (A) (A) (A) (A) (A) (A) (A) (A) (A)
                 (A) (A) (A) (A) (A) (A) (A) (A) (A) (A) (A) (A)
                 (A) (A) (A) (A) (A) (A) (A) (A) (A) (A) (A) (A)
                 (A) (A) (A) (A) (A) (A) (A) (A) (A) (A) (A) (A)
                 (A) (A) (A) (A) (A) (A) (A) (A) (A) (A) (A) (A)
                 (A) (A) (A) (A) (A) (A) (A) (A) (A) (A) (A) (A)
                 (A) (A) (A) (A) (A) (A) (A) (A) (A) (A) (A) (A)
                 (A) (A) (A) (A) (A) (A)
 The electronic state is 1-A.
 Alpha  occ. eigenvalues --  -88.92123 -88.85896 -14.91726 -14.43395 -10.87140
 Alpha  occ. eigenvalues --  -10.85556 -10.39336 -10.28648 -10.28104 -10.25583
 Alpha  occ. eigenvalues --  -10.23981 -10.23420 -10.22638 -10.22588 -10.22152
 Alpha  occ. eigenvalues --  -10.17584  -8.02691  -7.92860  -5.98983  -5.98108
 Alpha  occ. eigenvalues --   -5.97925  -5.89269  -5.89051  -5.88242  -1.23345
 Alpha  occ. eigenvalues --   -1.14668  -1.05121  -0.93664  -0.93496  -0.92102
 Alpha  occ. eigenvalues --   -0.90811  -0.89187  -0.81610  -0.75251  -0.73593
 Alpha  occ. eigenvalues --   -0.71314  -0.69096  -0.67333  -0.64890  -0.61105
 Alpha  occ. eigenvalues --   -0.59977  -0.56847  -0.56366  -0.54159  -0.52084
 Alpha  occ. eigenvalues --   -0.50393  -0.49850  -0.46526  -0.44433  -0.43408
 Alpha  occ. eigenvalues --   -0.41110  -0.39600  -0.38406  -0.36750  -0.35053
 Alpha  occ. eigenvalues --   -0.28674  -0.25830  -0.24451  -0.24208  -0.22670
 Alpha  occ. eigenvalues --   -0.21738  -0.21729  -0.19066  -0.16882  -0.15885
 Alpha virt. eigenvalues --   -0.10194  -0.07736  -0.06649  -0.04582  -0.04447
 Alpha virt. eigenvalues --   -0.02539  -0.01595  -0.01120  -0.00206   0.00968
 Alpha virt. eigenvalues --    0.06703   0.07433   0.09626   0.10300   0.12088
 Alpha virt. eigenvalues --    0.13930   0.14769   0.15496   0.16123   0.18827
 Alpha virt. eigenvalues --    0.19543   0.21180   0.21182   0.21584   0.21971
 Alpha virt. eigenvalues --    0.23148   0.23214   0.25862   0.26823   0.26986
 Alpha virt. eigenvalues --    0.28928   0.29356   0.30320   0.30807   0.30843
 Alpha virt. eigenvalues --    0.33514   0.35790   0.37142   0.37945   0.38337
 Alpha virt. eigenvalues --    0.38936   0.40199   0.41819   0.43438   0.43918
 Alpha virt. eigenvalues --    0.44295   0.45714   0.46291   0.46698   0.47417
 Alpha virt. eigenvalues --    0.47592   0.50046   0.51056   0.51661   0.51844
 Alpha virt. eigenvalues --    0.52035   0.52494   0.53808   0.53872   0.55920
 Alpha virt. eigenvalues --    0.57220   0.57737   0.58084   0.58358   0.59805
 Alpha virt. eigenvalues --    0.60466   0.62144   0.63477   0.63576   0.64810
 Alpha virt. eigenvalues --    0.64933   0.66293   0.67581   0.69000   0.70589
 Alpha virt. eigenvalues --    0.71539   0.71609   0.72157   0.72626   0.73131
 Alpha virt. eigenvalues --    0.73978   0.75385   0.75923   0.77894   0.78585
 Alpha virt. eigenvalues --    0.80140   0.80543   0.80797   0.81206   0.81217
 Alpha virt. eigenvalues --    0.82746   0.83950   0.84606   0.85467   0.86742
 Alpha virt. eigenvalues --    0.87229   0.88325   0.90344   0.90932   0.91305
 Alpha virt. eigenvalues --    0.92973   0.93165   0.93661   0.96614   0.97539
 Alpha virt. eigenvalues --    0.97991   0.99987   1.00293   1.02896   1.05100
 Alpha virt. eigenvalues --    1.06000   1.07645   1.08398   1.10463   1.12808
 Alpha virt. eigenvalues --    1.14466   1.14660   1.15423   1.15823   1.16409
 Alpha virt. eigenvalues --    1.17743   1.18408   1.20828   1.20873   1.22252
 Alpha virt. eigenvalues --    1.23238   1.23939   1.25169   1.26048   1.28349
 Alpha virt. eigenvalues --    1.30206   1.31377   1.32463   1.32673   1.35351
 Alpha virt. eigenvalues --    1.36183   1.37277   1.39065   1.39557   1.40242
 Alpha virt. eigenvalues --    1.42443   1.42452   1.43281   1.44560   1.45800
 Alpha virt. eigenvalues --    1.46659   1.47026   1.49107   1.51217   1.53009
 Alpha virt. eigenvalues --    1.53527   1.54198   1.54253   1.54446   1.56397
 Alpha virt. eigenvalues --    1.57278   1.59591   1.61618   1.62996   1.63934
 Alpha virt. eigenvalues --    1.66358   1.66481   1.68414   1.69759   1.70543
 Alpha virt. eigenvalues --    1.72555   1.73568   1.75012   1.77086   1.79637
 Alpha virt. eigenvalues --    1.80451   1.82831   1.83518   1.87024   1.87139
 Alpha virt. eigenvalues --    1.88859   1.89667   1.91955   1.93489   1.95465
 Alpha virt. eigenvalues --    1.97931   1.99137   2.00455   2.00589   2.01634
 Alpha virt. eigenvalues --    2.03062   2.03267   2.05771   2.07629   2.08648
 Alpha virt. eigenvalues --    2.09024   2.09972   2.11082   2.12281   2.14306
 Alpha virt. eigenvalues --    2.14938   2.15059   2.17048   2.17253   2.19598
 Alpha virt. eigenvalues --    2.20452   2.20586   2.21506   2.22416   2.23580
 Alpha virt. eigenvalues --    2.25367   2.26445   2.27650   2.30149   2.31912
 Alpha virt. eigenvalues --    2.32238   2.32506   2.34925   2.36834   2.38620
 Alpha virt. eigenvalues --    2.41382   2.42079   2.45142   2.45533   2.45729
 Alpha virt. eigenvalues --    2.46602   2.49347   2.50099   2.51804   2.54968
 Alpha virt. eigenvalues --    2.55692   2.57880   2.58301   2.59029   2.61045
 Alpha virt. eigenvalues --    2.61524   2.63420   2.64218   2.66731   2.67758
 Alpha virt. eigenvalues --    2.70048   2.71486   2.75134   2.75647   2.79841
 Alpha virt. eigenvalues --    2.81049   2.81090   2.81869   2.83587   2.87928
 Alpha virt. eigenvalues --    2.88697   2.89228   2.90773   2.93196   2.94444
 Alpha virt. eigenvalues --    2.95002   2.95950   2.97107   2.98521   2.99272
 Alpha virt. eigenvalues --    3.00324   3.00626   3.01035   3.02648   3.05076
 Alpha virt. eigenvalues --    3.05239   3.05759   3.07768   3.10300   3.10656
 Alpha virt. eigenvalues --    3.12138   3.15780   3.15807   3.16052   3.19942
 Alpha virt. eigenvalues --    3.20357   3.21092   3.22046   3.23880   3.23931
 Alpha virt. eigenvalues --    3.26414   3.27680   3.30459   3.31096   3.31674
 Alpha virt. eigenvalues --    3.32316   3.33485   3.34550   3.36169   3.37661
 Alpha virt. eigenvalues --    3.38044   3.39998   3.41541   3.42524   3.43288
 Alpha virt. eigenvalues --    3.43542   3.46052   3.46734   3.47268   3.48937
 Alpha virt. eigenvalues --    3.49204   3.50205   3.51838   3.52741   3.54058
 Alpha virt. eigenvalues --    3.54849   3.56708   3.57822   3.59755   3.60300
 Alpha virt. eigenvalues --    3.62892   3.66329   3.66629   3.67184   3.70930
 Alpha virt. eigenvalues --    3.71120   3.72136   3.75408   3.78956   3.79967
 Alpha virt. eigenvalues --    3.83095   3.84207   3.86616   3.87767   3.90551
 Alpha virt. eigenvalues --    3.92054   3.92734   3.98263   3.99460   4.00589
 Alpha virt. eigenvalues --    4.02821   4.03947   4.05383   4.05708   4.09901
 Alpha virt. eigenvalues --    4.11012   4.13346   4.14566   4.15605   4.18274
 Alpha virt. eigenvalues --    4.19551   4.21740   4.23898   4.24208   4.25647
 Alpha virt. eigenvalues --    4.27491   4.30496   4.30865   4.35093   4.35253
 Alpha virt. eigenvalues --    4.37021   4.37306   4.38701   4.40170   4.42277
 Alpha virt. eigenvalues --    4.42725   4.43462   4.44522   4.45927   4.48294
 Alpha virt. eigenvalues --    4.48811   4.49478   4.52957   4.54119   4.54786
 Alpha virt. eigenvalues --    4.56219   4.56297   4.58085   4.59700   4.61716
 Alpha virt. eigenvalues --    4.62002   4.62973   4.63429   4.63950   4.65561
 Alpha virt. eigenvalues --    4.66004   4.68624   4.69389   4.72464   4.74628
 Alpha virt. eigenvalues --    4.75107   4.79147   4.79812   4.86337   4.86953
 Alpha virt. eigenvalues --    4.88372   4.94680   4.94839   4.97734   4.97834
 Alpha virt. eigenvalues --    4.99683   5.00648   5.02828   5.05245   5.08995
 Alpha virt. eigenvalues --    5.10896   5.15143   5.18046   5.22422   5.24801
 Alpha virt. eigenvalues --    5.26092   5.27962   5.31454   5.35571   5.39302
 Alpha virt. eigenvalues --    5.46769   5.48427   5.52012   5.55441   5.59679
 Alpha virt. eigenvalues --    5.67937   5.70902   5.79502   5.80377   5.88712
 Alpha virt. eigenvalues --    5.92356   6.05029   6.10636   6.20422   6.33044
 Alpha virt. eigenvalues --    6.35215   6.45083   6.58342   6.58952   6.65602
 Alpha virt. eigenvalues --    6.70872   6.72973   6.79986   6.84252   7.09307
 Alpha virt. eigenvalues --    7.39095   7.52803   7.63988   7.74559   7.89763
 Alpha virt. eigenvalues --    8.02507   8.38646   8.70404  10.10706  10.45278
 Alpha virt. eigenvalues --   10.51559  10.86658  10.98149  11.25367  11.46404
 Alpha virt. eigenvalues --   11.47588  11.67036  11.74461  11.77424  12.08751
 Alpha virt. eigenvalues --   13.61829  15.54050  17.30891  21.19455  46.71042
          Condensed to atoms (all electrons):
               1          2          3          4          5          6
     1  S   15.214024   0.235029   0.448777  -0.216262  -0.062254  -0.003092
     2  C    0.235029  11.592725  -0.514579  -5.590514   0.074536   0.328438
     3  C    0.448777  -0.514579   5.929571   0.595984   0.166142   0.008951
     4  C   -0.216262  -5.590514   0.595984  11.494376  -0.114281  -0.159428
     5  C   -0.062254   0.074536   0.166142  -0.114281   5.749551   0.288317
     6  C   -0.003092   0.328438   0.008951  -0.159428   0.288317   4.795992
     7  C    0.000018   0.005927   0.004246  -0.087443  -0.067036   0.562802
     8  C   -0.000003   0.003120  -0.000017   0.000428  -0.000163   0.045284
     9  C   -0.000000  -0.000007   0.000000  -0.000000  -0.000079   0.013473
    10  C    0.000001  -0.000162   0.000001  -0.000041   0.000853  -0.024190
    11  N   -0.000000   0.000000   0.000000   0.000000   0.000002  -0.000085
    12  N    0.000000   0.000000   0.000000  -0.000000  -0.000000  -0.000004
    13  C   -0.000000   0.000000  -0.000000   0.000000   0.000000   0.000000
    14  C   -0.000000  -0.000000   0.000000   0.000000   0.000000   0.000001
    15  C    0.000000  -0.000011  -0.000000   0.000001   0.000008  -0.000711
    16  S   -0.000303  -0.118538   0.000385   0.029163   0.029688  -0.019650
    17  H    0.039864  -0.001943  -0.027952  -0.005355  -0.000265  -0.000016
    18  H   -0.149793  -0.000301  -0.133394  -0.011104  -0.013882  -0.001754
    19  H    0.202962  -0.054340  -0.168378   0.108774   0.011868  -0.004331
    20  H   -0.005700   0.021564  -0.092782  -0.035150   0.280778  -0.020972
    21  H    0.000244   0.084585   0.002184  -0.137577   0.001537  -0.062426
    22  H   -0.000046  -0.010272  -0.000443   0.009958   0.022755  -0.048060
    23  H    0.000001   0.002858   0.000000   0.000021  -0.000341   0.009701
    24  H    0.000000  -0.000025  -0.000000  -0.000006  -0.000202  -0.005756
    25  H   -0.000000  -0.000067  -0.000000  -0.000001   0.000003   0.000325
    26  H    0.000000  -0.000000  -0.000000  -0.000000   0.000000   0.000000
    27  H   -0.000000   0.000000   0.000000   0.000000   0.000000   0.000000
    28  H   -0.000000   0.000000   0.000000   0.000000   0.000000  -0.000002
               7          8          9         10         11         12
     1  S    0.000018  -0.000003  -0.000000   0.000001  -0.000000   0.000000
     2  C    0.005927   0.003120  -0.000007  -0.000162   0.000000   0.000000
     3  C    0.004246  -0.000017   0.000000   0.000001   0.000000   0.000000
     4  C   -0.087443   0.000428  -0.000000  -0.000041   0.000000  -0.000000
     5  C   -0.067036  -0.000163  -0.000079   0.000853   0.000002  -0.000000
     6  C    0.562802   0.045284   0.013473  -0.024190  -0.000085  -0.000004
     7  C    6.001883   0.139803  -0.112808   0.146671   0.008898   0.000027
     8  C    0.139803   5.053285  -0.111121   0.313893   0.009331   0.008119
     9  C   -0.112808  -0.111121   6.710780  -0.171959   0.020761   0.003155
    10  C    0.146671   0.313893  -0.171959   5.965975  -0.235650   0.265070
    11  N    0.008898   0.009331   0.020761  -0.235650   6.945077  -0.266307
    12  N    0.000027   0.008119   0.003155   0.265070  -0.266307  22.074924
    13  C    0.000010   0.004476  -0.051910  -0.001827   0.280965   0.298494
    14  C   -0.000008   0.003521   0.019582  -0.255803   0.294269 -17.388433
    15  C    0.009918   0.053617  -0.392365   0.065909   0.364536   1.305182
    16  S   -0.449484  -0.074708   0.051877   0.041201  -0.011331   0.003845
    17  H   -0.000000   0.000000  -0.000000   0.000000   0.000000   0.000000
    18  H   -0.000087   0.000000  -0.000000   0.000000  -0.000000   0.000000
    19  H   -0.000363   0.000001  -0.000000   0.000000  -0.000000   0.000000
    20  H   -0.003963  -0.000049   0.000000   0.000007  -0.000000   0.000000
    21  H    0.032806  -0.002619   0.000202   0.004365  -0.000002   0.000001
    22  H    0.255444  -0.043478  -0.005372  -0.002407  -0.000155  -0.000000
    23  H    0.017957   0.030958  -0.027575  -0.178000   0.007851  -0.001340
    24  H   -0.029033  -0.009594   0.293291  -0.039814  -0.012687   0.000491
    25  H   -0.001360  -0.038423   0.033520  -0.084235   0.025661  -0.191932
    26  H   -0.000000  -0.000035  -0.000033  -0.000314  -0.000613  -0.030758
    27  H   -0.000000   0.000006  -0.000107  -0.000046   0.001798  -0.066298
    28  H    0.000075   0.010024  -0.026027   0.017334  -0.128564  -0.531456
              13         14         15         16         17         18
     1  S   -0.000000  -0.000000   0.000000  -0.000303   0.039864  -0.149793
     2  C    0.000000  -0.000000  -0.000011  -0.118538  -0.001943  -0.000301
     3  C   -0.000000   0.000000  -0.000000   0.000385  -0.027952  -0.133394
     4  C    0.000000   0.000000   0.000001   0.029163  -0.005355  -0.011104
     5  C    0.000000   0.000000   0.000008   0.029688  -0.000265  -0.013882
     6  C    0.000000   0.000001  -0.000711  -0.019650  -0.000016  -0.001754
     7  C    0.000010  -0.000008   0.009918  -0.449484  -0.000000  -0.000087
     8  C    0.004476   0.003521   0.053617  -0.074708   0.000000   0.000000
     9  C   -0.051910   0.019582  -0.392365   0.051877  -0.000000  -0.000000
    10  C   -0.001827  -0.255803   0.065909   0.041201   0.000000   0.000000
    11  N    0.280965   0.294269   0.364536  -0.011331   0.000000  -0.000000
    12  N    0.298494 -17.388433   1.305182   0.003845   0.000000   0.000000
    13  C    6.342487  -0.525996   0.095409  -0.000280  -0.000000  -0.000000
    14  C   -0.525996  25.392655  -1.634571  -0.000494  -0.000000  -0.000000
    15  C    0.095409  -1.634571   6.792404  -0.106904  -0.000000   0.000000
    16  S   -0.000280  -0.000494  -0.106904  16.604150  -0.000000  -0.000044
    17  H   -0.000000  -0.000000  -0.000000  -0.000000   0.919510   0.147994
    18  H   -0.000000  -0.000000   0.000000  -0.000044   0.147994   1.116348
    19  H   -0.000000   0.000000   0.000000   0.000382  -0.000547   0.008432
    20  H    0.000000  -0.000000  -0.000000  -0.002300   0.001336   0.058337
    21  H   -0.000000   0.000001  -0.000259   0.150273  -0.000000   0.000004
    22  H    0.000001   0.000001   0.000183   0.056942  -0.000000  -0.000114
    23  H    0.000299  -0.006690  -0.006819   0.108170   0.000000   0.000000
    24  H   -0.001006   0.000066   0.008161   0.023418  -0.000000   0.000000
    25  H   -0.001636   0.165583   0.181460  -0.029306  -0.000000  -0.000000
    26  H    0.269946   0.014884   0.000053   0.000001   0.000000  -0.000000
    27  H   -0.126406   0.283538  -0.005011  -0.000000   0.000000  -0.000000
    28  H   -0.211137   0.914094  -0.227995  -0.001177  -0.000000  -0.000000
              19         20         21         22         23         24
     1  S    0.202962  -0.005700   0.000244  -0.000046   0.000001   0.000000
     2  C   -0.054340   0.021564   0.084585  -0.010272   0.002858  -0.000025
     3  C   -0.168378  -0.092782   0.002184  -0.000443   0.000000  -0.000000
     4  C    0.108774  -0.035150  -0.137577   0.009958   0.000021  -0.000006
     5  C    0.011868   0.280778   0.001537   0.022755  -0.000341  -0.000202
     6  C   -0.004331  -0.020972  -0.062426  -0.048060   0.009701  -0.005756
     7  C   -0.000363  -0.003963   0.032806   0.255444   0.017957  -0.029033
     8  C    0.000001  -0.000049  -0.002619  -0.043478   0.030958  -0.009594
     9  C   -0.000000   0.000000   0.000202  -0.005372  -0.027575   0.293291
    10  C    0.000000   0.000007   0.004365  -0.002407  -0.178000  -0.039814
    11  N   -0.000000  -0.000000  -0.000002  -0.000155   0.007851  -0.012687
    12  N    0.000000   0.000000   0.000001  -0.000000  -0.001340   0.000491
    13  C   -0.000000   0.000000  -0.000000   0.000001   0.000299  -0.001006
    14  C    0.000000  -0.000000   0.000001   0.000001  -0.006690   0.000066
    15  C    0.000000  -0.000000  -0.000259   0.000183  -0.006819   0.008161
    16  S    0.000382  -0.002300   0.150273   0.056942   0.108170   0.023418
    17  H   -0.000547   0.001336  -0.000000  -0.000000   0.000000  -0.000000
    18  H    0.008432   0.058337   0.000004  -0.000114   0.000000   0.000000
    19  H    0.832250   0.000652  -0.002186  -0.000007  -0.000001   0.000000
    20  H    0.000652   0.645769  -0.000113  -0.004809   0.000009   0.000006
    21  H   -0.002186  -0.000113   0.908208  -0.002402  -0.016456   0.000033
    22  H   -0.000007  -0.004809  -0.002402   0.666380  -0.000859   0.016465
    23  H   -0.000001   0.000009  -0.016456  -0.000859   0.955519  -0.003681
    24  H    0.000000   0.000006   0.000033   0.016465  -0.003681   0.480824
    25  H    0.000000  -0.000000   0.001540   0.000011  -0.009336  -0.000031
    26  H    0.000000  -0.000000   0.000000  -0.000000  -0.000001   0.000006
    27  H   -0.000000  -0.000000  -0.000000   0.000000   0.000004  -0.000001
    28  H   -0.000000  -0.000000  -0.000001   0.000000   0.000564   0.000065
              25         26         27         28
     1  S   -0.000000   0.000000  -0.000000  -0.000000
     2  C   -0.000067  -0.000000   0.000000   0.000000
     3  C   -0.000000  -0.000000   0.000000   0.000000
     4  C   -0.000001  -0.000000   0.000000   0.000000
     5  C    0.000003   0.000000   0.000000   0.000000
     6  C    0.000325   0.000000   0.000000  -0.000002
     7  C   -0.001360  -0.000000  -0.000000   0.000075
     8  C   -0.038423  -0.000035   0.000006   0.010024
     9  C    0.033520  -0.000033  -0.000107  -0.026027
    10  C   -0.084235  -0.000314  -0.000046   0.017334
    11  N    0.025661  -0.000613   0.001798  -0.128564
    12  N   -0.191932  -0.030758  -0.066298  -0.531456
    13  C   -0.001636   0.269946  -0.126406  -0.211137
    14  C    0.165583   0.014884   0.283538   0.914094
    15  C    0.181460   0.000053  -0.005011  -0.227995
    16  S   -0.029306   0.000001  -0.000000  -0.001177
    17  H   -0.000000   0.000000   0.000000  -0.000000
    18  H   -0.000000  -0.000000  -0.000000  -0.000000
    19  H    0.000000   0.000000  -0.000000  -0.000000
    20  H   -0.000000  -0.000000  -0.000000  -0.000000
    21  H    0.001540   0.000000  -0.000000  -0.000001
    22  H    0.000011  -0.000000   0.000000   0.000000
    23  H   -0.009336  -0.000001   0.000004   0.000564
    24  H   -0.000031   0.000006  -0.000001   0.000065
    25  H    0.929583   0.000044  -0.000041  -0.003180
    26  H    0.000044   0.576367   0.032447  -0.011456
    27  H   -0.000041   0.032447   1.050936   0.013115
    28  H   -0.003180  -0.011456   0.013115   0.768022
 Mulliken charges:
               1
     1  S    0.296532
     2  C   -0.058022
     3  C   -0.218697
     4  C    0.118457
     5  C   -0.367534
     6  C    0.297193
     7  C   -0.434898
     8  C    0.604341
     9  C   -0.247278
    10  C    0.173168
    11  N   -0.303755
    12  N    1.517219
    13  C   -0.371887
    14  C   -1.276199
    15  C   -0.502195
    16  S   -0.284975
    17  H   -0.072625
    18  H   -0.020640
    19  H    0.064830
    20  H    0.157379
    21  H    0.038058
    22  H    0.090286
    23  H    0.117184
    24  H    0.279012
    25  H    0.021818
    26  H    0.149461
    27  H   -0.183933
    28  H    0.417700
 Sum of Mulliken charges =  -0.00000
 Mulliken charges with hydrogens summed into heavy atoms:
               1
     1  S    0.223907
     2  C   -0.058022
     3  C   -0.239337
     4  C    0.183287
     5  C   -0.210155
     6  C    0.297193
     7  C   -0.344612
     8  C    0.604341
     9  C    0.031734
    10  C    0.173168
    11  N   -0.303755
    12  N    1.517219
    13  C   -0.222426
    14  C   -1.042431
    15  C   -0.480377
    16  S   -0.129733
 Electronic spatial extent (au):  <R**2>=           6626.8431
 Charge=             -0.0000 electrons
 Dipole moment (field-independent basis, Debye):
    X=             -1.3046    Y=              0.2028    Z=             -0.0000  Tot=              1.3203
 Quadrupole moment (field-independent basis, Debye-Ang):
   XX=           -119.9018   YY=           -107.1738   ZZ=           -108.8494
   XY=              4.4951   XZ=             -0.0001   YZ=              0.0000
 Traceless Quadrupole moment (field-independent basis, Debye-Ang):
   XX=             -7.9268   YY=              4.8012   ZZ=              3.1256
   XY=              4.4951   XZ=             -0.0001   YZ=              0.0000
 Octapole moment (field-independent basis, Debye-Ang**2):
  XXX=            -65.6472  YYY=             -2.6268  ZZZ=             -0.0000  XYY=             24.6182
  XXY=            -36.5175  XXZ=             -0.0003  XZZ=             -6.4417  YZZ=             -6.9707
  YYZ=             -0.0000  XYZ=              0.0001
 Hexadecapole moment (field-independent basis, Debye-Ang**3):
 XXXX=          -9854.3585 YYYY=           -613.7667 ZZZZ=           -112.3053 XXXY=            375.5711
 XXXZ=             -0.0023 YYYX=             12.5017 YYYZ=              0.0000 ZZZX=             -0.0002
 ZZZY=              0.0001 XXYY=          -1573.2922 XXZZ=          -1442.5550 YYZZ=           -131.0821
 XXYZ=              0.0004 YYXZ=             -0.0002 ZZXY=             -8.0389
 N-N= 1.331834728451D+03 E-N=-5.877599213841D+03  KE= 1.388073265672D+03
 PrsmSu:  requested number of processors reduced to:  13 ShMem   1 Linda.
 Calling FoFJK, ICntrl=      2127 FMM=F ISym2X=0 I1Cent= 0 IOpClX= 0 NMat=1 NMatS=1 NMatT=0.
 ***** Axes restored to original set *****
 -------------------------------------------------------------------
 Center     Atomic                   Forces (Hartrees/Bohr)
 Number     Number              X              Y              Z
 -------------------------------------------------------------------
      1       16          -1.136934580    0.008665505    1.468212437
      2        6           2.974578157   -0.004507948   -0.764951871
      3        6           0.927955873   -0.008025214   -1.359772158
      4        6          -2.659269909    0.004523018    0.767471068
      5        6           0.051774618   -0.000161567   -0.027388317
      6        6          -0.133387399   -0.000629675   -0.106650852
      7        6           0.003807769    0.000111235    0.018760640
      8        6          -9.057938369   -0.001099503   -0.195240493
      9        6           0.205821122   -0.001537752   -0.260531610
     10        6           9.005411066    0.002569645    0.444130942
     11        7           0.041767227   -0.000850193   -0.143902806
     12        7          -8.980504871    0.074928532   12.702396903
     13        6          -0.032458058   -0.000509311   -0.086202181
     14        6           9.520635244   -0.071289496  -12.086086430
     15        6          -0.078365130    0.000394638    0.066847756
     16       16           0.061185061    0.001597509    0.270519147
     17        1           0.035049386   -0.000191880   -0.032450598
     18        1          -0.038034023   -0.000114822   -0.019472086
     19        1          -0.042502508    0.000112589    0.019081144
     20        1          -0.052949635   -0.000403250   -0.068234108
     21        1           0.069636735    0.000132686    0.022480571
     22        1          -0.037932336   -0.000470499   -0.079682453
     23        1          -0.001904234    0.000567437    0.096080715
     24        1          -0.134029587   -0.000621957   -0.105062611
     25        1           0.039504637   -0.000075568   -0.012813493
     26        1          -0.066515759    0.000337966    0.057126135
     27        1          -0.036454851    0.000124275    0.021030982
     28        1          -0.447945647   -0.003576398   -0.605696372
 -------------------------------------------------------------------
 Cartesian Forces:  Max    12.702396903 RMS     2.816330209

 GradGradGradGradGradGradGradGradGradGradGradGradGradGradGradGradGradGrad
 Berny optimization.
 FormGI is forming the generalized inverse of G from B-inverse, IUseBI=4.
 Internal  Forces:  Max    11.617385022 RMS     1.056778877
 Search for a local minimum.
 Step number   1 out of a maximum of  168
 All quantities printed in internal units (Hartrees-Bohrs-Radians)
 Mixed Optimization -- RFO/linear search
 Second derivative matrix not updated -- first step.
 ITU=  0
     Eigenvalues ---    0.00230   0.00230   0.00230   0.00230   0.00230
     Eigenvalues ---    0.00230   0.00230   0.00230   0.00230   0.00230
     Eigenvalues ---    0.00235   0.00437   0.00557   0.00599   0.00933
     Eigenvalues ---    0.00969   0.01122   0.01249   0.01377   0.01653
     Eigenvalues ---    0.03311   0.03602   0.03702   0.04641   0.07018
     Eigenvalues ---    0.07241   0.08084   0.09013   0.09041   0.09105
     Eigenvalues ---    0.09702   0.10451   0.10671   0.11255   0.11559
     Eigenvalues ---    0.12218   0.12610   0.12924   0.14769   0.15306
     Eigenvalues ---    0.16000   0.16000   0.16000   0.16000   0.16000
     Eigenvalues ---    0.16978   0.17106   0.17590   0.18208   0.18257
     Eigenvalues ---    0.18266   0.18319   0.19721   0.20424   0.21587
     Eigenvalues ---    0.22090   0.22471   0.22540   0.22852   0.23271
     Eigenvalues ---    0.23597   0.24276   0.28155   0.28815   0.29157
     Eigenvalues ---    0.34310   0.41369   0.41452   0.45479   0.46756
     Eigenvalues ---    0.48069   0.62004   0.62155   0.84837   6.47340
     Eigenvalues ---   10.54316  13.14028  13.36263
 RFO step:  Lambda=-1.04218337D+01 EMin= 2.30000000D-03
 Linear search not attempted -- first point.
 Maximum step size (   0.300) exceeded in Quadratic search.
    -- Step size scaled by   0.443
 Iteration  1 RMS(Cart)=  0.03077074 RMS(Int)=  0.00145289
 Iteration  2 RMS(Cart)=  0.00183747 RMS(Int)=  0.00020058
 Iteration  3 RMS(Cart)=  0.00000691 RMS(Int)=  0.00020036
 Iteration  4 RMS(Cart)=  0.00000001 RMS(Int)=  0.00020036
 Variable       Old X    -DE/DX   Delta X   Delta X   Delta X     New X
                                 (Linear)    (Quad)   (Total)
    R1        2.07118   1.15124   0.00000   0.02918   0.02917   2.10035
    R2        3.67115   0.41559   0.00000   0.01286   0.01287   3.68402
    R3        3.30322   0.17054   0.00000   0.00535   0.00536   3.30858
    R4        1.52094   2.34531   0.00000   0.04339   0.04340   1.56434
    R5        3.24000   0.29552   0.00000   0.00657   0.00658   3.24658
    R6        3.03784  -0.38894   0.00000  -0.00781  -0.00781   3.03003
    R7        2.47489  -0.36227   0.00000  -0.00588  -0.00589   2.46900
    R8        3.43714   0.10454   0.00000   0.00180   0.00180   3.43893
    R9        3.06521  -0.00547   0.00000  -0.00054  -0.00055   3.06466
   R10        3.31561   0.32237   0.00000   0.00740   0.00739   3.32300
   R11        2.46974   0.02420   0.00000   0.00101   0.00101   2.47075
   R12        3.06631   0.25620   0.00000   0.00415   0.00415   3.07046
   R13        1.88565   0.07832   0.00000   0.00318   0.00318   1.88883
   R14        2.59101  -0.02281   0.00000  -0.00092  -0.00093   2.59008
   R15        3.42825   0.09231   0.00000   0.00384   0.00384   3.43209
   R16        3.93482   0.08097   0.00000   0.00339   0.00339   3.93821
   R17        1.89988   0.08284   0.00000   0.00337   0.00337   1.90324
   R18        2.44838   0.62967   0.00000   0.01693   0.01707   2.46545
   R19        1.11729   5.40742   0.00000   0.11462   0.11474   1.23202
   R20        3.55526  -0.56994   0.00000  -0.01039  -0.01015   3.54511
   R21        2.45851   0.62528   0.00000   0.01623   0.01612   2.47463
   R22        2.66326   0.48893   0.00000   0.00893   0.00896   2.67222
   R23        1.76089   0.15641   0.00000   0.00627   0.00627   1.76716
   R24        2.77397  -0.52705   0.00000  -0.01064  -0.01066   2.76331
   R25        3.97475   1.10726   0.00000   0.02564   0.02541   4.00016
   R26        3.11322   0.70247   0.00000   0.01191   0.01201   3.12523
   R27        3.03316   0.75488   0.00000   0.01634   0.01621   3.04937
   R28        0.98508  11.61739   0.00000   0.21848   0.21878   1.20386
   R29        2.88458  -0.61347   0.00000  -0.01099  -0.01113   2.87345
   R30        1.83427   3.61466   0.00000   0.07313   0.07215   1.90642
   R31        3.37881  -1.79966   0.00000  -0.02993  -0.03073   3.34809
   R32        2.62483  -0.08729   0.00000  -0.00366  -0.00366   2.62117
   R33        2.13695   1.43156   0.00000   0.02407   0.02482   2.16177
   R34        3.23439  -0.04170   0.00000  -0.00176  -0.00176   3.23263
   R35        1.40372  -0.55029   0.00000  -0.00320  -0.00116   1.40257
   R36        2.32609  -0.01497   0.00000  -0.00062  -0.00062   2.32547
   R37        2.82422  -0.02030   0.00000  -0.00085  -0.00085   2.82337
   R38        2.77741  -0.02294   0.00000  -0.00096  -0.00096   2.77645
   R39        3.49730  -0.04765   0.00000  -0.00202  -0.00202   3.49528
    A1        1.83151  -0.38036   0.00000  -0.00956  -0.00954   1.82197
    A2        2.40404  -0.30924   0.00000  -0.00575  -0.00574   2.39830
    A3        1.90824   0.13266   0.00000   0.00351   0.00352   1.91176
    A4        1.81023   0.31420   0.00000   0.00690   0.00690   1.81713
    A5        1.22688  -0.18737   0.00000  -0.00499  -0.00498   1.22189
    A6        2.53023  -0.27685   0.00000  -0.00592  -0.00592   2.52431
    A7        1.95752   0.15731   0.00000   0.00346   0.00347   1.96099
    A8        1.79544   0.11953   0.00000   0.00245   0.00245   1.79789
    A9        1.21739   0.52891   0.00000   0.00973   0.00972   1.22711
   A10        2.49439   0.38162   0.00000   0.00748   0.00747   2.50187
   A11        2.22123   0.29121   0.00000   0.00499   0.00499   2.22622
   A12        1.27700  -0.14730   0.00000  -0.00224  -0.00224   1.27476
   A13        1.47156   0.45348   0.00000   0.00786   0.00786   1.47942
   A14        2.02667  -0.30957   0.00000  -0.00511  -0.00511   2.02156
   A15        2.78496  -0.14391   0.00000  -0.00275  -0.00275   2.78221
   A16        2.87455   0.08273   0.00000   0.00215   0.00216   2.87670
   A17        2.00658  -0.09281   0.00000  -0.00258  -0.00258   2.00400
   A18        1.75552  -0.05719   0.00000  -0.00111  -0.00111   1.75441
   A19        2.04132   0.02216   0.00000   0.00094   0.00094   2.04226
   A20        1.92394   1.56128   0.00000   0.03294   0.03290   1.95684
   A21        1.57547  -1.19553   0.00000  -0.02427  -0.02421   1.55126
   A22        1.46454  -0.58269   0.00000  -0.01188  -0.01179   1.45275
   A23        2.03488   0.94843   0.00000   0.02056   0.02048   2.05535
   A24        2.78377  -0.36575   0.00000  -0.00867  -0.00869   2.77508
   A25        1.88491   0.71361   0.00000   0.01354   0.01351   1.89842
   A26        2.38386  -1.33197   0.00000  -0.02776  -0.02782   2.35603
   A27        2.01442   0.61836   0.00000   0.01422   0.01432   2.02873
   A28        2.64118  -1.22237   0.00000  -0.02419  -0.02417   2.61700
   A29        1.67376   0.11057   0.00000   0.00292   0.00285   1.67661
   A30        1.96825   1.11180   0.00000   0.02127   0.02132   1.98957
   A31        2.48820  -1.43422   0.00000  -0.02528  -0.02561   2.46258
   A32        1.63065   0.44976   0.00000   0.00729   0.00749   1.63814
   A33        1.38943   1.40703   0.00000   0.02681   0.02666   1.41608
   A34        1.14530  -0.43275   0.00000  -0.00874  -0.00823   1.13706
   A35        1.95617  -1.07503   0.00000  -0.02045  -0.02018   1.93599
   A36        2.20030   0.76475   0.00000   0.01510   0.01471   2.21501
   A37        2.10145  -1.38224   0.00000  -0.02824  -0.02765   2.07379
   A38        2.57979   2.02970   0.00000   0.03919   0.03871   2.61849
   A39        1.60195  -0.64747   0.00000  -0.01094  -0.01105   1.59090
   A40        1.97878   2.69557   0.00000   0.05090   0.05053   2.02931
   A41        1.25997  -0.24149   0.00000  -0.00457  -0.00457   1.25540
   A42        2.73743   0.05613   0.00000   0.00087   0.00072   2.73815
   A43        1.62387   0.09183   0.00000   0.00248   0.00253   1.62640
   A44        1.47746   0.29762   0.00000   0.00545   0.00529   1.48275
   A45        1.92188  -0.14796   0.00000  -0.00335  -0.00325   1.91863
   A46        1.71111  -0.77319   0.00000  -0.01809  -0.01812   1.69299
   A47        1.98746   0.59483   0.00000   0.01071   0.01074   1.99821
   A48        1.11244   0.08106   0.00000   0.00341   0.00341   1.11585
   A49        2.78532  -0.00476   0.00000  -0.00019  -0.00019   2.78513
   A50        1.00467  -0.74958   0.00000  -0.01711  -0.01714   0.98753
   A51        1.28103   0.61844   0.00000   0.01169   0.01172   1.29274
   A52        1.81888   0.05745   0.00000   0.00243   0.00243   1.82131
   A53        2.07888   0.01884   0.00000   0.00079   0.00079   2.07967
   A54        2.82355  -0.69213   0.00000  -0.01468  -0.01471   2.80884
   A55        1.07421   0.76842   0.00000   0.01791   0.01794   1.09214
   A56        0.79785  -0.59960   0.00000  -0.01090  -0.01093   0.78693
   A57        2.38543  -0.07629   0.00000  -0.00323  -0.00323   2.38220
   A58        1.23507  -0.18631   0.00000  -0.00476  -0.00476   1.23031
   A59        1.89350   0.17478   0.00000   0.00428   0.00427   1.89777
   A60        3.25878  -0.03454   0.00000  -0.00001  -0.00001   3.25877
   A61        3.22469  -0.28763   0.00000  -0.00692  -0.00692   3.21777
   A62        3.18440  -0.03005   0.00000  -0.00152  -0.00152   3.18288
   A63        3.03711   0.12683   0.00000   0.00191   0.00191   3.03902
   A64        3.15758  -0.04710   0.00000  -0.00069  -0.00069   3.15690
   A65        3.07441   0.03568   0.00000   0.00150   0.00150   3.07591
   A66        3.16357  -2.18002   0.00000  -0.04586  -0.04573   3.11785
   A67        3.21718  -0.30962   0.00000  -0.00731  -0.00722   3.20996
   A68        3.34560   0.33200   0.00000   0.00636   0.00648   3.35208
   A69        2.88385  -0.14967   0.00000  -0.00209  -0.00204   2.88181
   A70        3.09990   0.67589   0.00000   0.01412   0.01415   3.11406
   A71        3.20313  -1.42644   0.00000  -0.02526  -0.02586   3.17726
   A72        3.14160   0.00000   0.00000   0.00000   0.00000   3.14160
   A73        3.14160   0.00000   0.00000   0.00000   0.00000   3.14160
   A74        3.14160   0.00000   0.00000  -0.00000  -0.00000   3.14160
   A75        3.14159   0.00000   0.00000  -0.00000  -0.00000   3.14159
   A76        3.14160   0.00000   0.00000   0.00000   0.00000   3.14160
   A77        3.14159   0.00000   0.00000   0.00000   0.00000   3.14159
   A78        3.14160  -0.00000   0.00000  -0.00000  -0.00000   3.14160
   A79        3.14158   0.00001   0.00000   0.00000   0.00000   3.14158
   A80        3.14160  -0.00001   0.00000  -0.00000  -0.00000   3.14160
   A81        3.14159   0.00002   0.00000   0.00000   0.00000   3.14159
   A82        3.14159  -0.00000   0.00000  -0.00000  -0.00000   3.14159
   A83        3.14160  -0.00018   0.00000  -0.00000  -0.00000   3.14160
    D1        0.00000  -0.00000   0.00000  -0.00000  -0.00000   0.00000
    D2       -3.14159  -0.00000   0.00000  -0.00000  -0.00000  -3.14159
    D3       -3.14159   0.00000   0.00000   0.00000   0.00000  -3.14159
    D4       -0.00002   0.00000   0.00000   0.00000   0.00000  -0.00002
    D5        3.14159  -0.00000   0.00000  -0.00000  -0.00000   3.14159
    D6        0.00000  -0.00000   0.00000  -0.00000  -0.00000   0.00000
    D7       -3.14158  -0.00000   0.00000  -0.00000  -0.00000  -3.14158
    D8       -3.14158  -0.00000   0.00000  -0.00000  -0.00000  -3.14158
    D9        0.00000   0.00000   0.00000   0.00000   0.00000   0.00000
   D10       -3.14159  -0.00000   0.00000  -0.00000  -0.00000  -3.14159
   D11       -3.14159  -0.00000   0.00000   0.00000   0.00000  -3.14159
   D12        0.00000   0.00000   0.00000   0.00000   0.00000   0.00000
   D13       -3.14159  -0.00000   0.00000  -0.00000  -0.00000  -3.14159
   D14        3.14159   0.00000   0.00000   0.00000   0.00000   3.14159
   D15       -0.00000  -0.00000   0.00000  -0.00000  -0.00000  -0.00000
   D16       -3.14159  -0.00000   0.00000  -0.00000  -0.00000  -3.14159
   D17        3.14159  -0.00000   0.00000  -0.00000  -0.00000   3.14159
   D18       -0.00000   0.00000   0.00000  -0.00000  -0.00000  -0.00000
   D19       -3.14159   0.00000   0.00000   0.00000   0.00000  -3.14159
   D20       -3.14159  -0.00000   0.00000  -0.00000  -0.00000  -3.14159
   D21        0.00000   0.00000   0.00000   0.00000   0.00000   0.00000
   D22       -3.14158  -0.00000   0.00000  -0.00000  -0.00000  -3.14158
   D23       -3.14159   0.00000   0.00000   0.00000   0.00000  -3.14159
   D24        3.14159  -0.00000   0.00000  -0.00000  -0.00000   3.14159
   D25       -0.00000  -0.00000   0.00000  -0.00000  -0.00000  -0.00000
   D26       -3.14158  -0.00000   0.00000  -0.00000  -0.00000  -3.14158
   D27        0.00001   0.00000   0.00000   0.00000   0.00000   0.00001
   D28        0.00000  -0.00000   0.00000  -0.00000  -0.00000   0.00000
   D29       -3.14159   0.00000   0.00000   0.00000   0.00000  -3.14159
   D30        0.00001  -0.00000   0.00000  -0.00000  -0.00000   0.00001
   D31        0.00001  -0.00000   0.00000  -0.00000  -0.00000   0.00001
   D32        0.00000  -0.00000   0.00000  -0.00000  -0.00000   0.00000
   D33       -3.14159   0.00000   0.00000   0.00000   0.00000  -3.14159
   D34       -3.14159   0.00000   0.00000  -0.00000   0.00000  -3.14159
   D35       -0.00000   0.00000   0.00000   0.00000   0.00000  -0.00000
   D36       -3.14158   0.00000   0.00000   0.00000   0.00000  -3.14158
   D37       -0.00003  -0.00000   0.00000  -0.00000  -0.00000  -0.00003
   D38       -3.14159  -0.00000   0.00000  -0.00000  -0.00000  -3.14159
   D39        3.14159  -0.00000   0.00000  -0.00000  -0.00000   3.14159
   D40       -3.14159  -0.00000   0.00000  -0.00000  -0.00000  -3.14159
   D41        3.14159   0.00000   0.00000   0.00000   0.00000   3.14159
   D42        0.00000  -0.00000   0.00000  -0.00000  -0.00000   0.00000
   D43       -0.00001  -0.00000   0.00000  -0.00000  -0.00000  -0.00001
   D44       -0.00001  -0.00000   0.00000  -0.00000  -0.00000  -0.00001
   D45       -0.00001  -0.00000   0.00000  -0.00000  -0.00000  -0.00001
   D46        3.14159  -0.00000   0.00000  -0.00000  -0.00000   3.14159
   D47        0.00000  -0.00000   0.00000  -0.00000  -0.00000   0.00000
   D48        3.14159  -0.00000   0.00000  -0.00000  -0.00000   3.14159
   D49        3.14159  -0.00001   0.00000  -0.00000  -0.00000   3.14159
   D50       -0.00001  -0.00001   0.00000  -0.00000  -0.00000  -0.00001
   D51        3.14159   0.00003   0.00000   0.00000   0.00000   3.14159
   D52       -0.00000   0.00001   0.00000   0.00000   0.00000  -0.00000
   D53        3.14159   0.00002   0.00000   0.00000   0.00000   3.14159
   D54       -0.00000   0.00000   0.00000   0.00000   0.00000  -0.00000
   D55        0.00001   0.00001   0.00000   0.00000   0.00000   0.00001
   D56       -3.14158  -0.00001   0.00000  -0.00000  -0.00000  -3.14158
[...]
   D91        3.14151  -0.00069  -0.00001   0.00000  -0.00000   3.14151
         Item               Value     Threshold  Converged?
 Maximum Force            0.394955     0.000450     NO 
 RMS     Force            0.054458     0.000300     NO 
 Maximum Displacement     0.586910     0.001800     NO 
 RMS     Displacement     0.078233     0.001200     NO 
 Predicted change in Energy=-1.293619D-01
 GradGradGradGradGradGradGradGradGradGradGradGradGradGradGradGradGradGrad

                          Input orientation:                          
 ---------------------------------------------------------------------
 Center     Atomic      Atomic             Coordinates (Angstroms)
 Number     Number       Type             X           Y           Z
 ---------------------------------------------------------------------
      1         16           0        3.428886    0.062490   -1.060994
      2          6           0        6.614899    0.060239   -1.442533
      3          6           0        4.404290    0.057116   -1.971627
      4          6           0        5.466203    0.061159   -1.286096
      5          6           0        5.887595    0.050716   -3.054384
      6          6           0        7.506865    0.052791   -2.703204
      7          6           0        8.014848    0.045312   -3.968984
      8          6           0        9.447501    0.044445   -4.116396
      9          6           0       10.417016    0.037957   -5.214048
     10          6           0       10.963733    0.045712   -3.900733
     11          7           0       11.891813    0.036877   -5.396710
     12          7           0       13.695401    0.044324   -4.134003
     13          6           0       12.852395    0.028124   -6.878251
     14          6           0       14.278673    0.031244   -6.351625
     15          6           0       12.331171    0.046741   -3.727073
     16         16           0        9.308743    0.055158   -2.301906
     17          1           0        1.544090    0.058580   -1.723651
     18          1           0        3.023384    0.052135   -2.813614
     19          1           0        5.064131    0.068570   -0.031457
     20          1           0        5.049201    0.047236   -3.643480
     21          1           0        8.437917    0.062284   -1.095757
     22          1           0        7.345777    0.040663   -4.756250
     23          1           0       10.756937    0.053959   -2.505548
     24          1           0        9.500065    0.035849   -5.569898
     25          1           0       12.299827    0.053985   -2.501603
     26          1           0       13.185903    0.020234   -8.214916
     27          1           0       14.731596    0.021087   -8.073655
     28          1           0       13.566861    0.035253   -5.667356
 ---------------------------------------------------------------------
                    Distance matrix (angstroms):
                    1          2          3          4          5
     1  S    0.000000
     2  C    3.208778   0.000000
     3  C    1.334426   2.273047   0.000000
     4  C    2.049716   1.159299   1.263973   0.000000
     5  C    3.165279   1.768368   1.836464   1.817834   0.000000
     6  C    4.396232   1.544328   3.187663   2.484464   1.656915
     7  C    5.430262   2.888431   4.126222   3.700504   2.315540
     8  C    6.749781   3.895309   5.480345   4.884835   3.714948
     9  C    8.129110   5.355457   6.831291   6.319802   5.017964
    10  C    8.052225   4.995530   6.837242   6.087643   5.146213
    11  N    9.508955   6.594080   8.233748   7.627988   6.444945
    12  N   10.716578   7.574812   9.539433   8.708074   7.882097
    13  C   11.074484   8.273719   9.769662   9.264401   7.945496
    14  C   12.071024   9.101289  10.802245  10.164649   9.015673
    15  C    9.292949   6.155898   8.118937   7.286039   6.478595
    16  S    6.009380   2.827605   4.915562   3.974547   3.502927
    17  H    1.997895   5.078596   2.870930   3.946446   4.542791
    18  H    1.798948   3.844335   1.617365   2.881104   2.874314
    19  H    1.932359   2.096684   2.049337   1.317512   3.133129
    20  H    3.048752   2.701064   1.791955   2.394022   1.024671
    21  H    5.009152   1.855708   4.127629   2.977803   3.215664
    22  H    5.384926   3.393419   4.050524   3.946541   2.241148
    23  H    7.469079   4.276274   6.375046   5.429455   4.900176
    24  H    7.562417   5.035864   6.238184   5.884186   4.402042
    25  H    8.987159   5.782740   7.913305   6.940888   6.436016
    26  H   12.098751   9.436359  10.774820  10.373234   8.938530
    27  H   13.301518  10.481130  11.995386  11.485646  10.169086
    28  H   11.135433   8.135081   9.879859   9.209602   8.111658
                    6          7          8          9         10
     6  C    0.000000
     7  C    1.363929   0.000000
     8  C    2.400677   1.440218   0.000000
     9  C    3.843636   2.705670   1.464528   0.000000
    10  C    3.658424   2.949675   1.531493   1.422588   0.000000
    11  N    5.146164   4.131505   2.759334   1.486067   1.760499
    12  N    6.351790   5.682950   4.247936   3.451717   2.741610
    13  C    6.782796   5.644997   4.384223   2.949702   3.526041
    14  C    7.692128   6.701692   5.323217   4.025732   4.122609
    15  C    4.931762   4.323097   2.909833   2.423874   1.378421
    16  S    1.846026   2.110311   1.819819   3.115949   2.301158
    17  H    6.042701   6.849263   8.257683   9.534784   9.667964
    18  H    4.484840   5.123440   6.554890   7.773550   8.014425
    19  H    3.620142   4.920507   5.991764   7.450743   7.055290
    20  H    2.631399   2.983457   4.423652   5.592871   5.920124
    21  H    1.857642   2.904257   3.184939   4.569218   3.774641
    22  H    2.059393   1.033182   2.196969   3.105172   3.717733
    23  H    3.256077   3.108179   2.075944   2.729795   1.410452
    24  H    3.491572   2.183778   1.454478   0.983581   2.220031
    25  H    4.797201   4.529275   3.277714   3.301908   1.934626
    26  H    7.914007   6.690918   5.547441   4.083168   4.852923
    27  H    9.002193   7.871697   6.601674   5.176218   5.622337
    28  H    6.746115   5.805981   4.401669   3.182298   3.146004
                   11         12         13         14         15
    11  N    0.000000
    12  N    2.201684   0.000000
    13  C    1.765717   2.870857   0.000000
    14  C    2.570796   2.293082   1.520398   0.000000
    15  C    1.726505   1.423629   3.194048   3.268222   0.000000
    16  S    4.031178   4.753889   5.788016   6.411005   3.341592
    17  H   10.980310  12.388073  12.427735  13.549483  10.971552
    18  H    9.236973  10.753392  10.636321  11.798283   9.352504
    19  H    8.683559   9.556688  10.370018  11.173795   8.152786
    20  H    7.063658   8.660103   8.447127   9.618599   7.282450
    21  H    5.516180   6.072265   7.275028   7.857452   4.699095
    22  H    4.590931   6.380041   5.901346   7.114095   5.090520
    23  H    3.105971   3.359543   4.848932   5.214925   1.992583
    24  H    2.398011   4.434266   3.598606   4.842129   3.378059
    25  H    2.923766   2.147661   4.411467   4.328858   1.225892
    26  H    3.101166   4.112666   1.377666   2.160120   4.568589
    27  H    3.902646   4.073708   2.227203   1.780626   4.965427
    28  H    1.696772   1.538759   1.405979   0.987378   2.300383
                   16         17         18         19         20
    16  S    0.000000
    17  H    7.786157   0.000000
    18  H    6.306156   1.837490   0.000000
    19  H    4.813715   3.905677   3.450408   0.000000
    20  H    4.465824   3.996458   2.189209   3.612117   0.000000
    21  H    1.487678   6.922363   5.680519   3.537683   4.239636
    22  H    3.142810   6.546492   4.738887   5.246938   2.551972
    23  H    1.462442   9.245969   7.739687   6.207204   5.820068
    24  H    3.273645   8.836949   7.038805   7.095979   4.849887
    25  H    2.997743  10.783836   9.281689   7.645727   7.339994
    26  H    7.070875  13.329284  11.508774  11.529723   9.332989
    27  H    7.919695  14.636743  12.835545  12.575336  10.647812
    28  H    5.427542  12.653078  10.922868  10.201024   8.754813
                   21         22         23         24         25
    21  H    0.000000
    22  H    3.820007   0.000000
    23  H    2.713934   4.086790   0.000000
    24  H    4.598565   2.302825   3.312144   0.000000
    25  H    4.109845   5.442998   1.542895   4.153725   0.000000
    26  H    8.557311   6.787478   6.204667   4.536713   5.781713
    27  H    9.396976   8.096658   6.841258   5.799821   6.079666
    28  H    6.870686   6.287450   4.230018   4.067964   3.409944
                   26         27         28
    26  H    0.000000
    27  H    1.552134   0.000000
    28  H    2.575930   2.673402   0.000000
 Stoichiometry    C12H12N2S2
 Framework group  C1[X(C12H12N2S2)]
 Deg. of freedom    78
 Full point group                 C1      NOp   1
 Largest Abelian subgroup         C1      NOp   1
 Largest concise Abelian subgroup C1      NOp   1
                         Standard orientation:                         
 ---------------------------------------------------------------------
 Center     Atomic      Atomic             Coordinates (Angstroms)
 Number     Number       Type             X           Y           Z
 ---------------------------------------------------------------------
      1         16           0       -5.781772    0.146167   -0.000002
      2          6           0       -2.727912   -0.838817    0.000004
      3          6           0       -4.515040    0.565788    0.000003
      4          6           0       -3.836850   -0.500836   -0.000001
      5          6           0       -2.714954    0.929503   -0.000001
      6          6           0       -1.390678   -0.066318    0.000002
      7          6           0       -0.400145    0.871310   -0.000002
      8          6           0        0.962988    0.406449    0.000004
      9          6           0        2.302537    0.998436   -0.000001
     10          6           0        2.250298   -0.423193   -0.000002
     11          7           0        3.718690    0.547984   -0.000001
     12          7           0        4.829429   -1.352981   -0.000010
     13          6           0        5.210574    1.492462   -0.000003
     14          6           0        6.286193    0.417913    0.000008
     15          6           0        3.419989   -1.152485    0.000003
     16         16           0        0.078545   -1.183992    0.000001
     17          1           0       -7.217085    1.535938    0.000001
     18          1           0       -5.417631    1.907875   -0.000007
     19          1           0       -4.726510   -1.472608   -0.000000
     20          1           0       -3.230389    1.815098   -0.000003
     21          1           0       -1.216697   -1.915795    0.000003
     22          1           0       -0.678928    1.866170   -0.000001
     23          1           0        1.479297   -1.604265    0.000006
     24          1           0        1.618248    1.704964   -0.000008
     25          1           0        2.879316   -2.252705    0.000010
     26          1           0        6.072229    2.567410    0.000001
     27          1           0        7.417400    1.793049    0.000022
     28          1           0        5.353537    0.093770   -0.000025
 ---------------------------------------------------------------------
 Rotational constants (GHZ):           2.4046560           0.1427220           0.1347257
 Standard basis: 6-31G(2df,p) (6D, 7F)
 There are   564 symmetry adapted cartesian basis functions of A   symmetry.
 There are   516 symmetry adapted basis functions of A   symmetry.
   516 basis functions,   836 primitive gaussians,   564 cartesian basis functions
    65 alpha electrons       65 beta electrons
       nuclear repulsion energy      1206.7845467036 Hartrees.
 NAtoms=   28 NActive=   28 NUniq=   28 SFac= 1.00D+00 NAtFMM=   60 NAOKFM=F Big=F
 Integral buffers will be    131072 words long.
 Raffenetti 2 integral format.
 Two-electron integral symmetry is turned on.
 One-electron integrals computed using PRISM.
 PrsmSu:  requested number of processors reduced to:  12 ShMem   1 Linda.
 NBasis=   516 RedAO= T EigKep=  1.11D-04  NBF=   516
 NBsUse=   516 1.00D-06 EigRej= -1.00D+00 NBFU=   516
 Initial guess from the checkpoint file:  "SC1dCCdCCdCCdCCdNNdCCdCS1.chk"
 B after Tr=    -0.000000    0.000000    0.000000
         Rot=    1.000000    0.000000   -0.000000   -0.000547 Ang=   0.06 deg.
 ExpMin= 1.17D-01 ExpMax= 2.19D+04 ExpMxC= 3.30D+03 IAcc=2 IRadAn=         4 AccDes= 0.00D+00
 Harris functional with IExCor=  402 and IRadAn=       4 diagonalized for initial guess.
 HarFok:  IExCor=  402 AccDes= 0.00D+00 IRadAn=         4 IDoV= 1 UseB2=F ITyADJ=14
 ICtDFT=  3500011 ScaDFX=  1.000000  1.000000  1.000000  1.000000
 FoFCou: FMM=F IPFlag=           0 FMFlag=      100000 FMFlg1=           0
         NFxFlg=           0 DoJE=T BraDBF=F KetDBF=T FulRan=T
         wScrn=  0.000000 ICntrl=       500 IOpCl=  0 I1Cent=   200000004 NGrid=           0
         NMat0=    1 NMatS0=      1 NMatT0=    0 NMatD0=    1 NMtDS0=    0 NMtDT0=    0
 Petite list used in FoFCou.
 Requested convergence on RMS density matrix=1.00D-08 within 128 cycles.
 Requested convergence on MAX density matrix=1.00D-06.
 Requested convergence on             energy=1.00D-06.
 No special actions if energy rises.
 Integral accuracy reduced to 1.0D-05 until final iterations.
 Initial convergence to 1.0D-05 achieved.  Increase integral accuracy.
 SCF Done:  E(RB3LYP) =  -1368.15184896     A.U. after   39 cycles
            NFock= 39  Conv=0.76D-08     -V/T= 2.0025
 PrsmSu:  requested number of processors reduced to:  13 ShMem   1 Linda.
 Calling FoFJK, ICntrl=      2127 FMM=F ISym2X=0 I1Cent= 0 IOpClX= 0 NMat=1 NMatS=1 NMatT=0.
 ***** Axes restored to original set *****
 -------------------------------------------------------------------
 Center     Atomic                   Forces (Hartrees/Bohr)
 Number     Number              X              Y              Z
 -------------------------------------------------------------------
      1       16          -0.460183335    0.002180543    0.369214571
      2        6           0.377447301   -0.000377099   -0.064167422
      3        6           0.169543963   -0.002568977   -0.435328998
      4        6          -0.115886344    0.000855248    0.145252522
      5        6           0.041926253    0.000000361   -0.000071246
      6        6          -0.128633371    0.000006270    0.000940383
      7        6          -0.009827987   -0.000511343   -0.086627637
      8        6          -0.052837518    0.000467535    0.079220208
      9        6           0.161512948   -0.000308470   -0.052520415
     10        6           0.001579330    0.000419553    0.071236812
     11        7          -0.096756334   -0.001041642   -0.176597822
     12        7          -0.078598819    0.000163046    0.027505360
     13        6           0.075021098   -0.000287702   -0.049139627
     14        6           0.018409087   -0.001098188   -0.186921743
     15        6           0.107293771    0.000570973    0.096424387
     16       16           0.049529130    0.000811124    0.137543919
     17        1           0.050064763    0.000005046    0.000927614
     18        1           0.033075177    0.000111404    0.018881262
     19        1          -0.000784482   -0.000128127   -0.021605295
     20        1          -0.008607922   -0.000286055   -0.048293566
     21        1           0.030868417    0.000170773    0.028912917
     22        1          -0.020793751   -0.000273690   -0.046317191
     23        1          -0.002290094    0.000195460    0.033211186
     24        1          -0.068412717   -0.000536567   -0.090677532
     25        1           0.033769711   -0.000179694   -0.030459889
     26        1          -0.029527041    0.000304064    0.051631504
     27        1          -0.021574380    0.000386006    0.065423390
     28        1          -0.055326854    0.000950147    0.162402350
 -------------------------------------------------------------------
 Cartesian Forces:  Max     0.460183335 RMS     0.109889119

 GradGradGradGradGradGradGradGradGradGradGradGradGradGradGradGradGradGrad
 Berny optimization.
 Using GEDIIS/GDIIS optimizer.
 FormGI is forming the generalized inverse of G from B-inverse, IUseBI=4.
 Internal  Forces:  Max     0.326186411 RMS     0.044395815
 Search for a local minimum.
 Step number   9 out of a maximum of  168
 All quantities printed in internal units (Hartrees-Bohrs-Radians)
 Mixed Optimization -- RFO/linear search
 Update second derivatives using D2CorX and points    8    9
 ITU=  0  0  0  0  0  0  0  1  0
 Use linear search instead of GDIIS.
 Linear search step of   1.478 exceeds DXMaxT=   0.505 scaled by   0.683
 Quartic linear search produced a step of  1.36579.
 SLEqS3 Cycle:   841 Max:0.388537     RMS:0.579106E-01 Conv:0.126508E-03
 SLEqS3 Cycle:   841 Max:0.388537     RMS:0.579106E-01 Conv:0.126508E-03
 Iteration  1 RMS(Cart)=  0.00601097 RMS(Int)=  0.22562639
 Iteration  2 RMS(Cart)=  0.00601865 RMS(Int)=  0.21639346
 New curvilinear step failed, DQL= 3.17D+00 SP=-1.81D-01.
 ITry= 1 IFail=1 DXMaxC= 3.15D-02 DCOld= 1.00D+10 DXMaxT= 5.05D-01 DXLimC= 3.00D+00 Rises=F
 SLEqS3 Cycle:   841 Max:0.388537     RMS:0.579106E-01 Conv:0.126508E-03
 SLEqS3 Cycle:   841 Max:0.388537     RMS:0.579106E-01 Conv:0.126508E-03
 Iteration  1 RMS(Cart)=  0.00601097 RMS(Int)=  0.22562639
 Iteration  2 RMS(Cart)=  0.00601865 RMS(Int)=  0.21639346
 New curvilinear step failed, DQL= 3.17D+00 SP=-1.81D-01.
 ITry= 2 IFail=1 DXMaxC= 3.15D-02 DCOld= 1.00D+10 DXMaxT= 5.05D-01 DXLimC= 3.00D+00 Rises=F
 SLEqS3 Cycle:   841 Max:0.388537     RMS:0.579106E-01 Conv:0.126508E-03
 SLEqS3 Cycle:   841 Max:0.388537     RMS:0.579106E-01 Conv:0.126508E-03
 Iteration  1 RMS(Cart)=  0.00601097 RMS(Int)=  0.22562639
 Iteration  2 RMS(Cart)=  0.00601865 RMS(Int)=  0.21639346
 New curvilinear step failed, DQL= 3.17D+00 SP=-1.81D-01.
 ITry= 3 IFail=1 DXMaxC= 3.15D-02 DCOld= 1.00D+10 DXMaxT= 5.05D-01 DXLimC= 3.00D+00 Rises=F
 SLEqS3 Cycle:   841 Max:0.388537     RMS:0.579106E-01 Conv:0.126508E-03
 SLEqS3 Cycle:   841 Max:0.388537     RMS:0.579106E-01 Conv:0.126508E-03
 Iteration  1 RMS(Cart)=  0.00601097 RMS(Int)=  0.22562639
 Iteration  2 RMS(Cart)=  0.00601865 RMS(Int)=  0.21639346
 New curvilinear step failed, DQL= 3.17D+00 SP=-1.81D-01.
 ITry= 4 IFail=1 DXMaxC= 3.15D-02 DCOld= 1.00D+10 DXMaxT= 5.05D-01 DXLimC= 3.00D+00 Rises=F
 SLEqS3 Cycle:   841 Max:0.388537     RMS:0.579106E-01 Conv:0.126508E-03
 SLEqS3 Cycle:   841 Max:0.388537     RMS:0.579106E-01 Conv:0.126508E-03
 Iteration  1 RMS(Cart)=  0.00601097 RMS(Int)=  0.22562639
 Iteration  2 RMS(Cart)=  0.00601865 RMS(Int)=  0.21639346
 New curvilinear step failed, DQL= 3.17D+00 SP=-1.81D-01.
 ITry= 5 IFail=1 DXMaxC= 3.15D-02 DCOld= 1.00D+10 DXMaxT= 5.05D-01 DXLimC= 3.00D+00 Rises=F
 SLEqS3 Cycle:   841 Max:0.388537     RMS:0.579106E-01 Conv:0.126508E-03
 SLEqS3 Cycle:   841 Max:0.388537     RMS:0.579106E-01 Conv:0.126508E-03
 Iteration  1 RMS(Cart)=  0.00601097 RMS(Int)=  0.22562639
 Iteration  2 RMS(Cart)=  0.00601865 RMS(Int)=  0.21639346
 New curvilinear step failed, DQL= 3.17D+00 SP=-1.81D-01.
 ITry= 6 IFail=1 DXMaxC= 3.15D-02 DCOld= 1.00D+10 DXMaxT= 5.05D-01 DXLimC= 3.00D+00 Rises=F
 SLEqS3 Cycle:   841 Max:0.388537     RMS:0.579106E-01 Conv:0.126508E-03
 SLEqS3 Cycle:   841 Max:0.388537     RMS:0.579106E-01 Conv:0.126508E-03
 Iteration  1 RMS(Cart)=  0.00601097 RMS(Int)=  0.22562639
 Iteration  2 RMS(Cart)=  0.00601865 RMS(Int)=  0.21639346
 New curvilinear step failed, DQL= 3.17D+00 SP=-1.81D-01.
 ITry= 7 IFail=1 DXMaxC= 3.15D-02 DCOld= 1.00D+10 DXMaxT= 5.05D-01 DXLimC= 3.00D+00 Rises=F
slurmstepd: error: *** JOB 27447025 ON lewis4-r630-hpc4-node674 CANCELLED AT 2023-05-17T23:17:27 DUE TO TIME LIMIT ***
