### Starting Gaussian ###
 Entering Gaussian System, Link 0=g16
 Initial command:
 /cluster/software/gaussian/gaussian-16-A.03/avx2/g16/l1.exe "/local/scratch/cz9n3/Gau-31125.inp" -scrdir="/local/scratch/cz9n3/"
 Entering Link 1 = /cluster/software/gaussian/gaussian-16-A.03/avx2/g16/l1.exe PID=     31126.
  
 Copyright (c) 1988,1990,1992,1993,1995,1998,2003,2009,2016,
            Gaussian, Inc.  All Rights Reserved.
  
 This is part of the Gaussian(R) 16 program.  It is based on
 the Gaussian(R) 09 system (copyright 2009, Gaussian, Inc.),
 the Gaussian(R) 03 system (copyright 2003, Gaussian, Inc.),
 the Gaussian(R) 98 system (copyright 1998, Gaussian, Inc.),
 the Gaussian(R) 94 system (copyright 1995, Gaussian, Inc.),
 the Gaussian 92(TM) system (copyright 1992, Gaussian, Inc.),
 the Gaussian 90(TM) system (copyright 1990, Gaussian, Inc.),
 the Gaussian 88(TM) system (copyright 1988, Gaussian, Inc.),
 the Gaussian 86(TM) system (copyright 1986, Carnegie Mellon
 University), and the Gaussian 82(TM) system (copyright 1983,
 Carnegie Mellon University). Gaussian is a federally registered
 trademark of Gaussian, Inc.
  
 This software contains proprietary and confidential information,
 including trade secrets, belonging to Gaussian, Inc.
  
 This software is provided under written license and may be
 used, copied, transmitted, or stored only in accord with that
 written license.
  
 The following legend is applicable only to US Government
 contracts under FAR:
  
                    RESTRICTED RIGHTS LEGEND
  
 Use, reproduction and disclosure by the US Government is
 subject to restrictions as set forth in subparagraphs (a)
 and (c) of the Commercial Computer Software - Restricted
 Rights clause in FAR 52.227-19.
  
 Gaussian, Inc.
 340 Quinnipiac St., Bldg. 40, Wallingford CT 06492
  
  
 ---------------------------------------------------------------
 Warning -- This program may not be used in any manner that
 competes with the business of Gaussian, Inc. or will provide
 assistance to any competitor of Gaussian, Inc.  The licensee
 of this program is prohibited from giving any competitor of
 Gaussian, Inc. access to this program.  By using this program,
 the user acknowledges that Gaussian, Inc. is engaged in the
 business of creating and licensing software in the field of
 computational chemistry and represents and warrants to the
 licensee that it is not a competitor of Gaussian, Inc. and that
 it will not use this program in any manner prohibited above.
 ---------------------------------------------------------------
  

 Cite this work as:
 Gaussian 16, Revision A.03,
 M. J. Frisch, G. W. Trucks, H. B. Schlegel, G. E. Scuseria, 
 M. A. Robb, J. R. Cheeseman, G. Scalmani, V. Barone, 
 G. A. Petersson, H. Nakatsuji, X. Li, M. Caricato, A. V. Marenich, 
 J. Bloino, B. G. Janesko, R. Gomperts, B. Mennucci, H. P. Hratchian, 
 J. V. Ortiz, A. F. Izmaylov, J. L. Sonnenberg, D. Williams-Young, 
 F. Ding, F. Lipparini, F. Egidi, J. Goings, B. Peng, A. Petrone, 
 T. Henderson, D. Ranasinghe, V. G. Zakrzewski, J. Gao, N. Rega, 
 G. Zheng, W. Liang, M. Hada, M. Ehara, K. Toyota, R. Fukuda, 
 J. Hasegawa, M. Ishida, T. Nakajima, Y. Honda, O. Kitao, H. Nakai, 
 T. Vreven, K. Throssell, J. A. Montgomery, Jr., J. E. Peralta, 
 F. Ogliaro, M. J. Bearpark, J. J. Heyd, E. N. Brothers, K. N. Kudin, 
 V. N. Staroverov, T. A. Keith, R. Kobayashi, J. Normand, 
 K. Raghavachari, A. P. Rendell, J. C. Burant, S. S. Iyengar, 
 J. Tomasi, M. Cossi, J. M. Millam, M. Klene, C. Adamo, R. Cammi, 
 J. W. Ochterski, R. L. Martin, K. Morokuma, O. Farkas, 
 J. B. Foresman, and D. J. Fox, Gaussian, Inc., Wallingford CT, 2016.
 
 ******************************************
 Gaussian 16:  ES64L-G16RevA.03 25-Dec-2016
                15-May-2023 
 ******************************************
 %chk=SCC1Cd[SH]C2dC1CdCCdCCdCdCdC2.chk
 %NProcShared=20
 Will use up to   20 processors via shared memory.
 -----------------------------
 # opt freq b3lyp/6-31g(2df,p)
 -----------------------------
 1/18=20,19=15,26=3,38=1/1,3;
 2/9=110,12=2,17=6,18=5,40=1/2;
 3/5=1,6=6,7=104,11=2,25=1,30=1,71=1,74=-5/1,2,3;
 4//1;
 5/5=2,38=5/2;
 6/7=2,8=2,9=2,10=2,28=1/1;
 7//1,2,3,16;
 1/18=20,19=15,26=3/3(2);
 2/9=110/2;
 99//99;
 2/9=110/2;
 3/5=1,6=6,7=104,11=2,25=1,30=1,71=1,74=-5/1,2,3;
 4/5=5,16=3,69=1/1;
 5/5=2,38=5/2;
 7//1,2,3,16;
 1/18=20,19=15,26=3/3(-5);
 2/9=110/2;
 6/7=2,8=2,9=2,10=2,19=2,28=1/1;
 99/9=1/99;
 -------------------
 Title Card Required
 -------------------
 Symbolic Z-matrix:
 Charge =  0 Multiplicity = 1
 S                     0.67767   0.00104  -0.25872 
 C                     2.28505   0.53703  -1.2957 
 C                     2.26878   1.54256  -3.24598 
 C                     3.3246    1.80104  -1.83841 
 S                     2.20848   2.95955  -2.67281 
 C                     1.41681   1.61936  -4.30038 
 C                     1.62795   2.70597  -5.01364 
 C                     0.60086   3.37138  -6.85856 
 C                    -0.60622   4.11302  -7.99976 
 C                    -1.77117   4.92919  -7.2987 
 C                    -1.84668   3.82757  -6.5695 
 C                    -0.9806    4.13395  -5.36899 
 C                    -0.80215   2.88931  -5.00016 
 C                    -0.56691   1.70914  -4.86197 
 C                     0.26823   0.85093  -4.39417 
 H                     0.6341   -0.37922   1.11425 
 H                     2.9311   -0.56362  -0.60764 
 H                     2.9292    0.82048  -0.0316 
 H                     3.24151   0.62944  -3.01136 
 H                     3.83182   2.39838  -1.01521 
 H                     3.32469   2.98583  -3.44279 
 H                     0.19679   4.55918  -7.70096 
 H                    -1.74442   4.16106  -9.04659 
 H                    -1.49577   6.02376  -7.2776 
 H                    -1.57826   2.80574  -7.3994 
 H                    -0.23364   5.09106  -5.46806 
 H                     0.48826  -0.20435  -4.5402 
 
 Add virtual bond connecting atoms H25        and C11        Dist= 2.54D+00.
 Add virtual bond connecting atoms H19        and C3         Dist= 2.56D+00.
 Add virtual bond connecting atoms H18        and C2         Dist= 2.73D+00.
 Add virtual bond connecting atoms H17        and C2         Dist= 2.74D+00.
 Add virtual bond connecting atoms H17        and H18        Dist= 2.83D+00.
 Add virtual bond connecting atoms H23        and C9         Dist= 2.92D+00.

 GradGradGradGradGradGradGradGradGradGradGradGradGradGradGradGradGradGrad
 Berny optimization.
 Initialization pass.
                           ----------------------------
                           !    Initial Parameters    !
                           ! (Angstroms and Degrees)  !
 --------------------------                            --------------------------
 ! Name  Definition              Value          Derivative Info.                !
 --------------------------------------------------------------------------------
 ! R1    R(1,2)                  1.9865         estimate D2E/DX2                !
 ! R2    R(1,16)                 1.4253         estimate D2E/DX2                !
 ! R3    R(2,4)                  1.7242         estimate D2E/DX2                !
 ! R4    R(2,17)                 1.4499         estimate D2E/DX2                !
 ! R5    R(2,18)                 1.4468         estimate D2E/DX2                !
 ! R6    R(3,4)                  1.7784         estimate D2E/DX2                !
 ! R7    R(3,5)                  1.5297         estimate D2E/DX2                !
 ! R8    R(3,6)                  1.3578         estimate D2E/DX2                !
 ! R9    R(3,19)                 1.3546         estimate D2E/DX2                !
 ! R10   R(4,5)                  1.8122         estimate D2E/DX2                !
 ! R11   R(4,20)                 1.1365         estimate D2E/DX2                !
 ! R12   R(5,21)                 1.3563         estimate D2E/DX2                !
 ! R13   R(6,7)                  1.3168         estimate D2E/DX2                !
 ! R14   R(6,15)                 1.3851         estimate D2E/DX2                !
 ! R15   R(8,9)                  1.8192         estimate D2E/DX2                !
 ! R16   R(9,10)                 1.5858         estimate D2E/DX2                !
 ! R17   R(9,22)                 0.966          estimate D2E/DX2                !
 ! R18   R(9,23)                 1.5471         estimate D2E/DX2                !
 ! R19   R(10,11)                1.3233         estimate D2E/DX2                !
 ! R20   R(10,24)                1.1289         estimate D2E/DX2                !
 ! R21   R(11,12)                1.5117         estimate D2E/DX2                !
 ! R22   R(11,25)                1.3435         estimate D2E/DX2                !
 ! R23   R(12,13)                1.3103         estimate D2E/DX2                !
 ! R24   R(12,26)                1.2181         estimate D2E/DX2                !
 ! R25   R(13,14)                1.2113         estimate D2E/DX2                !
 ! R26   R(14,15)                1.2856         estimate D2E/DX2                !
 ! R27   R(15,27)                1.0878         estimate D2E/DX2                !
 ! R28   R(17,18)                1.4992         estimate D2E/DX2                !
 ! A1    A(2,1,16)             126.8377         estimate D2E/DX2                !
 ! A2    A(1,2,4)              148.2056         estimate D2E/DX2                !
 ! A3    A(1,2,17)              84.7212         estimate D2E/DX2                !
 ! A4    A(1,2,18)              87.5367         estimate D2E/DX2                !
 ! A5    A(4,2,17)             115.9271         estimate D2E/DX2                !
 ! A6    A(4,2,18)              82.1231         estimate D2E/DX2                !
 ! A7    A(4,3,19)              62.2628         estimate D2E/DX2                !
 ! A8    A(5,3,6)              102.3478         estimate D2E/DX2                !
 ! A9    A(5,3,19)             126.0017         estimate D2E/DX2                !
 ! A10   A(6,3,19)             128.5508         estimate D2E/DX2                !
 ! A11   A(2,4,3)               77.563          estimate D2E/DX2                !
 ! A12   A(2,4,5)              104.0194         estimate D2E/DX2                !
 ! A13   A(2,4,20)             115.2383         estimate D2E/DX2                !
 ! A14   A(3,4,20)             156.148          estimate D2E/DX2                !
 ! A15   A(5,4,20)             105.8048         estimate D2E/DX2                !
 ! A16   A(3,5,21)              76.867          estimate D2E/DX2                !
 ! A17   A(4,5,21)              76.5208         estimate D2E/DX2                !
 ! A18   A(3,6,7)              111.5119         estimate D2E/DX2                !
 ! A19   A(3,6,15)             122.7882         estimate D2E/DX2                !
 ! A20   A(7,6,15)             123.6468         estimate D2E/DX2                !
 ! A21   A(8,9,10)             114.8305         estimate D2E/DX2                !
 ! A22   A(8,9,22)              56.1293         estimate D2E/DX2                !
 ! A23   A(8,9,23)             157.7072         estimate D2E/DX2                !
 ! A24   A(10,9,22)            103.663          estimate D2E/DX2                !
 ! A25   A(10,9,23)             75.0903         estimate D2E/DX2                !
 ! A26   A(22,9,23)            143.7548         estimate D2E/DX2                !
 ! A27   A(9,10,11)             81.7824         estimate D2E/DX2                !
 ! A28   A(9,10,24)            109.1523         estimate D2E/DX2                !
 ! A29   A(11,10,24)           144.1767         estimate D2E/DX2                !
 ! A30   A(10,11,12)           103.6629         estimate D2E/DX2                !
 ! A31   A(10,11,25)           106.343          estimate D2E/DX2                !
 ! A32   A(12,11,25)           122.0227         estimate D2E/DX2                !
 ! A33   A(11,12,13)            96.2604         estimate D2E/DX2                !
 ! A34   A(11,12,26)           116.4859         estimate D2E/DX2                !
 ! A35   A(13,12,26)           133.2913         estimate D2E/DX2                !
 ! A36   A(13,14,15)           144.8911         estimate D2E/DX2                !
 ! A37   A(6,15,14)            101.1262         estimate D2E/DX2                !
 ! A38   A(6,15,27)            112.3057         estimate D2E/DX2                !
 ! A39   A(14,15,27)           136.8967         estimate D2E/DX2                !
 ! A40   L(4,3,6,19,-1)        190.8136         estimate D2E/DX2                !
 ! A41   L(12,13,14,5,-1)      183.3546         estimate D2E/DX2                !
 ! A42   L(4,3,6,19,-2)        185.6036         estimate D2E/DX2                !
 ! A43   L(12,13,14,5,-2)      189.9758         estimate D2E/DX2                !
 ! D1    D(16,1,2,4)           -91.0358         estimate D2E/DX2                !
 ! D2    D(16,1,2,17)           42.1478         estimate D2E/DX2                !
 ! D3    D(16,1,2,18)          -20.2893         estimate D2E/DX2                !
 ! D4    D(1,2,4,3)            -98.5635         estimate D2E/DX2                !
 ! D5    D(1,2,4,5)            -55.2452         estimate D2E/DX2                !
 ! D6    D(1,2,4,20)            60.0984         estimate D2E/DX2                !
 ! D7    D(17,2,4,3)           135.2722         estimate D2E/DX2                !
 ! D8    D(17,2,4,5)           178.5906         estimate D2E/DX2                !
 ! D9    D(17,2,4,20)          -66.0658         estimate D2E/DX2                !
 ! D10   D(18,2,4,3)          -170.7732         estimate D2E/DX2                !
 ! D11   D(18,2,4,5)          -127.4548         estimate D2E/DX2                !
 ! D12   D(18,2,4,20)          -12.1112         estimate D2E/DX2                !
 ! D13   D(19,3,4,2)           -75.53           estimate D2E/DX2                !
 ! D14   D(19,3,4,20)          158.9522         estimate D2E/DX2                !
 ! D15   D(2,4,6,7)            165.8206         estimate D2E/DX2                !
 ! D16   D(2,4,6,15)             6.9543         estimate D2E/DX2                !
 ! D17   D(20,4,6,7)            39.3652         estimate D2E/DX2                !
 ! D18   D(20,4,6,15)         -119.5012         estimate D2E/DX2                !
 ! D19   D(6,3,5,21)           -97.4309         estimate D2E/DX2                !
 ! D20   D(19,3,5,21)           63.9465         estimate D2E/DX2                !
 ! D21   D(5,3,6,7)             45.8078         estimate D2E/DX2                !
 ! D22   D(5,3,6,15)          -118.4144         estimate D2E/DX2                !
 ! D23   D(19,3,6,7)          -114.9031         estimate D2E/DX2                !
 ! D24   D(19,3,6,15)           80.8747         estimate D2E/DX2                !
 ! D25   D(2,4,5,21)          -142.2056         estimate D2E/DX2                !
 ! D26   D(20,4,5,21)           95.9633         estimate D2E/DX2                !
 ! D27   D(3,6,15,14)          139.0955         estimate D2E/DX2                !
 ! D28   D(3,6,15,27)          -68.6561         estimate D2E/DX2                !
 ! D29   D(7,6,15,14)          -23.2139         estimate D2E/DX2                !
 ! D30   D(7,6,15,27)          129.0344         estimate D2E/DX2                !
 ! D31   D(8,9,10,11)          -49.1767         estimate D2E/DX2                !
 ! D32   D(8,9,10,24)           95.6172         estimate D2E/DX2                !
 ! D33   D(22,9,10,11)        -107.8784         estimate D2E/DX2                !
 ! D34   D(22,9,10,24)          36.9155         estimate D2E/DX2                !
 ! D35   D(23,9,10,11)         109.5444         estimate D2E/DX2                !
 ! D36   D(23,9,10,24)        -105.6617         estimate D2E/DX2                !
 ! D37   D(9,10,11,12)          94.0713         estimate D2E/DX2                !
 ! D38   D(9,10,11,25)         -35.7173         estimate D2E/DX2                !
 ! D39   D(24,10,11,12)        -17.4161         estimate D2E/DX2                !
 ! D40   D(24,10,11,25)       -147.2047         estimate D2E/DX2                !
 ! D41   D(10,11,12,13)       -160.8297         estimate D2E/DX2                !
 ! D42   D(10,11,12,26)        -15.2032         estimate D2E/DX2                !
 ! D43   D(25,11,12,13)        -41.2532         estimate D2E/DX2                !
 ! D44   D(25,11,12,26)        104.3732         estimate D2E/DX2                !
 ! D45   D(11,12,14,15)        147.7461         estimate D2E/DX2                !
 ! D46   D(26,12,14,15)         16.5452         estimate D2E/DX2                !
 ! D47   D(13,14,15,6)         -20.1981         estimate D2E/DX2                !
 ! D48   D(13,14,15,27)       -161.1146         estimate D2E/DX2                !
 --------------------------------------------------------------------------------
 Trust Radius=3.00D-01 FncErr=1.00D-07 GrdErr=1.00D-06 EigMax=2.50D+02 EigMin=1.00D-04
 Number of steps in this run=    129 maximum allowed number of steps=    162.
 GradGradGradGradGradGradGradGradGradGradGradGradGradGradGradGradGradGrad

                          Input orientation:                          
 ---------------------------------------------------------------------
 Center     Atomic      Atomic             Coordinates (Angstroms)
 Number     Number       Type             X           Y           Z
 ---------------------------------------------------------------------
      1         16           0        0.677670    0.001040   -0.258720
      2          6           0        2.285050    0.537030   -1.295700
      3          6           0        2.268780    1.542560   -3.245980
      4          6           0        3.324600    1.801040   -1.838410
      5         16           0        2.208480    2.959550   -2.672810
      6          6           0        1.416810    1.619360   -4.300380
      7          6           0        1.627950    2.705970   -5.013640
      8          6           0        0.600860    3.371380   -6.858560
      9          6           0       -0.606220    4.113020   -7.999760
     10          6           0       -1.771170    4.929190   -7.298700
     11          6           0       -1.846680    3.827570   -6.569500
     12          6           0       -0.980600    4.133950   -5.368990
     13          6           0       -0.802150    2.889310   -5.000160
     14          6           0       -0.566910    1.709140   -4.861970
     15          6           0        0.268230    0.850930   -4.394170
     16          1           0        0.634100   -0.379220    1.114250
     17          1           0        2.931100   -0.563620   -0.607640
     18          1           0        2.929200    0.820480   -0.031600
     19          1           0        3.241510    0.629440   -3.011360
     20          1           0        3.831820    2.398380   -1.015210
     21          1           0        3.324690    2.985830   -3.442790
     22          1           0        0.196790    4.559180   -7.700960
     23          1           0       -1.744420    4.161060   -9.046590
     24          1           0       -1.495770    6.023760   -7.277600
     25          1           0       -1.578260    2.805740   -7.399400
     26          1           0       -0.233640    5.091060   -5.468060
     27          1           0        0.488260   -0.204350   -4.540200
 ---------------------------------------------------------------------
                    Distance matrix (angstroms):
                    1          2          3          4          5
     1  S    0.000000
     2  C    1.986525   0.000000
     3  C    3.719091   2.194299   0.000000
     4  C    3.569546   1.724216   1.778432   0.000000
     5  S    4.113878   2.787633   1.529713   1.812207   0.000000
     6  C    4.415915   3.309589   1.357759   3.119931   2.252073
     7  C    5.552382   4.354212   2.211065   3.712089   2.425037
     8  C    7.411004   6.466486   4.379186   5.923397   4.502727
     9  C    8.858919   8.129672   6.121382   7.665431   6.134283
    10  C    8.935592   8.472308   6.649436   8.097343   6.412172
    11  C    7.800040   7.464035   5.762297   7.296038   5.690516
    12  C    6.778323   6.339873   4.667006   6.036738   4.338068
    13  C    5.745714   5.365356   3.784375   5.311408   3.805967
    14  C    5.065224   4.714425   3.268074   4.928916   3.749498
    15  C    4.241686   3.710339   2.408089   4.095853   3.342743
    16  H    1.425322   3.061537   5.037561   4.550882   5.288467
    17  H    2.349156   1.449910   3.440276   2.694671   4.147268
    18  H    2.406751   1.446797   3.360029   2.093419   3.474341
    19  H    3.813816   1.966429   1.354636   1.659928   2.571221
    20  H    4.033383   2.436349   2.855146   1.136550   2.387003
    21  H    5.104311   3.418694   1.799085   1.994433   1.356276
    22  H    8.740413   7.846393   5.765413   7.194444   5.646947
    23  H   10.019927   9.457617   7.523921   9.122638   7.595664
    24  H    9.500614   8.954437   7.106824   8.405481   6.656947
    25  H    7.996554   7.571484   5.800538   7.481448   6.058359
    26  H    7.340028   6.670201   4.877663   6.054722   4.280270
    27  H    4.290586   3.782179   2.810151   4.400691   4.056669
                    6          7          8          9         10
     6  C    0.000000
     7  C    1.316830   0.000000
     8  C    3.206187   2.213914   0.000000
     9  C    4.898612   3.986003   1.819178   0.000000
    10  C    5.487086   4.660281   2.871763   1.585789   0.000000
    11  C    4.547028   3.968846   2.506415   1.914645   1.323254
    12  C    3.634923   2.994985   2.302466   2.657358   2.231858
    13  C    2.650707   2.437044   2.377915   3.245528   3.222328
    14  C    2.063635   2.415385   2.848350   3.952962   4.213860
    15  C    1.385105   2.381965   3.540696   4.940260   5.406260
    16  H    5.824532   6.932328   8.811005  10.236395  10.234367
    17  H    4.549154   5.639260   7.745208   9.435414   9.851527
    18  H    4.598697   5.483525   7.650859   9.318347   9.580486
    19  H    2.443572   3.305250   5.412228   7.198923   7.873760
    20  H    4.151083   4.575926   6.747634   8.451043   8.790947
    21  H    2.498541   2.329124   4.385816   6.122792   6.679257
    22  H    4.657782   3.564308   1.511218   0.966005   2.042446
    23  H    6.243406   5.454801   3.303242   1.547146   1.909413
    24  H    6.061823   5.088307   3.406842   2.227946   1.128882
    25  H    4.470108   3.997698   2.315388   1.736167   2.134571
    26  H    4.017482   3.059521   2.363722   2.739504   2.396131
    27  H    2.060494   3.161171   4.263017   5.639692   6.250406
                   11         12         13         14         15
    11  C    0.000000
    12  C    1.511684   0.000000
    13  C    2.105755   1.310347   0.000000
    14  C    3.006861   2.511556   1.211295   0.000000
    15  C    4.250328   3.645281   2.380742   1.285620   0.000000
    16  H    9.104470   8.062776   7.080403   6.443514   5.655954
    17  H    8.812123   7.748485   6.719681   5.958258   4.840417
    18  H    8.636883   7.399551   6.549017   6.028679   5.110157
    19  H    6.984130   5.972120   5.041183   4.369734   3.286581
    20  H    8.070817   6.717663   6.131437   5.883999   5.148898
    21  H    6.101468   4.854271   4.411975   4.334577   3.847710
    22  H    2.447698   2.646725   3.328764   4.094610   4.969012
    23  H    2.501529   3.756181   4.344976   4.990940   6.054150
    24  H    2.334051   2.734881   3.936066   5.031302   6.179323
    25  H    1.343473   2.498781   2.523031   2.943452   4.032644
    26  H    2.326258   1.218123   2.321602   3.451927   4.402705
    27  H    5.081966   4.654599   3.383409   2.208702   1.087821
                   16         17         18         19         20
    16  H    0.000000
    17  H    2.876650   0.000000
    18  H    2.831914   1.499186   0.000000
    19  H    4.983637   2.701410   3.002166   0.000000
    20  H    4.740788   3.122636   2.066877   2.731708   0.000000
    21  H    6.271320   4.559779   4.059725   2.397003   2.548612
    22  H   10.113702   9.167045   8.958963   6.834144   7.910863
    23  H   11.380429  10.742391  10.689820   8.588122   9.935017
    24  H   10.768363  10.367214   9.957861   8.351126   8.985773
    25  H    9.355252   8.821276   8.862445   6.871780   8.378114
    26  H    8.602543   8.100288   7.602401   6.165882   6.603511
    27  H    5.659033   4.643444   5.228378   3.257751   5.511729
                   21         22         23         24         25
    21  H    0.000000
    22  H    5.512821   0.000000
    23  H    7.647197   2.395311   0.000000
    24  H    6.868160   2.277935   2.580853   0.000000
    25  H    6.302866   2.513224   2.139565   3.221381   0.000000
    26  H    4.603849   2.335382   3.994150   2.395274   3.280360
    27  H    4.407595   5.724210   6.659521   7.086543   4.637475
                   26         27
    26  H    0.000000
    27  H    5.424337   0.000000
 Stoichiometry    C13H12S2
 Framework group  C1[X(C13H12S2)]
 Deg. of freedom    75
 Full point group                 C1      NOp   1
 Largest Abelian subgroup         C1      NOp   1
 Largest concise Abelian subgroup C1      NOp   1
                         Standard orientation:                         
 ---------------------------------------------------------------------
 Center     Atomic      Atomic             Coordinates (Angstroms)
 Number     Number       Type             X           Y           Z
 ---------------------------------------------------------------------
      1         16           0        3.970308    1.691496   -0.352683
      2          6           0        3.509714   -0.125395    0.305378
      3          6           0        1.478336   -0.884249    0.640923
      4          6           0        2.901854   -1.700448   -0.044815
      5         16           0        1.279161   -1.389277   -0.789216
      6          6           0        0.266775   -0.343409    0.929235
      7          6           0       -0.716573   -1.140225    0.565709
      8          6           0       -2.897719   -0.842624    0.801192
      9          6           0       -4.614924   -0.309966    0.523900
     10          6           0       -4.864305    0.446591   -0.847288
     11          6           0       -3.809301    1.134266   -0.440999
     12          6           0       -2.647093    0.428845   -1.101938
     13          6           0       -1.720760    0.902370   -0.305263
     14          6           0       -0.987610    1.259779    0.590273
     15          6           0        0.096476    0.997922    1.229811
     16          1           0        5.231716    2.123655   -0.856299
     17          1           0        4.807994   -0.075561    0.948979
     18          1           0        4.648354   -0.616109   -0.440223
     19          1           0        2.451958   -1.278548    1.496275
     20          1           0        3.491143   -2.285903   -0.820525
     21          1           0        1.074889   -2.500401   -0.038776
     22          1           0       -4.266820   -1.168657    0.250698
     23          1           0       -5.917264    0.495499    0.744800
     24          1           0       -5.234542   -0.292503   -1.616079
     25          1           0       -3.915195    1.235128    0.894491
     26          1           0       -2.871358   -0.678732   -1.556694
     27          1           0        0.538410    1.265888    2.187016
 ---------------------------------------------------------------------
 Rotational constants (GHZ):           1.1792146           0.2404430           0.2206740
 Standard basis: 6-31G(2df,p) (6D, 7F)
 There are   533 symmetry adapted cartesian basis functions of A   symmetry.
 There are   488 symmetry adapted basis functions of A   symmetry.
   488 basis functions,   792 primitive gaussians,   533 cartesian basis functions
    61 alpha electrons       61 beta electrons
       nuclear repulsion energy      1100.3957056851 Hartrees.
 NAtoms=   27 NActive=   27 NUniq=   27 SFac= 1.00D+00 NAtFMM=   60 NAOKFM=F Big=F
 Integral buffers will be    131072 words long.
 Raffenetti 2 integral format.
 Two-electron integral symmetry is turned on.
 One-electron integrals computed using PRISM.
 PrsmSu:  requested number of processors reduced to:  12 ShMem   1 Linda.
 NBasis=   488 RedAO= T EigKep=  1.48D-04  NBF=   488
 NBsUse=   488 1.00D-06 EigRej= -1.00D+00 NBFU=   488
 ExpMin= 1.17D-01 ExpMax= 2.19D+04 ExpMxC= 3.30D+03 IAcc=3 IRadAn=         5 AccDes= 0.00D+00
 Harris functional with IExCor=  402 and IRadAn=       5 diagonalized for initial guess.
 HarFok:  IExCor=  402 AccDes= 0.00D+00 IRadAn=         5 IDoV= 1 UseB2=F ITyADJ=14
 ICtDFT=  3500011 ScaDFX=  1.000000  1.000000  1.000000  1.000000
 FoFCou: FMM=F IPFlag=           0 FMFlag=      100000 FMFlg1=           0
         NFxFlg=           0 DoJE=T BraDBF=F KetDBF=T FulRan=T
         wScrn=  0.000000 ICntrl=       500 IOpCl=  0 I1Cent=   200000004 NGrid=           0
         NMat0=    1 NMatS0=      1 NMatT0=    0 NMatD0=    1 NMtDS0=    0 NMtDT0=    0
 Petite list used in FoFCou.
 Requested convergence on RMS density matrix=1.00D-08 within 128 cycles.
 Requested convergence on MAX density matrix=1.00D-06.
 Requested convergence on             energy=1.00D-06.
 No special actions if energy rises.
 Integral accuracy reduced to 1.0D-05 until final iterations.
 EnCoef did     7 forward-backward iterations
 EnCoef did     4 forward-backward iterations
 Problem detected with inexpensive integrals.
 Switching to full accuracy and repeating last cycle.
 EnCoef did     5 forward-backward iterations
 EnCoef did   100 forward-backward iterations
 EnCoef did   100 forward-backward iterations
 EnCoef did   100 forward-backward iterations
 EnCoef did     3 forward-backward iterations
 EnCoef did     2 forward-backward iterations
 EnCoef did     3 forward-backward iterations
 Restarting incremental Fock formation.
 SCF Done:  E(RB3LYP) =  -1297.37444309     A.U. after   33 cycles
            NFock= 33  Conv=0.36D-08     -V/T= 2.0035

 **********************************************************************

            Population analysis using the SCF density.

 **********************************************************************

 Orbital symmetries:
       Occupied  (A) (A) (A) (A) (A) (A) (A) (A) (A) (A) (A) (A)
                 (A) (A) (A) (A) (A) (A) (A) (A) (A) (A) (A) (A)
                 (A) (A) (A) (A) (A) (A) (A) (A) (A) (A) (A) (A)
                 (A) (A) (A) (A) (A) (A) (A) (A) (A) (A) (A) (A)
                 (A) (A) (A) (A) (A) (A) (A) (A) (A) (A) (A) (A)
                 (A)
       Virtual   (A) (A) (A) (A) (A) (A) (A) (A) (A) (A) (A) (A)
                 (A) (A) (A) (A) (A) (A) (A) (A) (A) (A) (A) (A)
                 (A) (A) (A) (A) (A) (A) (A) (A) (A) (A) (A) (A)
                 (A) (A) (A) (A) (A) (A) (A) (A) (A) (A) (A) (A)
                 (A) (A) (A) (A) (A) (A) (A) (A) (A) (A) (A) (A)
                 (A) (A) (A) (A) (A) (A) (A) (A) (A) (A) (A) (A)
                 (A) (A) (A) (A) (A) (A) (A) (A) (A) (A) (A) (A)
                 (A) (A) (A) (A) (A) (A) (A) (A) (A) (A) (A) (A)
                 (A) (A) (A) (A) (A) (A) (A) (A) (A) (A) (A) (A)
                 (A) (A) (A) (A) (A) (A) (A) (A) (A) (A) (A) (A)
                 (A) (A) (A) (A) (A) (A) (A) (A) (A) (A) (A) (A)
                 (A) (A) (A) (A) (A) (A) (A) (A) (A) (A) (A) (A)
                 (A) (A) (A) (A) (A) (A) (A) (A) (A) (A) (A) (A)
                 (A) (A) (A) (A) (A) (A) (A) (A) (A) (A) (A) (A)
                 (A) (A) (A) (A) (A) (A) (A) (A) (A) (A) (A) (A)
                 (A) (A) (A) (A) (A) (A) (A) (A) (A) (A) (A) (A)
                 (A) (A) (A) (A) (A) (A) (A) (A) (A) (A) (A) (A)
                 (A) (A) (A) (A) (A) (A) (A) (A) (A) (A) (A) (A)
                 (A) (A) (A) (A) (A) (A) (A) (A) (A) (A) (A) (A)
                 (A) (A) (A) (A) (A) (A) (A) (A) (A) (A) (A) (A)
                 (A) (A) (A) (A) (A) (A) (A) (A) (A) (A) (A) (A)
                 (A) (A) (A) (A) (A) (A) (A) (A) (A) (A) (A) (A)
                 (A) (A) (A) (A) (A) (A) (A) (A) (A) (A) (A) (A)
                 (A) (A) (A) (A) (A) (A) (A) (A) (A) (A) (A) (A)
                 (A) (A) (A) (A) (A) (A) (A) (A) (A) (A) (A) (A)
                 (A) (A) (A) (A) (A) (A) (A) (A) (A) (A) (A) (A)
                 (A) (A) (A) (A) (A) (A) (A) (A) (A) (A) (A) (A)
                 (A) (A) (A) (A) (A) (A) (A) (A) (A) (A) (A) (A)
                 (A) (A) (A) (A) (A) (A) (A) (A) (A) (A) (A) (A)
                 (A) (A) (A) (A) (A) (A) (A) (A) (A) (A) (A) (A)
                 (A) (A) (A) (A) (A) (A) (A) (A) (A) (A) (A) (A)
                 (A) (A) (A) (A) (A) (A) (A) (A) (A) (A) (A) (A)
                 (A) (A) (A) (A) (A) (A) (A) (A) (A) (A) (A) (A)
                 (A) (A) (A) (A) (A) (A) (A) (A) (A) (A) (A) (A)
                 (A) (A) (A) (A) (A) (A) (A) (A) (A) (A) (A) (A)
                 (A) (A) (A) (A) (A) (A) (A)
 The electronic state is 1-A.
 Alpha  occ. eigenvalues --  -88.98496 -88.86704 -10.27565 -10.26543 -10.25601
 Alpha  occ. eigenvalues --  -10.24943 -10.24812 -10.24748 -10.23208 -10.21357
 Alpha  occ. eigenvalues --  -10.20735 -10.19265 -10.19022 -10.18694 -10.17714
 Alpha  occ. eigenvalues --   -8.04845  -7.93009  -6.01049  -6.00860  -6.00760
 Alpha  occ. eigenvalues --   -5.89503  -5.89113  -5.88507  -0.99511  -0.90436
 Alpha  occ. eigenvalues --   -0.87352  -0.80291  -0.75989  -0.73217  -0.70537
 Alpha  occ. eigenvalues --   -0.68454  -0.66204  -0.63831  -0.57371  -0.57187
 Alpha  occ. eigenvalues --   -0.55388  -0.53869  -0.52869  -0.50453  -0.48053
 Alpha  occ. eigenvalues --   -0.47336  -0.45813  -0.45053  -0.43127  -0.41718
 Alpha  occ. eigenvalues --   -0.38735  -0.38288  -0.36704  -0.35285  -0.34508
 Alpha  occ. eigenvalues --   -0.30963  -0.30035  -0.29523  -0.27087  -0.25354
 Alpha  occ. eigenvalues --   -0.23276  -0.22714  -0.21212  -0.19351  -0.17642
 Alpha  occ. eigenvalues --   -0.15932
 Alpha virt. eigenvalues --   -0.11909  -0.09389  -0.07671  -0.06421  -0.05533
 Alpha virt. eigenvalues --   -0.04794  -0.03361  -0.02773  -0.00302   0.00632
 Alpha virt. eigenvalues --    0.01379   0.03666   0.03937   0.06160   0.06808
 Alpha virt. eigenvalues --    0.07658   0.10683   0.11269   0.11968   0.12584
 Alpha virt. eigenvalues --    0.14179   0.14563   0.16792   0.17392   0.19301
 Alpha virt. eigenvalues --    0.21993   0.23125   0.24367   0.25311   0.26071
 Alpha virt. eigenvalues --    0.28686   0.29280   0.29518   0.31089   0.33563
 Alpha virt. eigenvalues --    0.34610   0.35487   0.36520   0.38255   0.38476
 Alpha virt. eigenvalues --    0.39012   0.40875   0.41751   0.42408   0.42587
 Alpha virt. eigenvalues --    0.43252   0.43900   0.44684   0.45085   0.45404
 Alpha virt. eigenvalues --    0.46193   0.46809   0.47620   0.49375   0.50480
 Alpha virt. eigenvalues --    0.51115   0.52997   0.53865   0.54349   0.54943
 Alpha virt. eigenvalues --    0.55592   0.56209   0.56383   0.58332   0.58645
 Alpha virt. eigenvalues --    0.59999   0.60732   0.61071   0.62168   0.62307
 Alpha virt. eigenvalues --    0.63078   0.63714   0.64479   0.64757   0.65127
 Alpha virt. eigenvalues --    0.66366   0.66686   0.68123   0.69342   0.69999
 Alpha virt. eigenvalues --    0.71372   0.71900   0.72489   0.72871   0.74254
 Alpha virt. eigenvalues --    0.74422   0.75472   0.76246   0.76490   0.77329
 Alpha virt. eigenvalues --    0.78916   0.79670   0.80019   0.81402   0.81548
 Alpha virt. eigenvalues --    0.82549   0.83081   0.84104   0.85248   0.87081
 Alpha virt. eigenvalues --    0.87433   0.88185   0.88623   0.89919   0.91169
 Alpha virt. eigenvalues --    0.91915   0.94332   0.95656   0.96088   0.96547
 Alpha virt. eigenvalues --    0.98511   1.00760   1.01757   1.03291   1.03873
 Alpha virt. eigenvalues --    1.05014   1.06047   1.08154   1.09162   1.10070
 Alpha virt. eigenvalues --    1.11117   1.12592   1.13845   1.15629   1.17918
 Alpha virt. eigenvalues --    1.18654   1.21105   1.23203   1.23860   1.25137
 Alpha virt. eigenvalues --    1.26566   1.27228   1.29376   1.32047   1.32754
 Alpha virt. eigenvalues --    1.33912   1.34866   1.35758   1.37834   1.39115
 Alpha virt. eigenvalues --    1.39892   1.41105   1.42596   1.42821   1.44342
 Alpha virt. eigenvalues --    1.44806   1.45215   1.47509   1.48900   1.50749
 Alpha virt. eigenvalues --    1.51363   1.52588   1.53059   1.53583   1.54541
 Alpha virt. eigenvalues --    1.57406   1.58384   1.59305   1.60444   1.60752
 Alpha virt. eigenvalues --    1.62023   1.63045   1.64330   1.64481   1.65237
 Alpha virt. eigenvalues --    1.66624   1.68100   1.68965   1.69542   1.70108
 Alpha virt. eigenvalues --    1.71059   1.73564   1.74250   1.76366   1.77538
 Alpha virt. eigenvalues --    1.78901   1.81176   1.83741   1.85623   1.86225
 Alpha virt. eigenvalues --    1.87643   1.88229   1.89839   1.90640   1.93853
 Alpha virt. eigenvalues --    1.95872   1.98185   1.99128   2.00958   2.01959
 Alpha virt. eigenvalues --    2.04140   2.06354   2.08212   2.09449   2.10623
 Alpha virt. eigenvalues --    2.12457   2.15478   2.16148   2.18171   2.19255
 Alpha virt. eigenvalues --    2.20679   2.20970   2.22209   2.22552   2.23252
 Alpha virt. eigenvalues --    2.25445   2.26771   2.28760   2.29950   2.31039
 Alpha virt. eigenvalues --    2.33232   2.34658   2.36576   2.37418   2.38295
 Alpha virt. eigenvalues --    2.38897   2.41880   2.43393   2.43922   2.44247
 Alpha virt. eigenvalues --    2.44567   2.48083   2.48792   2.51401   2.51914
 Alpha virt. eigenvalues --    2.53150   2.53371   2.55242   2.56851   2.58921
 Alpha virt. eigenvalues --    2.59152   2.62006   2.62195   2.62959   2.65454
 Alpha virt. eigenvalues --    2.66536   2.67952   2.70558   2.71478   2.72094
 Alpha virt. eigenvalues --    2.73768   2.75546   2.78687   2.79481   2.80035
 Alpha virt. eigenvalues --    2.80928   2.82023   2.83882   2.85286   2.87198
 Alpha virt. eigenvalues --    2.87525   2.88548   2.89856   2.90540   2.91338
 Alpha virt. eigenvalues --    2.92193   2.92866   2.94209   2.97208   2.98777
 Alpha virt. eigenvalues --    2.99685   3.00383   3.01732   3.03532   3.04565
 Alpha virt. eigenvalues --    3.06505   3.06709   3.07037   3.08836   3.09902
 Alpha virt. eigenvalues --    3.10938   3.11869   3.13068   3.14860   3.15415
 Alpha virt. eigenvalues --    3.18455   3.19637   3.19801   3.20567   3.21363
 Alpha virt. eigenvalues --    3.23906   3.24042   3.25752   3.26908   3.29649
 Alpha virt. eigenvalues --    3.30829   3.31609   3.32390   3.33520   3.34153
 Alpha virt. eigenvalues --    3.36446   3.37010   3.39360   3.39465   3.42138
 Alpha virt. eigenvalues --    3.42470   3.45040   3.46848   3.48292   3.49207
 Alpha virt. eigenvalues --    3.50916   3.53654   3.55701   3.57808   3.59973
 Alpha virt. eigenvalues --    3.60688   3.63648   3.64733   3.66104   3.67438
 Alpha virt. eigenvalues --    3.68315   3.70458   3.72782   3.73448   3.77147
 Alpha virt. eigenvalues --    3.78422   3.80561   3.82007   3.83884   3.84612
 Alpha virt. eigenvalues --    3.87582   3.88515   3.89289   3.90614   3.94832
 Alpha virt. eigenvalues --    3.96230   3.98987   4.00781   4.03074   4.04327
 Alpha virt. eigenvalues --    4.05335   4.06948   4.11311   4.16130   4.16532
 Alpha virt. eigenvalues --    4.18665   4.19601   4.23022   4.25297   4.29134
 Alpha virt. eigenvalues --    4.30064   4.32317   4.34822   4.35815   4.36862
 Alpha virt. eigenvalues --    4.39214   4.39948   4.41421   4.44426   4.45199
 Alpha virt. eigenvalues --    4.48775   4.50163   4.50751   4.54924   4.55231
 Alpha virt. eigenvalues --    4.56658   4.57047   4.60655   4.60963   4.61041
 Alpha virt. eigenvalues --    4.62901   4.64089   4.65196   4.65883   4.66779
 Alpha virt. eigenvalues --    4.69380   4.71010   4.72832   4.75514   4.75524
 Alpha virt. eigenvalues --    4.76057   4.78799   4.79614   4.80494   4.82322
 Alpha virt. eigenvalues --    4.85013   4.86748   4.88308   4.90238   4.92784
 Alpha virt. eigenvalues --    4.95031   4.95690   4.97762   4.99856   5.02015
 Alpha virt. eigenvalues --    5.03510   5.05654   5.08769   5.09305   5.13219
 Alpha virt. eigenvalues --    5.17082   5.17986   5.19824   5.21316   5.23766
 Alpha virt. eigenvalues --    5.27591   5.30642   5.31595   5.35030   5.37541
 Alpha virt. eigenvalues --    5.41573   5.47168   5.49274   5.50568   5.56107
 Alpha virt. eigenvalues --    5.59126   5.68025   5.76587   5.79274   5.85302
 Alpha virt. eigenvalues --    5.94245   6.36696   6.94021   7.16284  10.22562
 Alpha virt. eigenvalues --   10.48409  10.68207  10.75351  10.82243  11.12972
 Alpha virt. eigenvalues --   11.33664  11.55678  11.71138  11.80228  11.98942
 Alpha virt. eigenvalues --   12.16274  12.60205
          Condensed to atoms (all electrons):
               1          2          3          4          5          6
     1  S   15.985152   0.202169  -0.002094  -0.017379   0.002120   0.000784
     2  C    0.202169   5.483255   0.003513   0.314760  -0.019817  -0.013634
     3  C   -0.002094   0.003513   5.417982  -0.224841   0.348846   0.184117
     4  C   -0.017379   0.314760  -0.224841   6.131928   0.031683   0.057034
     5  S    0.002120  -0.019817   0.348846   0.031683  15.344571  -0.176782
     6  C    0.000784  -0.013634   0.184117   0.057034  -0.176782   4.865908
     7  C    0.000025   0.000556   0.052803   0.005180   0.005624   0.548419
     8  C    0.000000  -0.000000   0.000391  -0.000004  -0.000238  -0.004974
     9  C    0.000000   0.000000   0.000008   0.000000   0.000027   0.000085
    10  C   -0.000000  -0.000000  -0.000001  -0.000000  -0.000010   0.000010
    11  C   -0.000000  -0.000000  -0.000013   0.000000   0.000020  -0.000130
    12  C   -0.000001   0.000000  -0.000079  -0.000000  -0.000081   0.003817
    13  C   -0.000032   0.000052  -0.000599  -0.000049  -0.004357  -0.025051
    14  C    0.000122   0.000320  -0.009494  -0.000119   0.009628  -0.095462
    15  C    0.002372  -0.000019  -0.025446   0.000309   0.012887   0.413656
    16  H    0.232350   0.000630   0.000066  -0.000094   0.000004  -0.000008
    17  H   -0.097635   0.286464  -0.001650  -0.030668   0.002976  -0.000293
    18  H   -0.015345   0.067047   0.011550  -0.039290   0.004811  -0.000358
    19  H    0.000138  -0.046004   0.354725  -0.058270  -0.017674  -0.034540
    20  H   -0.001319  -0.047563   0.013303   0.169910  -0.034883  -0.003346
    21  H    0.000016   0.004676  -0.029139  -0.077761   0.350735  -0.018671
    22  H   -0.000000  -0.000000  -0.000008  -0.000000  -0.000006   0.000074
    23  H   -0.000000   0.000000  -0.000000  -0.000000   0.000000  -0.000000
    24  H   -0.000000  -0.000000  -0.000000  -0.000000   0.000000   0.000000
    25  H   -0.000000  -0.000000  -0.000003  -0.000000  -0.000004  -0.000093
    26  H   -0.000000  -0.000000   0.000002   0.000001   0.000342   0.000502
    27  H    0.000108   0.000745  -0.001416  -0.000387  -0.000174  -0.041853
               7          8          9         10         11         12
     1  S    0.000025   0.000000   0.000000  -0.000000  -0.000000  -0.000001
     2  C    0.000556  -0.000000   0.000000  -0.000000  -0.000000   0.000000
     3  C    0.052803   0.000391   0.000008  -0.000001  -0.000013  -0.000079
     4  C    0.005180  -0.000004   0.000000  -0.000000   0.000000  -0.000000
     5  S    0.005624  -0.000238   0.000027  -0.000010   0.000020  -0.000081
     6  C    0.548419  -0.004974   0.000085   0.000010  -0.000130   0.003817
     7  C    5.835945   0.083254  -0.003177   0.001245   0.001521  -0.004867
     8  C    0.083254   6.038238   0.057750  -0.036126  -0.027693   0.018067
     9  C   -0.003177   0.057750   5.667429   0.209062  -0.025255  -0.062421
    10  C    0.001245  -0.036126   0.209062   5.331296   0.457824  -0.069233
    11  C    0.001521  -0.027693  -0.025255   0.457824   5.105440   0.345076
    12  C   -0.004867   0.018067  -0.062421  -0.069233   0.345076   5.461090
    13  C    0.031776   0.020809   0.024865  -0.024149   0.004455   0.474061
    14  C   -0.063820   0.024224   0.003506  -0.000253  -0.003820  -0.117984
    15  C   -0.079770  -0.011415  -0.000301   0.000084   0.000294  -0.000921
    16  H   -0.000000   0.000000   0.000000  -0.000000  -0.000000  -0.000000
    17  H   -0.000002  -0.000000   0.000000  -0.000000   0.000000   0.000000
    18  H   -0.000006   0.000000  -0.000000   0.000000  -0.000000   0.000000
    19  H    0.001352  -0.000016   0.000000  -0.000000  -0.000000  -0.000000
    20  H   -0.000036  -0.000000   0.000000  -0.000000  -0.000000  -0.000000
    21  H   -0.016600  -0.000065   0.000001   0.000000  -0.000001   0.000017
    22  H    0.002275  -0.006818   0.206140  -0.005600  -0.005748   0.016590
    23  H   -0.000018  -0.000032   0.184221  -0.017751   0.002258   0.005697
    24  H    0.000043  -0.001359  -0.056955   0.369304  -0.030440  -0.009582
    25  H    0.001480  -0.040587   0.031089  -0.031766   0.294189  -0.025623
    26  H    0.000596   0.015443  -0.008835  -0.004135  -0.045301   0.363519
    27  H    0.007717  -0.000092  -0.000007   0.000000   0.000029  -0.000169
              13         14         15         16         17         18
     1  S   -0.000032   0.000122   0.002372   0.232350  -0.097635  -0.015345
     2  C    0.000052   0.000320  -0.000019   0.000630   0.286464   0.067047
     3  C   -0.000599  -0.009494  -0.025446   0.000066  -0.001650   0.011550
     4  C   -0.000049  -0.000119   0.000309  -0.000094  -0.030668  -0.039290
     5  S   -0.004357   0.009628   0.012887   0.000004   0.002976   0.004811
     6  C   -0.025051  -0.095462   0.413656  -0.000008  -0.000293  -0.000358
     7  C    0.031776  -0.063820  -0.079770  -0.000000  -0.000002  -0.000006
     8  C    0.020809   0.024224  -0.011415   0.000000  -0.000000   0.000000
     9  C    0.024865   0.003506  -0.000301   0.000000   0.000000  -0.000000
    10  C   -0.024149  -0.000253   0.000084  -0.000000  -0.000000   0.000000
    11  C    0.004455  -0.003820   0.000294  -0.000000   0.000000  -0.000000
    12  C    0.474061  -0.117984  -0.000921  -0.000000   0.000000   0.000000
    13  C    4.510940   0.723043   0.008454   0.000000   0.000000  -0.000000
    14  C    0.723043   5.012165   0.552233   0.000000   0.000002  -0.000003
    15  C    0.008454   0.552233   5.117575   0.000005   0.000046   0.000001
    16  H    0.000000   0.000000   0.000005   0.624716   0.000728  -0.007131
    17  H    0.000000   0.000002   0.000046   0.000728   0.695334   0.010635
    18  H   -0.000000  -0.000003   0.000001  -0.007131   0.010635   0.887800
    19  H    0.000006  -0.000012  -0.000953  -0.000004   0.004214   0.006425
    20  H    0.000000   0.000002   0.000028   0.000054   0.000978   0.034480
    21  H   -0.000060   0.000014   0.000557   0.000000  -0.000089   0.000237
    22  H   -0.009780  -0.001208   0.000137  -0.000000  -0.000000   0.000000
    23  H   -0.000692  -0.000140   0.000003   0.000000   0.000000  -0.000000
    24  H   -0.000693  -0.000037   0.000001  -0.000000  -0.000000   0.000000
    25  H   -0.015072   0.000224   0.000802  -0.000000  -0.000000   0.000000
    26  H   -0.029032  -0.003783   0.000376  -0.000000  -0.000000   0.000000
    27  H    0.001419  -0.022500   0.349077   0.000001  -0.000001   0.000005
              19         20         21         22         23         24
     1  S    0.000138  -0.001319   0.000016  -0.000000  -0.000000  -0.000000
     2  C   -0.046004  -0.047563   0.004676  -0.000000   0.000000  -0.000000
     3  C    0.354725   0.013303  -0.029139  -0.000008  -0.000000  -0.000000
     4  C   -0.058270   0.169910  -0.077761  -0.000000  -0.000000  -0.000000
     5  S   -0.017674  -0.034883   0.350735  -0.000006   0.000000   0.000000
     6  C   -0.034540  -0.003346  -0.018671   0.000074  -0.000000   0.000000
     7  C    0.001352  -0.000036  -0.016600   0.002275  -0.000018   0.000043
     8  C   -0.000016  -0.000000  -0.000065  -0.006818  -0.000032  -0.001359
     9  C    0.000000   0.000000   0.000001   0.206140   0.184221  -0.056955
    10  C   -0.000000  -0.000000   0.000000  -0.005600  -0.017751   0.369304
    11  C   -0.000000  -0.000000  -0.000001  -0.005748   0.002258  -0.030440
    12  C   -0.000000  -0.000000   0.000017   0.016590   0.005697  -0.009582
    13  C    0.000006   0.000000  -0.000060  -0.009780  -0.000692  -0.000693
    14  C   -0.000012   0.000002   0.000014  -0.001208  -0.000140  -0.000037
    15  C   -0.000953   0.000028   0.000557   0.000137   0.000003   0.000001
    16  H   -0.000004   0.000054   0.000000  -0.000000   0.000000  -0.000000
    17  H    0.004214   0.000978  -0.000089  -0.000000   0.000000  -0.000000
    18  H    0.006425   0.034480   0.000237   0.000000  -0.000000   0.000000
    19  H    0.511808   0.011996  -0.002583  -0.000000   0.000000  -0.000000
    20  H    0.011996   0.785571   0.007951  -0.000000   0.000000  -0.000000
    21  H   -0.002583   0.007951   0.507201  -0.000001  -0.000000  -0.000000
    22  H   -0.000000  -0.000000  -0.000001   0.607680   0.007133   0.008852
    23  H    0.000000   0.000000  -0.000000   0.007133   0.723372   0.000895
    24  H   -0.000000  -0.000000  -0.000000   0.008852   0.000895   0.560855
    25  H   -0.000000  -0.000000   0.000000   0.009036  -0.006761   0.006004
    26  H    0.000000   0.000000  -0.000007   0.011192   0.000250   0.002504
    27  H    0.001005   0.000004  -0.000048   0.000001   0.000000   0.000000
              25         26         27
     1  S   -0.000000  -0.000000   0.000108
     2  C   -0.000000  -0.000000   0.000745
     3  C   -0.000003   0.000002  -0.001416
     4  C   -0.000000   0.000001  -0.000387
     5  S   -0.000004   0.000342  -0.000174
     6  C   -0.000093   0.000502  -0.041853
     7  C    0.001480   0.000596   0.007717
     8  C   -0.040587   0.015443  -0.000092
     9  C    0.031089  -0.008835  -0.000007
    10  C   -0.031766  -0.004135   0.000000
    11  C    0.294189  -0.045301   0.000029
    12  C   -0.025623   0.363519  -0.000169
    13  C   -0.015072  -0.029032   0.001419
    14  C    0.000224  -0.003783  -0.022500
    15  C    0.000802   0.000376   0.349077
    16  H   -0.000000  -0.000000   0.000001
    17  H   -0.000000  -0.000000  -0.000001
    18  H    0.000000   0.000000   0.000005
    19  H   -0.000000   0.000000   0.001005
    20  H   -0.000000   0.000000   0.000004
    21  H    0.000000  -0.000007  -0.000048
    22  H    0.009036   0.011192   0.000001
    23  H   -0.006761   0.000250   0.000000
    24  H    0.006004   0.002504   0.000000
    25  H    0.565918   0.001989   0.000019
    26  H    0.001989   0.510296  -0.000002
    27  H    0.000019  -0.000002   0.576821
 Mulliken charges:
               1
     1  S   -0.291551
     2  C   -0.237148
     3  C   -0.092524
     4  C   -0.261941
     5  S    0.139753
     6  C    0.340789
     7  C   -0.411512
     8  C   -0.128757
     9  C   -0.227230
    10  C   -0.179802
    11  C   -0.072708
    12  C   -0.396972
    13  C    0.309686
    14  C   -0.006850
    15  C   -0.340075
    16  H    0.148684
    17  H    0.128962
    18  H    0.039142
    19  H    0.268389
    20  H    0.062871
    21  H    0.273620
    22  H    0.160059
    23  H    0.101565
    24  H    0.150608
    25  H    0.209160
    26  H    0.184083
    27  H    0.129699
 Sum of Mulliken charges =  -0.00000
 Mulliken charges with hydrogens summed into heavy atoms:
               1
     1  S   -0.142867
     2  C   -0.069044
     3  C    0.175865
     4  C   -0.199070
     5  S    0.413373
     6  C    0.340789
     7  C   -0.411512
     8  C   -0.128757
     9  C    0.034395
    10  C   -0.029193
    11  C    0.136452
    12  C   -0.212889
    13  C    0.309686
    14  C   -0.006850
    15  C   -0.210377
 Electronic spatial extent (au):  <R**2>=           4950.3374
 Charge=             -0.0000 electrons
 Dipole moment (field-independent basis, Debye):
    X=              0.0196    Y=             -2.8832    Z=             -1.2233  Tot=              3.1321
 Quadrupole moment (field-independent basis, Debye-Ang):
   XX=            -96.9061   YY=           -107.6908   ZZ=           -103.0523
   XY=             -4.6090   XZ=              4.8938   YZ=              3.7746
 Traceless Quadrupole moment (field-independent basis, Debye-Ang):
   XX=              5.6436   YY=             -5.1411   ZZ=             -0.5025
   XY=             -4.6090   XZ=              4.8938   YZ=              3.7746
 Octapole moment (field-independent basis, Debye-Ang**2):
  XXX=             22.7695  YYY=            -12.3062  ZZZ=             -4.3228  XYY=             11.4853
  XXY=             -5.0708  XXZ=            -25.1281  XZZ=              7.4216  YZZ=             -6.1180
  YYZ=             -5.8449  XYZ=            -14.7445
 Hexadecapole moment (field-independent basis, Debye-Ang**3):
 XXXX=          -5303.7370 YYYY=           -951.7719 ZZZZ=           -449.9700 XXXY=            140.2512
 XXXZ=             58.5883 YYYX=             10.8969 YYYZ=              8.2408 ZZZX=             30.9240
 ZZZY=             23.0392 XXYY=          -1145.6016 XXZZ=          -1044.1697 YYZZ=           -228.7596
 XXYZ=             15.8395 YYXZ=            -17.7170 ZZXY=              2.5676
 N-N= 1.100395705685D+03 E-N=-5.254299170191D+03  KE= 1.292856932785D+03
 PrsmSu:  requested number of processors reduced to:  13 ShMem   1 Linda.
 Calling FoFJK, ICntrl=      2127 FMM=F ISym2X=0 I1Cent= 0 IOpClX= 0 NMat=1 NMatS=1 NMatT=0.
 ***** Axes restored to original set *****
 -------------------------------------------------------------------
 Center     Atomic                   Forces (Hartrees/Bohr)
 Number     Number              X              Y              Z
 -------------------------------------------------------------------
      1       16          -0.042584859    0.007486503   -0.018097065
      2        6           0.096976027   -0.036336017    0.131651171
      3        6          -0.027597212   -0.246880773   -0.113466593
      4        6           0.045203846   -0.008689751    0.171111315
      5       16           0.061127818    0.145301626    0.077945045
      6        6          -0.000719531   -0.022673494   -0.069032318
      7        6           0.023473412    0.049192594   -0.030574415
      8        6          -0.000771825   -0.011595548    0.047185943
      9        6          -0.186009159   -0.064082703   -0.088780536
     10        6           0.043144979    0.048080900   -0.079501092
     11        6          -0.003887338   -0.012730494   -0.002023340
     12        6          -0.002665617    0.040283185   -0.030155199
     13        6           0.024401523    0.051377397    0.010946403
     14        6          -0.052589364   -0.059740452    0.000765332
     15        6           0.018056388   -0.092636609   -0.006824698
     16        1           0.026728131    0.018450814   -0.019173055
     17        1          -0.013111566    0.056081573   -0.064699278
     18        1          -0.019543383    0.001949240   -0.030705035
     19        1          -0.067052885    0.053422673   -0.028268468
     20        1           0.008948221   -0.012471354    0.005923195
     21        1           0.000761538    0.052087701   -0.001636174
     22        1           0.116002608    0.095380530    0.001871915
     23        1           0.061459872   -0.010210146    0.036447658
     24        1          -0.019836159   -0.024895909    0.021262005
     25        1          -0.026749779    0.039773871    0.047745593
     26        1          -0.040264034   -0.051582900    0.022039040
     27        1          -0.022901653   -0.004342456    0.008042651
 -------------------------------------------------------------------
 Cartesian Forces:  Max     0.246880773 RMS     0.062630841

 GradGradGradGradGradGradGradGradGradGradGradGradGradGradGradGradGradGrad
 Berny optimization.
 FormGI is forming the generalized inverse of G from B-inverse, IUseBI=4.
 Internal  Forces:  Max     0.210150001 RMS     0.048663302
 Search for a local minimum.
 Step number   1 out of a maximum of  129
 All quantities printed in internal units (Hartrees-Bohrs-Radians)
 Mixed Optimization -- RFO/linear search
 Second derivative matrix not updated -- first step.
 ITU=  0
     Eigenvalues ---    0.00230   0.00230   0.00230   0.00230   0.00488
     Eigenvalues ---    0.00611   0.01437   0.01647   0.01693   0.01968
     Eigenvalues ---    0.02286   0.02606   0.02932   0.03104   0.03128
     Eigenvalues ---    0.03602   0.04050   0.04163   0.04400   0.04496
     Eigenvalues ---    0.04585   0.04596   0.05399   0.07550   0.07889
     Eigenvalues ---    0.08914   0.09480   0.10195   0.10431   0.11707
     Eigenvalues ---    0.11810   0.12335   0.12644   0.12781   0.13314
     Eigenvalues ---    0.13601   0.14143   0.15452   0.15530   0.15595
     Eigenvalues ---    0.15636   0.16000   0.16000   0.16000   0.16111
     Eigenvalues ---    0.16582   0.16892   0.20622   0.20973   0.21684
     Eigenvalues ---    0.22151   0.22309   0.22332   0.22937   0.23388
     Eigenvalues ---    0.23904   0.23934   0.24185   0.24819   0.24834
     Eigenvalues ---    0.24999   0.25162   0.29943   0.30680   0.31182
     Eigenvalues ---    0.35066   0.48181   0.53395   0.54202   0.58498
     Eigenvalues ---    0.61128   0.62728   0.64395   0.71350   0.99340
 RFO step:  Lambda=-4.07101206D-01 EMin= 2.30000000D-03
 Linear search not attempted -- first point.
 Maximum step size (   0.300) exceeded in Quadratic search.
    -- Step size scaled by   0.403
 Iteration  1 RMS(Cart)=  0.13632586 RMS(Int)=  0.00647479
 Iteration  2 RMS(Cart)=  0.01018443 RMS(Int)=  0.00032863
 Iteration  3 RMS(Cart)=  0.00007735 RMS(Int)=  0.00032718
 Iteration  4 RMS(Cart)=  0.00000015 RMS(Int)=  0.00032718
 Variable       Old X    -DE/DX   Delta X   Delta X   Delta X     New X
                                 (Linear)    (Quad)   (Total)
    R1        3.75399  -0.01362   0.00000  -0.00975  -0.00975   3.74424
    R2        2.69347  -0.02421   0.00000  -0.01591  -0.01591   2.67756
    R3        3.25830  -0.06446   0.00000  -0.04511  -0.04511   3.21319
    R4        2.73993  -0.07682   0.00000  -0.05893  -0.05891   2.68102
    R5        2.73405  -0.03286   0.00000  -0.02573  -0.02571   2.70834
    R6        3.36075   0.21015   0.00000   0.14899   0.14913   3.50988
    R7        2.89074   0.18835   0.00000   0.07570   0.07635   2.96709
    R8        2.56579   0.12761   0.00000   0.05466   0.05466   2.62045
    R9        2.55989  -0.08906   0.00000  -0.06318  -0.06318   2.49671
   R10        3.42457   0.01125   0.00000   0.00227   0.00156   3.42614
   R11        2.14777   0.00173   0.00000   0.00099   0.00099   2.14875
   R12        2.56299   0.00256   0.00000   0.00157   0.00157   2.56456
   R13        2.48845   0.06092   0.00000   0.02374   0.02374   2.51219
   R14        2.61747   0.10934   0.00000   0.04958   0.04958   2.66705
   R15        3.43775   0.03382   0.00000   0.02523   0.02523   3.46298
   R16        2.99671  -0.01028   0.00000  -0.00632  -0.00632   2.99038
   R17        1.82548   0.14106   0.00000   0.05991   0.05991   1.88539
   R18        2.92368  -0.07019   0.00000  -0.05558  -0.05558   2.86810
   R19        2.50059   0.06190   0.00000   0.02450   0.02450   2.52509
   R20        2.13328  -0.02858   0.00000  -0.01614  -0.01614   2.11714
   R21        2.85667   0.00998   0.00000   0.00559   0.00559   2.86226
   R22        2.53880  -0.06509   0.00000  -0.04580  -0.04580   2.49300
   R23        2.47620   0.05891   0.00000   0.02260   0.02260   2.49879
   R24        2.30192  -0.06701   0.00000  -0.04214  -0.04214   2.25978
   R25        2.28902   0.10786   0.00000   0.03104   0.03104   2.32006
   R26        2.42947   0.08843   0.00000   0.03181   0.03181   2.46128
   R27        2.05568  -0.00150   0.00000  -0.00080  -0.00080   2.05489
   R28        2.83305  -0.00444   0.00000  -0.00163  -0.00167   2.83138
    A1        2.21374  -0.07437   0.00000  -0.05286  -0.05286   2.16087
    A2        2.58668  -0.04395   0.00000  -0.02697  -0.02692   2.55976
    A3        1.47866   0.05213   0.00000   0.03715   0.03723   1.51589
    A4        1.52780  -0.00066   0.00000  -0.00028  -0.00030   1.52750
    A5        2.02331  -0.01440   0.00000  -0.01144  -0.01126   2.01205
    A6        1.43332  -0.01613   0.00000  -0.00973  -0.00980   1.42352
    A7        1.08669   0.03787   0.00000   0.02386   0.02331   1.11001
    A8        1.78631   0.08539   0.00000   0.05403   0.05335   1.83966
    A9        2.19914  -0.04591   0.00000  -0.02756  -0.02691   2.17223
   A10        2.24363  -0.04225   0.00000  -0.02825  -0.02823   2.21540
   A11        1.35373  -0.00414   0.00000   0.00310   0.00323   1.35696
   A12        1.81548   0.02333   0.00000   0.00961   0.00965   1.82514
   A13        2.01129  -0.00923   0.00000  -0.00933  -0.00926   2.00203
   A14        2.72530   0.02206   0.00000   0.00774   0.00732   2.73261
   A15        1.84664  -0.01049   0.00000   0.00272   0.00312   1.84976
   A16        1.34158   0.05893   0.00000   0.04550   0.04511   1.38669
   A17        1.33554   0.05070   0.00000   0.03757   0.03708   1.37262
   A18        1.94625  -0.00433   0.00000  -0.00284  -0.00284   1.94341
   A19        2.14306  -0.01994   0.00000  -0.01169  -0.01170   2.13136
   A20        2.15804   0.02600   0.00000   0.01648   0.01646   2.17450
   A21        2.00417  -0.11103   0.00000  -0.06922  -0.06933   1.93484
   A22        0.97964   0.02601   0.00000   0.02084   0.02222   1.00186
   A23        2.75251   0.00326   0.00000  -0.00106  -0.00179   2.75072
   A24        1.80926   0.01502   0.00000   0.01176   0.01217   1.82143
   A25        1.31057   0.04986   0.00000   0.03366   0.03329   1.34387
   A26        2.50899  -0.01729   0.00000  -0.01438  -0.01500   2.49400
   A27        1.42737  -0.04190   0.00000  -0.02832  -0.02837   1.39900
   A28        1.90507   0.01350   0.00000   0.00603   0.00601   1.91108
   A29        2.51636   0.00446   0.00000   0.00177   0.00160   2.51796
   A30        1.80926   0.06546   0.00000   0.04080   0.04095   1.85020
   A31        1.85604  -0.02803   0.00000  -0.01843  -0.01820   1.83783
   A32        2.12970  -0.03490   0.00000  -0.02497  -0.02484   2.10486
   A33        1.68006   0.02603   0.00000   0.01540   0.01526   1.69532
   A34        2.03306  -0.01261   0.00000  -0.00915  -0.00938   2.02368
   A35        2.32637  -0.03142   0.00000  -0.02395  -0.02394   2.30243
   A36        2.52883   0.04687   0.00000   0.02876   0.02876   2.55759
   A37        1.76498   0.07640   0.00000   0.04932   0.04936   1.81434
   A38        1.96010  -0.02373   0.00000  -0.01352  -0.01342   1.94669
   A39        2.38930  -0.04130   0.00000  -0.02735  -0.02746   2.36183
   A40        3.33033  -0.00438   0.00000  -0.00439  -0.00492   3.32541
   A41        3.20014   0.02112   0.00000   0.01860   0.01864   3.21878
   A42        3.23939  -0.01039   0.00000  -0.00698  -0.00743   3.23197
   A43        3.31570  -0.03121   0.00000  -0.02812  -0.02804   3.28766
    D1       -1.58887   0.00303   0.00000   0.00235   0.00250  -1.58638
    D2        0.73562   0.01901   0.00000   0.01701   0.01685   0.75247
    D3       -0.35411  -0.00350   0.00000  -0.00111  -0.00110  -0.35521
    D4       -1.72026  -0.00425   0.00000   0.00627   0.00673  -1.71353
    D5       -0.96421   0.01734   0.00000   0.00787   0.00745  -0.95676
    D6        1.04891   0.01493   0.00000   0.01266   0.01272   1.06164
    D7        2.36095  -0.02776   0.00000  -0.01547  -0.01510   2.34584
    D8        3.11699  -0.00617   0.00000  -0.01387  -0.01437   3.10262
    D9       -1.15307  -0.00858   0.00000  -0.00908  -0.00911  -1.16217
   D10       -2.98055  -0.00401   0.00000   0.00588   0.00632  -2.97423
   D11       -2.22451   0.01757   0.00000   0.00748   0.00705  -2.21746
   D12       -0.21138   0.01516   0.00000   0.01227   0.01232  -0.19906
   D13       -1.31825  -0.00596   0.00000  -0.00610  -0.00630  -1.32455
   D14        2.77424   0.00126   0.00000   0.00166   0.00153   2.77577
   D15        2.89412   0.00343   0.00000  -0.00009  -0.00018   2.89393
   D16        0.12137  -0.01216   0.00000  -0.01336  -0.01357   0.10780
   D17        0.68705   0.01295   0.00000   0.00935   0.00963   0.69668
   D18       -2.08569  -0.00263   0.00000  -0.00392  -0.00376  -2.08945
   D19       -1.70049   0.01385   0.00000   0.00914   0.00964  -1.69085
   D20        1.11608   0.00224   0.00000   0.00129   0.00148   1.11755
   D21        0.79950  -0.01178   0.00000  -0.00686  -0.00702   0.79248
   D22       -2.06672  -0.02290   0.00000  -0.01709  -0.01716  -2.08388
   D23       -2.00544   0.00017   0.00000   0.00042   0.00043  -2.00501
   D24        1.41153  -0.01095   0.00000  -0.00981  -0.00971   1.40182
   D25       -2.48196  -0.02710   0.00000  -0.02388  -0.02403  -2.50599
   D26        1.67488  -0.02304   0.00000  -0.01921  -0.01968   1.65520
   D27        2.42768   0.00246   0.00000   0.00268   0.00252   2.43020
   D28       -1.19828   0.00305   0.00000   0.00410   0.00423  -1.19405
   D29       -0.40516  -0.00403   0.00000  -0.00501  -0.00514  -0.41030
   D30        2.25208  -0.00344   0.00000  -0.00359  -0.00343   2.24864
   D31       -0.85830   0.01295   0.00000   0.00904   0.00801  -0.85028
   D32        1.66883   0.00439   0.00000   0.00115   0.00024   1.66907
   D33       -1.88283  -0.02127   0.00000  -0.01834  -0.01746  -1.90029
   D34        0.64430  -0.02983   0.00000  -0.02623  -0.02523   0.61906
   D35        1.91191  -0.00414   0.00000  -0.00378  -0.00381   1.90810
   D36       -1.84414  -0.01270   0.00000  -0.01167  -0.01159  -1.85573
   D37        1.64185  -0.05416   0.00000  -0.04795  -0.04797   1.59389
   D38       -0.62338  -0.03538   0.00000  -0.03190  -0.03189  -0.65528
   D39       -0.30397  -0.01955   0.00000  -0.01864  -0.01865  -0.32262
   D40       -2.56921  -0.00078   0.00000  -0.00259  -0.00258  -2.57178
   D41       -2.80701   0.04072   0.00000   0.03966   0.03981  -2.76720
   D42       -0.26535   0.01070   0.00000   0.01258   0.01258  -0.25277
   D43       -0.72000   0.03715   0.00000   0.03410   0.03410  -0.68591
   D44        1.82166   0.00713   0.00000   0.00702   0.00687   1.82852
   D45        2.57866  -0.03389   0.00000  -0.03438  -0.03416   2.54449
   D46        0.28877  -0.02488   0.00000  -0.02346  -0.02368   0.26509
   D47       -0.35252  -0.01267   0.00000  -0.01393  -0.01414  -0.36666
   D48       -2.81198  -0.04151   0.00000  -0.03534  -0.03513  -2.84711
         Item               Value     Threshold  Converged?
 Maximum Force            0.210150     0.000450     NO 
 RMS     Force            0.048663     0.000300     NO 
 Maximum Displacement     0.436573     0.001800     NO 
 RMS     Displacement     0.142635     0.001200     NO 
 Predicted change in Energy=-1.521441D-01
 GradGradGradGradGradGradGradGradGradGradGradGradGradGradGradGradGradGrad

                          Input orientation:                          
 ---------------------------------------------------------------------
 Center     Atomic      Atomic             Coordinates (Angstroms)
 Number     Number       Type             X           Y           Z
 ---------------------------------------------------------------------
      1         16           0        0.669756    0.092688   -0.215961
      2          6           0        2.322617    0.489657   -1.233936
      3          6           0        2.328855    1.489720   -3.234034
      4          6           0        3.424346    1.679188   -1.746170
      5         16           0        2.400640    2.917900   -2.585639
      6          6           0        1.477227    1.620830   -4.320510
      7          6           0        1.761606    2.708600   -5.029854
      8          6           0        0.453514    3.589405   -6.627535
      9          6           0       -0.624065    4.148512   -8.000266
     10          6           0       -1.891475    4.916178   -7.444853
     11          6           0       -1.925116    3.828615   -6.669253
     12          6           0       -1.125126    4.174142   -5.430394
     13          6           0       -0.857004    2.934329   -5.056946
     14          6           0       -0.577623    1.749148   -4.900126
     15          6           0        0.275822    0.887614   -4.424971
     16          1           0        0.654319   -0.257801    1.156821
     17          1           0        2.899902   -0.630285   -0.581804
     18          1           0        2.963050    0.738727    0.023781
     19          1           0        3.215309    0.531246   -3.031289
     20          1           0        3.954806    2.229716   -0.904468
     21          1           0        3.521876    2.935433   -3.350008
     22          1           0        0.152097    4.683800   -7.673986
     23          1           0       -1.620460    4.031334   -9.139116
     24          1           0       -1.695378    6.019163   -7.456539
     25          1           0       -1.555764    2.832086   -7.450855
     26          1           0       -0.440446    5.151676   -5.505443
     27          1           0        0.466794   -0.172842   -4.571253
 ---------------------------------------------------------------------
                    Distance matrix (angstroms):
                    1          2          3          4          5
     1  S    0.000000
     2  C    1.981365   0.000000
     3  C    3.716595   2.236193   0.000000
     4  C    3.527929   1.700346   1.857347   0.000000
     5  S    4.073470   2.780208   1.570117   1.813033   0.000000
     6  C    4.453600   3.394286   1.386683   3.228298   2.354753
     7  C    5.586474   4.432543   2.243303   3.821907   2.535026
     8  C    7.306303   6.495606   4.409243   6.025155   4.536424
     9  C    8.872377   8.237316   6.205310   7.848624   6.323087
    10  C    9.059958   8.713677   6.876249   8.438664   6.784345
    11  C    7.895282   7.663847   5.947052   7.581129   6.018095
    12  C    6.860771   6.562974   4.894906   6.363646   4.701255
    13  C    5.817306   5.540922   3.944565   5.555769   4.088994
    14  C    5.122618   4.841349   3.360176   5.095889   3.948783
    15  C    4.301495   3.811882   2.448634   4.209010   3.466995
    16  H    1.416903   3.009590   5.013733   4.455596   5.209676
    17  H    2.372780   1.418733   3.443087   2.639025   4.105391
    18  H    2.394585   1.433193   3.402874   2.056693   3.445892
    19  H    3.820765   2.007264   1.321204   1.735799   2.560939
    20  H    3.979006   2.408402   2.935676   1.137072   2.390683
    21  H    5.102748   3.449320   1.877986   2.039598   1.357106
    22  H    8.773165   7.986003   5.886730   7.407719   5.836577
    23  H   10.019018   9.517521   7.544991   9.254097   7.768980
    24  H    9.651058   9.243403   7.385110   8.812222   7.079609
    25  H    8.049902   7.692782   5.888445   7.659901   6.271429
    26  H    7.403007   6.900341   5.122328   6.413027   4.646157
    27  H    4.368097   3.875651   2.831879   4.489791   4.151519
                    6          7          8          9         10
     6  C    0.000000
     7  C    1.329392   0.000000
     8  C    3.200881   2.244885   0.000000
     9  C    4.934086   4.072851   1.832530   0.000000
    10  C    5.654113   4.904144   2.815548   1.582443   0.000000
    11  C    4.686880   4.187360   2.390992   1.888562   1.336220
    12  C    3.810969   3.262126   2.065713   2.618390   2.279464
    13  C    2.777814   2.628460   2.147867   3.192434   3.271079
    14  C    2.138885   2.531673   2.726487   3.920455   4.269886
    15  C    1.411343   2.426814   3.490349   4.921990   5.481441
    16  H    5.848726   6.949861   8.685478  10.242173  10.355672
    17  H    4.590147   5.677061   7.767977   9.502043  10.041016
    18  H    4.675323   5.555456   7.659252   9.427585   9.838598
    19  H    2.422853   3.293689   5.469263   7.246802   8.049002
    20  H    4.263624   4.696623   6.845531   8.660149   9.174569
    21  H    2.617374   2.443744   4.537037   6.347069   7.070748
    22  H    4.731126   3.671971   1.543896   0.997707   2.069466
    23  H    6.214914   5.483980   3.287051   1.517733   1.930524
    24  H    6.264617   5.366504   3.347941   2.223216   1.120342
    25  H    4.523851   4.108702   2.299692   1.703787   2.110966
    26  H    4.189082   3.323227   2.121072   2.695217   2.433569
    27  H    2.073911   3.192109   4.287537   5.623362   6.302154
                   11         12         13         14         15
    11  C    0.000000
    12  C    1.514644   0.000000
    13  C    2.130762   1.322304   0.000000
    14  C    3.044623   2.541956   1.227721   0.000000
    15  C    4.304697   3.711441   2.423165   1.302452   0.000000
    16  H    9.197810   8.136335   7.147356   6.498626   5.710661
    17  H    8.956541   7.924153   6.844539   6.033473   4.894870
    18  H    8.845240   7.633039   6.725121   6.148347   5.199495
    19  H    7.108544   6.153517   5.144106   4.400247   3.272603
    20  H    8.388248   7.076052   6.394769   6.061282   5.265938
    21  H    6.440876   5.239946   4.699811   4.540488   3.985721
    22  H    2.460823   2.631494   3.305728   4.103532   4.998243
    23  H    2.496825   3.744378   4.295393   4.925943   5.975117
    24  H    2.339038   2.799027   3.997139   5.100750   6.277645
    25  H    1.319239   2.463498   2.495900   2.938661   4.036292
    26  H    2.304168   1.195822   2.300282   3.458673   4.456757
    27  H    5.112191   4.708355   3.412162   2.212015   1.087399
                   16         17         18         19         20
    16  H    0.000000
    17  H    2.864298   0.000000
    18  H    2.758095   1.498303   0.000000
    19  H    4.972076   2.729215   3.072481   0.000000
    20  H    4.618428   3.065378   2.016997   2.820466   0.000000
    21  H    6.223435   4.556770   4.064512   2.444521   2.581885
    22  H   10.131871   9.278415   9.095091   6.941298   8.143065
    23  H   11.383217  10.742065  10.761436   8.540541  10.106377
    24  H   10.913813  10.611020  10.273224   8.591561   9.445322
    25  H    9.408717   8.889591   8.981759   6.898519   8.578136
    26  H    8.651400   8.296458   7.850491   6.390176   7.001790
    27  H    5.731773   4.695208   5.308162   3.228244   5.602127
                   21         22         23         24         25
    21  H    0.000000
    22  H    5.754040   0.000000
    23  H    7.820383   2.390455   0.000000
    24  H    7.320705   2.289900   2.605406   0.000000
    25  H    6.527637   2.528917   2.071861   3.190138   0.000000
    26  H    5.025696   2.296213   3.981354   2.476724   3.226307
    27  H    4.526183   5.771738   6.549588   7.165248   4.627358
                   26         27
    26  H    0.000000
    27  H    5.481449   0.000000
 Stoichiometry    C13H12S2
 Framework group  C1[X(C13H12S2)]
 Deg. of freedom    75
 Full point group                 C1      NOp   1
 Largest Abelian subgroup         C1      NOp   1
 Largest concise Abelian subgroup C1      NOp   1
                         Standard orientation:                         
 ---------------------------------------------------------------------
 Center     Atomic      Atomic             Coordinates (Angstroms)
 Number     Number       Type             X           Y           Z
 ---------------------------------------------------------------------
      1         16           0        3.909170    1.788570   -0.374219
      2          6           0        3.587269   -0.038139    0.322432
      3          6           0        1.546395   -0.884129    0.668401
      4          6           0        3.097933   -1.627658   -0.031337
      5         16           0        1.464873   -1.442529   -0.796799
      6          6           0        0.273654   -0.414010    0.954774
      7          6           0       -0.659370   -1.282523    0.577371
      8          6           0       -2.857003   -0.843881    0.445035
      9          6           0       -4.639267   -0.420958    0.498307
     10          6           0       -5.045713    0.464635   -0.748549
     11          6           0       -3.958260    1.126721   -0.342874
     12          6           0       -2.794588    0.523597   -1.101987
     13          6           0       -1.840053    0.907166   -0.271189
     14          6           0       -1.078601    1.213364    0.641901
     15          6           0        0.027351    0.938825    1.272679
     16          1           0        5.157251    2.231778   -0.877679
     17          1           0        4.837257    0.078096    0.983360
     18          1           0        4.744044   -0.455415   -0.413634
     19          1           0        2.490238   -1.199884    1.537330
     20          1           0        3.743975   -2.164374   -0.797821
     21          1           0        1.298428   -2.586207   -0.085439
     22          1           0       -4.299998   -1.269901    0.098790
     23          1           0       -5.903010    0.274267    0.970673
     24          1           0       -5.462278   -0.192899   -1.554333
     25          1           0       -3.995385    1.082694    0.975107
     26          1           0       -3.008910   -0.519731   -1.645610
     27          1           0        0.455207    1.206856    2.235765
 ---------------------------------------------------------------------
 Rotational constants (GHZ):           1.1455299           0.2317488           0.2115830
 Standard basis: 6-31G(2df,p) (6D, 7F)
 There are   533 symmetry adapted cartesian basis functions of A   symmetry.
 There are   488 symmetry adapted basis functions of A   symmetry.
   488 basis functions,   792 primitive gaussians,   533 cartesian basis functions
    61 alpha electrons       61 beta electrons
       nuclear repulsion energy      1085.4337010111 Hartrees.
 NAtoms=   27 NActive=   27 NUniq=   27 SFac= 1.00D+00 NAtFMM=   60 NAOKFM=F Big=F
 Integral buffers will be    131072 words long.
 Raffenetti 2 integral format.
 Two-electron integral symmetry is turned on.
 One-electron integrals computed using PRISM.
 PrsmSu:  requested number of processors reduced to:  12 ShMem   1 Linda.
 NBasis=   488 RedAO= T EigKep=  1.58D-04  NBF=   488
 NBsUse=   488 1.00D-06 EigRej= -1.00D+00 NBFU=   488
 Initial guess from the checkpoint file:  "SCC1Cd[SH]C2dC1CdCCdCCdCdCdC2.chk"
 B after Tr=    -0.000000   -0.000000   -0.000000
         Rot=    0.999851   -0.013424   -0.000380   -0.010871 Ang=  -1.98 deg.
 ExpMin= 1.17D-01 ExpMax= 2.19D+04 ExpMxC= 3.30D+03 IAcc=2 IRadAn=         4 AccDes= 0.00D+00
 Harris functional with IExCor=  402 and IRadAn=       4 diagonalized for initial guess.
 HarFok:  IExCor=  402 AccDes= 0.00D+00 IRadAn=         4 IDoV= 1 UseB2=F ITyADJ=14
 ICtDFT=  3500011 ScaDFX=  1.000000  1.000000  1.000000  1.000000
 FoFCou: FMM=F IPFlag=           0 FMFlag=      100000 FMFlg1=           0
         NFxFlg=           0 DoJE=T BraDBF=F KetDBF=T FulRan=T
         wScrn=  0.000000 ICntrl=       500 IOpCl=  0 I1Cent=   200000004 NGrid=           0
         NMat0=    1 NMatS0=      1 NMatT0=    0 NMatD0=    1 NMtDS0=    0 NMtDT0=    0
 Petite list used in FoFCou.
 Requested convergence on RMS density matrix=1.00D-08 within 128 cycles.
 Requested convergence on MAX density matrix=1.00D-06.
 Requested convergence on             energy=1.00D-06.
 No special actions if energy rises.
 Integral accuracy reduced to 1.0D-05 until final iterations.
 Initial convergence to 1.0D-05 achieved.  Increase integral accuracy.
 SCF Done:  E(RB3LYP) =  -1297.52302154     A.U. after   22 cycles
            NFock= 22  Conv=0.86D-08     -V/T= 2.0041
 PrsmSu:  requested number of processors reduced to:  13 ShMem   1 Linda.
 Calling FoFJK, ICntrl=      2127 FMM=F ISym2X=0 I1Cent= 0 IOpClX= 0 NMat=1 NMatS=1 NMatT=0.
 ***** Axes restored to original set *****
 -------------------------------------------------------------------
 Center     Atomic                   Forces (Hartrees/Bohr)
 Number     Number              X              Y              Z
 -------------------------------------------------------------------
      1       16          -0.036820085    0.011086636   -0.017066833
[...]
   R25        2.55341  -0.00177   0.00122  -0.00145  -0.00017   2.55324
   R26        2.45531  -0.00477  -0.00085  -0.00371  -0.00456   2.45076
   R27        2.06320   0.00109   0.00001   0.00301   0.00302   2.06623
   R28        3.38778  -0.00139  -0.00080   0.00184   0.00097   3.38875
    A1        1.68660   0.00255   0.00066   0.01351   0.01416   1.70076
    A2        2.03654  -0.00244  -0.00432  -0.02664  -0.03111   2.00543
    A3        1.77527   0.00059   0.00154  -0.00356  -0.00249   1.77277
    A4        1.72187   0.00185   0.00026   0.01668   0.01718   1.73905
    A5        2.01615  -0.00037   0.00168  -0.00897  -0.00768   2.00848
    A6        1.96331  -0.00061   0.00480   0.00914   0.01408   1.97739
    A7        1.51374   0.00331  -0.00575   0.01511   0.00805   1.52179
    A8        2.12933  -0.00149   0.00342   0.00250   0.00398   2.13331
    A9        1.82362   0.00174  -0.00772  -0.00165  -0.00777   1.81585
   A10        2.23371  -0.00056   0.00295  -0.00096   0.00233   2.23605
   A11        1.49852   0.00108  -0.00320   0.00249   0.00577   1.50429
   A12        2.13962  -0.00021   0.00258   0.01345   0.00719   2.14681
   A13        2.10983   0.00026  -0.00103   0.00448   0.00105   2.11088
   A14        2.52243  -0.00205   0.00098  -0.03270  -0.03652   2.48591
   A15        1.93323   0.00024   0.00392   0.01813   0.02794   1.96117
   A16        1.68320  -0.00114  -0.00450  -0.01730  -0.02119   1.66201
   A17        1.81585   0.00149   0.00556   0.02114   0.02499   1.84085
   A18        1.20084  -0.00212   0.00284   0.00633   0.00838   1.20922
   A19        2.46336   0.00008   0.00308   0.00056   0.00425   2.46761
   A20        2.61049   0.00214  -0.00511  -0.00347  -0.00898   2.60151
   A21        1.03290   0.03087  -0.01514  -0.04532  -0.06003   0.97287
   A22        2.58737  -0.01743   0.02237   0.04607   0.06582   2.65320
   A23        1.26565  -0.01169   0.00476   0.01369   0.01927   1.28492
   A24        2.12800  -0.00201  -0.00352   0.01441   0.01144   2.13944
   A25        2.13931   0.00427   0.00166  -0.01647  -0.01557   2.12374
   A26        2.01588  -0.00224   0.00191   0.00209   0.00397   2.01984
   A27        2.06522   0.03408   0.01416  -0.00399   0.00815   2.07337
   A28        2.08126  -0.01113  -0.00615   0.06141   0.05365   2.13491
   A29        2.08737  -0.01684  -0.00150  -0.03216  -0.03606   2.05131
   A30        2.15734   0.00832   0.00453  -0.03996  -0.03715   2.12019
   A31        2.05868  -0.00567   0.00160   0.00290   0.00275   2.06143
   A32        2.05934  -0.00102  -0.00222   0.04550   0.04157   2.10091
   A33        2.06334   0.00699  -0.00345  -0.01712  -0.02055   2.04279
   A34        2.08587  -0.00093  -0.00028   0.00528   0.00494   2.09081
   A35        2.06754  -0.00240   0.00661   0.00085   0.00734   2.07487
   A36        2.96010   0.01204  -0.00249   0.00414   0.00122   2.96132
   A37        2.06953   0.00031  -0.00308  -0.00382  -0.00764   2.06189
   A38        2.08575  -0.00090   0.00025  -0.00473  -0.00520   2.08055
   A39        2.12720   0.00051   0.00272   0.00644   0.00841   2.13561
   A40        3.74745   0.00275  -0.00280   0.01414   0.01039   3.75783
   A41        2.55446  -0.00869  -0.00019  -0.09986  -0.10020   2.45426
   A42        2.16687   0.00055  -0.00307   0.00564   0.00199   2.16886
   A43        2.54104  -0.00564   0.00656   0.01263   0.01909   2.56013
    D1       -2.28894  -0.00088  -0.00295  -0.05921  -0.06202  -2.35096
    D2        1.78417   0.00068  -0.00360  -0.02807  -0.03174   1.75243
    D3       -0.18347  -0.00153   0.00104  -0.04949  -0.04853  -0.23200
    D4       -1.52458   0.00229   0.00337   0.10313   0.10682  -1.41776
    D5       -1.44662  -0.00013  -0.01359  -0.03213  -0.04599  -1.49262
    D6        1.18493   0.00064  -0.00051   0.05840   0.05738   1.24231
    D7        0.56031   0.00077   0.00338   0.06840   0.07234   0.63265
    D8        0.63826  -0.00165  -0.01358  -0.06686  -0.08047   0.55779
    D9       -3.01337  -0.00089  -0.00050   0.02367   0.02290  -2.99047
   D10        2.78676   0.00195   0.00233   0.09249   0.09536   2.88212
   D11        2.86472  -0.00047  -0.01463  -0.04277  -0.05746   2.80726
   D12       -0.78692   0.00029  -0.00155   0.04776   0.04592  -0.74100
   D13       -1.12182   0.00300   0.02014   0.17336   0.19502  -0.92680
   D14        2.68757   0.00344   0.02812   0.21156   0.23677   2.92434
   D15       -2.57886   0.00111   0.01679   0.13010   0.14638  -2.43248
   D16        0.72533   0.00222   0.02289   0.16200   0.18400   0.90933
   D17        1.55196  -0.00045   0.01760   0.09729   0.11449   1.66644
   D18       -1.42704   0.00066   0.02370   0.12919   0.15211  -1.27493
   D19       -2.75962   0.00002  -0.00033  -0.00079   0.00007  -2.75955
   D20        0.80714   0.00067   0.00209  -0.00013   0.00284   0.80998
   D21        1.74968  -0.00033  -0.00263  -0.02880  -0.03148   1.71820
   D22       -1.51283   0.00060   0.00160  -0.00485  -0.00276  -1.51559
   D23       -1.92323  -0.00065  -0.00823  -0.02947  -0.03734  -1.96057
   D24        1.09744   0.00027  -0.00401  -0.00551  -0.00861   1.08883
   D25       -1.90919   0.00319   0.03309   0.22987   0.26337  -1.64582
   D26        1.69704   0.00247   0.02263   0.15086   0.17435   1.87140
   D27        2.94617  -0.00163   0.00436  -0.02677  -0.02218   2.92399
   D28       -0.15589   0.00058   0.01187   0.03248   0.04433  -0.11155
   D29       -0.41933  -0.00055   0.01456   0.01891   0.03348  -0.38585
   D30        2.76180   0.00167   0.02208   0.07816   0.09999   2.86179
   D31       -0.47883  -0.02833   0.01295  -0.01863  -0.00545  -0.48427
   D32        2.32943  -0.01157   0.03059   0.05751   0.09037   2.41980
   D33       -2.96845  -0.01549  -0.00865  -0.05992  -0.07067  -3.03911
   D34       -0.16019   0.00126   0.00900   0.01621   0.02516  -0.13504
   D35        0.17086  -0.00476  -0.00465  -0.04217  -0.04801   0.12285
   D36        2.97911   0.01200   0.01300   0.03397   0.04782   3.02693
   D37        2.38349   0.01909   0.02602   0.09162   0.11584   2.49933
   D38       -0.62106   0.00501   0.00406   0.01444   0.01752  -0.60354
   D39       -0.42357   0.00111   0.00959  -0.00311   0.00745  -0.41611
   D40        2.85506  -0.01297  -0.01238  -0.08029  -0.09086   2.76420
   D41       -2.61077  -0.01997  -0.01800  -0.07266  -0.09145  -2.70222
   D42        0.14173  -0.01025  -0.00884  -0.10329  -0.11221   0.02953
   D43        0.39373  -0.00622   0.00454   0.00143   0.00605   0.39978
   D44       -3.13695   0.00350   0.01371  -0.02921  -0.01471   3.13153
   D45       -2.66692   0.00072   0.00691  -0.04805  -0.04169  -2.70861
   D46        0.53289  -0.00519  -0.00304  -0.02690  -0.02920   0.50368
   D47        0.32426   0.00060  -0.00070   0.02411   0.02361   0.34787
   D48       -2.85786  -0.00170  -0.00839  -0.03689  -0.04546  -2.90332
         Item               Value     Threshold  Converged?
 Maximum Force            0.034079     0.000450     NO 
 RMS     Force            0.007593     0.000300     NO 
 Maximum Displacement     0.594382     0.001800     NO 
 RMS     Displacement     0.206527     0.001200     NO 
 Predicted change in Energy=-7.328448D-03
 GradGradGradGradGradGradGradGradGradGradGradGradGradGradGradGradGradGrad

                          Input orientation:                          
 ---------------------------------------------------------------------
 Center     Atomic      Atomic             Coordinates (Angstroms)
 Number     Number       Type             X           Y           Z
 ---------------------------------------------------------------------
      1         16           0        0.596885    0.459429   -0.811850
      2          6           0        2.560233    0.420742   -0.311043
      3          6           0        3.454295    1.128067   -3.322476
      4          6           0        3.230964    1.682989   -0.402457
      5         16           0        3.927434    2.284412   -1.885887
      6          6           0        2.305824    1.363392   -4.146419
      7          6           0        3.415706    1.810257   -4.743260
      8          6           0       -0.604679    2.317174   -7.420737
      9          6           0       -2.645395    5.454036   -8.819769
     10          6           0       -2.018755    5.431082   -7.646004
     11          6           0       -1.846123    4.153643   -6.967657
     12          6           0       -0.708704    3.867312   -6.260811
     13          6           0       -0.361323    2.455615   -6.103590
     14          6           0        0.161680    1.742733   -5.081930
     15          6           0        0.867949    1.094534   -4.208471
     16          1           0        0.138300   -0.272989    0.222529
     17          1           0        2.940716   -0.354145   -0.977307
     18          1           0        2.480943    0.048252    0.708645
     19          1           0        3.899314    0.182512   -3.054800
     20          1           0        3.026901    2.474806    0.307753
     21          1           0        5.246024    1.906841   -1.850625
     22          1           0       -2.726614    6.355528   -9.422784
     23          1           0       -3.126207    4.569615   -9.226964
     24          1           0       -1.446372    6.277104   -7.276601
     25          1           0       -2.631816    3.412339   -7.066220
     26          1           0        0.077869    4.614924   -6.175811
     27          1           0        0.415029    0.438576   -3.460066
 ---------------------------------------------------------------------
                    Distance matrix (angstroms):
                    1          2          3          4          5
     1  S    0.000000
     2  C    2.026583   0.000000
     3  C    3.862008   3.219997   0.000000
     4  C    2.933099   1.432307   2.980658   0.000000
     5  S    3.946729   2.796897   1.903886   1.745664   0.000000
     6  C    3.854474   3.957704   1.432915   3.869790   2.930512
     7  C    5.022596   4.723043   1.576547   4.346596   2.941304
     8  C    6.969388   8.010048   5.889396   8.023129   7.153718
     9  C    9.979240  11.172780   9.281188  10.936339  10.066147
    10  C    8.846726   9.993612   8.195310   9.699315   8.856503
    11  C    7.583499   8.812550   7.108859   8.659260   7.915325
    12  C    6.558156   7.613445   5.785139   7.390031   6.568052
    13  C    5.736325   6.799250   4.904683   6.782653   6.017621
    14  C    4.479939   5.501098   3.783491   5.596565   4.968804
    15  C    3.466103   4.302066   2.734099   4.518392   4.021275
    16  H    1.347841   2.575213   5.052310   3.712280   5.034208
    17  H    2.486528   1.090471   2.821441   2.136495   2.959917
    18  H    2.455737   1.088485   4.285248   2.114106   3.718110
    19  H    4.001692   3.062367   1.078780   3.119782   2.405230
    20  H    3.349661   2.195419   3.895502   1.083059   2.378922
    21  H    4.978810   3.433988   2.446044   2.491539   1.372036
    22  H   10.952525  12.091164  10.136259  11.776742  10.846896
    23  H   10.078154  11.359683   9.487372  11.252473  10.433955
    24  H    8.933826   9.943282   8.134139   9.499327   8.595300
    25  H    7.632911   9.029919   7.501617   9.042598   8.433969
    26  H    6.805115   7.625536   5.630270   7.202074   6.217225
    27  H    2.654535   3.810323   3.119529   4.339011   4.268739
                    6          7          8          9         10
     6  C    0.000000
     7  C    1.337066   0.000000
     8  C    4.483513   4.856887   0.000000
     9  C    7.942804   8.162842   3.995211   0.000000
    10  C    6.891674   7.146304   3.427357   1.330762   0.000000
    11  C    5.743130   6.174645   2.262539   2.400036   1.456642
    12  C    4.452825   4.852340   1.938860   3.580045   2.465840
    13  C    3.483840   4.066071   1.346576   4.645981   3.738920
    14  C    2.369902   3.272300   2.527313   5.968657   4.993264
    15  C    1.464111   2.699875   3.739269   7.253475   6.241421
    16  H    5.144279   6.303996   8.104349  11.059426   9.955054
    17  H    3.660094   4.369514   7.824549  11.244723  10.126041
    18  H    5.033081   5.805317   8.986430  12.095143  10.909733
    19  H    2.263917   2.394646   6.626020  10.191027   9.146047
    20  H    4.647025   5.109357   8.540655  11.151789   9.872206
    21  H    3.769719   3.424431   8.088588  11.109728   9.938999
    22  H    8.836678   8.960219   4.981878   1.087618   2.124291
    23  H    8.099306   8.397278   3.833282   1.085904   2.113766
    24  H    6.929760   7.071799   4.050959   2.120486   1.086201
    25  H    6.091282   6.673480   2.331170   2.691402   2.187993
    26  H    4.433359   4.589065   2.700994   3.887260   2.687641
    27  H    2.213926   3.540079   4.500650   7.952826   6.954890
                   11         12         13         14         15
    11  C    0.000000
    12  C    1.369429   0.000000
    13  C    2.415480   1.462287   0.000000
    14  C    3.660563   2.580923   1.351118   0.000000
    15  C    4.933299   3.792919   2.637257   1.296884   0.000000
    16  H    8.673625   7.739070   6.907581   5.674589   4.694280
    17  H    8.894845   7.684685   6.713939   5.382180   4.103103
    18  H    9.721283   8.563433   7.764046   6.463822   5.279629
    19  H    8.005646   6.714916   5.710967   4.529178   3.369260
    20  H    8.916078   7.683740   7.251603   6.147691   5.192544
    21  H    9.029435   7.664984   7.059122   6.026510   5.038534
    22  H    3.413387   4.501250   5.641008   6.961547   8.233347
    23  H    2.629851   3.890451   4.676435   5.998563   7.294843
    24  H    2.182735   2.717182   4.142109   5.287998   6.452018
    25  H    1.084693   2.134020   2.645206   3.811641   5.078120
    26  H    2.131090   1.088506   2.204705   3.074586   4.109477
    27  H    5.587282   4.567623   3.414584   2.096534   1.093401
                   16         17         18         19         20
    16  H    0.000000
    17  H    3.049546   0.000000
    18  H    2.414017   1.793251   0.000000
    19  H    5.009350   2.350082   4.024092   0.000000
    20  H    3.987687   3.108339   2.519315   4.162029   0.000000
    21  H    5.927771   3.345024   4.201177   2.497394   3.147331
    22  H   12.048943  12.184597  13.020991  11.070694  11.951832
    23  H   11.108588  11.362561  12.271885  10.329580  11.539488
    24  H   10.082254  10.144018  10.862161   9.140241   9.591145
    25  H    8.624444   9.072727   9.894741   8.317387   9.342137
    26  H    8.051962   7.740283   8.603777   6.632528   7.437305
    27  H    3.760905   3.629269   4.668886   3.517108   5.016430
                   21         22         23         24         25
    21  H    0.000000
    22  H   11.861340   0.000000
    23  H   11.471486   1.840518   0.000000
    24  H    9.660672   2.500254   3.088896   0.000000
    25  H    9.567096   3.771570   2.500505   3.107477   0.000000
    26  H    7.262973   4.630082   4.424668   2.509560   3.095389
    27  H    5.299492   8.968514   7.928615   7.219360   5.579505
                   26         27
    26  H    0.000000
    27  H    4.993078   0.000000
 Stoichiometry    C13H12S2
 Framework group  C1[X(C13H12S2)]
 Deg. of freedom    75
 Full point group                 C1      NOp   1
 Largest Abelian subgroup         C1      NOp   1
 Largest concise Abelian subgroup C1      NOp   1
                         Standard orientation:                         
 ---------------------------------------------------------------------
 Center     Atomic      Atomic             Coordinates (Angstroms)
 Number     Number       Type             X           Y           Z
 ---------------------------------------------------------------------
      1         16           0        2.826410    2.282741   -0.123891
      2          6           0        4.255544    0.846169   -0.153535
      3          6           0        2.174936   -1.397394    0.849400
      4          6           0        4.052055   -0.187053   -1.124384
      5         16           0        3.064355   -1.594390   -0.822398
      6          6           0        0.854957   -0.849497    0.952875
      7          6           0        0.815827   -2.185732    0.979185
      8          6           0       -3.525934   -0.074260    1.508480
      9          6           0       -6.873259    0.001948   -0.671271
     10          6           0       -5.645846   -0.032637   -1.184290
     11          6           0       -4.547693    0.537147   -0.415389
     12          6           0       -3.302422   -0.032622   -0.417003
     13          6           0       -2.454527    0.219266    0.747431
     14          6           0       -1.130122    0.443671    0.892737
     15          6           0        0.153776    0.429948    1.075297
     16          1           0        3.650415    3.347654   -0.063460
     17          1           0        4.251616    0.512238    0.884540
     18          1           0        5.129280    1.462448   -0.357457
     19          1           0        2.977678   -1.340617    1.567835
     20          1           0        4.175712    0.010418   -2.182085
     21          1           0        3.932279   -2.564474   -0.388663
     22          1           0       -7.720872   -0.485959   -1.147099
     23          1           0       -7.092967    0.539703    0.246191
     24          1           0       -5.391606   -0.650302   -2.040845
     25          1           0       -4.749964    1.411548    0.193765
     26          1           0       -3.112387   -0.915533   -1.024622
     27          1           0        0.734828    1.345534    1.215319
 ---------------------------------------------------------------------
 Rotational constants (GHZ):           0.9162077           0.1656265           0.1547707
 Standard basis: 6-31G(2df,p) (6D, 7F)
 There are   533 symmetry adapted cartesian basis functions of A   symmetry.
 There are   488 symmetry adapted basis functions of A   symmetry.
   488 basis functions,   792 primitive gaussians,   533 cartesian basis functions
    61 alpha electrons       61 beta electrons
       nuclear repulsion energy       994.2865746637 Hartrees.
 NAtoms=   27 NActive=   27 NUniq=   27 SFac= 1.00D+00 NAtFMM=   60 NAOKFM=F Big=F
 Integral buffers will be    131072 words long.
 Raffenetti 2 integral format.
 Two-electron integral symmetry is turned on.
 One-electron integrals computed using PRISM.
 PrsmSu:  requested number of processors reduced to:  12 ShMem   1 Linda.
 NBasis=   488 RedAO= T EigKep=  1.90D-04  NBF=   488
 NBsUse=   488 1.00D-06 EigRej= -1.00D+00 NBFU=   488
 Initial guess from the checkpoint file:  "SCC1Cd[SH]C2dC1CdCCdCCdCdCdC2.chk"
 B after Tr=    -0.000000    0.000000    0.000000
         Rot=    0.998553    0.053020   -0.000569    0.009018 Ang=   6.17 deg.
 ExpMin= 1.17D-01 ExpMax= 2.19D+04 ExpMxC= 3.30D+03 IAcc=2 IRadAn=         4 AccDes= 0.00D+00
 Harris functional with IExCor=  402 and IRadAn=       4 diagonalized for initial guess.
 HarFok:  IExCor=  402 AccDes= 0.00D+00 IRadAn=         4 IDoV= 1 UseB2=F ITyADJ=14
 ICtDFT=  3500011 ScaDFX=  1.000000  1.000000  1.000000  1.000000
 FoFCou: FMM=F IPFlag=           0 FMFlag=      100000 FMFlg1=           0
         NFxFlg=           0 DoJE=T BraDBF=F KetDBF=T FulRan=T
         wScrn=  0.000000 ICntrl=       500 IOpCl=  0 I1Cent=   200000004 NGrid=           0
         NMat0=    1 NMatS0=      1 NMatT0=    0 NMatD0=    1 NMtDS0=    0 NMtDT0=    0
 Petite list used in FoFCou.
 Requested convergence on RMS density matrix=1.00D-08 within 128 cycles.
 Requested convergence on MAX density matrix=1.00D-06.
 Requested convergence on             energy=1.00D-06.
 No special actions if energy rises.
 Integral accuracy reduced to 1.0D-05 until final iterations.
 Initial convergence to 1.0D-05 achieved.  Increase integral accuracy.
 EnCoef did     6 forward-backward iterations
slurmstepd: error: *** JOB 27447035 ON lewis4-r630-hpc4-node233 CANCELLED AT 2023-05-16T00:13:57 DUE TO TIME LIMIT ***
