### Starting Gaussian ###
 Entering Gaussian System, Link 0=g16
 Initial command:
 /cluster/software/gaussian/gaussian-16-A.03/avx2/g16/l1.exe "/local/scratch/cz9n3/Gau-9102.inp" -scrdir="/local/scratch/cz9n3/"
 Entering Link 1 = /cluster/software/gaussian/gaussian-16-A.03/avx2/g16/l1.exe PID=      9103.
  
 Copyright (c) 1988,1990,1992,1993,1995,1998,2003,2009,2016,
            Gaussian, Inc.  All Rights Reserved.
  
 This is part of the Gaussian(R) 16 program.  It is based on
 the Gaussian(R) 09 system (copyright 2009, Gaussian, Inc.),
 the Gaussian(R) 03 system (copyright 2003, Gaussian, Inc.),
 the Gaussian(R) 98 system (copyright 1998, Gaussian, Inc.),
 the Gaussian(R) 94 system (copyright 1995, Gaussian, Inc.),
 the Gaussian 92(TM) system (copyright 1992, Gaussian, Inc.),
 the Gaussian 90(TM) system (copyright 1990, Gaussian, Inc.),
 the Gaussian 88(TM) system (copyright 1988, Gaussian, Inc.),
 the Gaussian 86(TM) system (copyright 1986, Carnegie Mellon
 University), and the Gaussian 82(TM) system (copyright 1983,
 Carnegie Mellon University). Gaussian is a federally registered
 trademark of Gaussian, Inc.
  
 This software contains proprietary and confidential information,
 including trade secrets, belonging to Gaussian, Inc.
  
 This software is provided under written license and may be
 used, copied, transmitted, or stored only in accord with that
 written license.
  
 The following legend is applicable only to US Government
 contracts under FAR:
  
                    RESTRICTED RIGHTS LEGEND
  
 Use, reproduction and disclosure by the US Government is
 subject to restrictions as set forth in subparagraphs (a)
 and (c) of the Commercial Computer Software - Restricted
 Rights clause in FAR 52.227-19.
  
 Gaussian, Inc.
 340 Quinnipiac St., Bldg. 40, Wallingford CT 06492
  
  
 ---------------------------------------------------------------
 Warning -- This program may not be used in any manner that
 competes with the business of Gaussian, Inc. or will provide
 assistance to any competitor of Gaussian, Inc.  The licensee
 of this program is prohibited from giving any competitor of
 Gaussian, Inc. access to this program.  By using this program,
 the user acknowledges that Gaussian, Inc. is engaged in the
 business of creating and licensing software in the field of
 computational chemistry and represents and warrants to the
 licensee that it is not a competitor of Gaussian, Inc. and that
 it will not use this program in any manner prohibited above.
 ---------------------------------------------------------------
  

 Cite this work as:
 Gaussian 16, Revision A.03,
 M. J. Frisch, G. W. Trucks, H. B. Schlegel, G. E. Scuseria, 
 M. A. Robb, J. R. Cheeseman, G. Scalmani, V. Barone, 
 G. A. Petersson, H. Nakatsuji, X. Li, M. Caricato, A. V. Marenich, 
 J. Bloino, B. G. Janesko, R. Gomperts, B. Mennucci, H. P. Hratchian, 
 J. V. Ortiz, A. F. Izmaylov, J. L. Sonnenberg, D. Williams-Young, 
 F. Ding, F. Lipparini, F. Egidi, J. Goings, B. Peng, A. Petrone, 
 T. Henderson, D. Ranasinghe, V. G. Zakrzewski, J. Gao, N. Rega, 
 G. Zheng, W. Liang, M. Hada, M. Ehara, K. Toyota, R. Fukuda, 
 J. Hasegawa, M. Ishida, T. Nakajima, Y. Honda, O. Kitao, H. Nakai, 
 T. Vreven, K. Throssell, J. A. Montgomery, Jr., J. E. Peralta, 
 F. Ogliaro, M. J. Bearpark, J. J. Heyd, E. N. Brothers, K. N. Kudin, 
 V. N. Staroverov, T. A. Keith, R. Kobayashi, J. Normand, 
 K. Raghavachari, A. P. Rendell, J. C. Burant, S. S. Iyengar, 
 J. Tomasi, M. Cossi, J. M. Millam, M. Klene, C. Adamo, R. Cammi, 
 J. W. Ochterski, R. L. Martin, K. Morokuma, O. Farkas, 
 J. B. Foresman, and D. J. Fox, Gaussian, Inc., Wallingford CT, 2016.
 
 ******************************************
 Gaussian 16:  ES64L-G16RevA.03 25-Dec-2016
                15-May-2023 
 ******************************************
 %chk=SCN1CdCNdC2CdCCdCNdNNdCCdC21.chk
 %NProcShared=20
 Will use up to   20 processors via shared memory.
 -----------------------------
 # opt freq b3lyp/6-31g(2df,p)
 -----------------------------
 1/18=20,19=15,26=3,38=1/1,3;
 2/9=110,12=2,17=6,18=5,40=1/2;
 3/5=1,6=6,7=104,11=2,25=1,30=1,71=1,74=-5/1,2,3;
 4//1;
 5/5=2,38=5/2;
 6/7=2,8=2,9=2,10=2,28=1/1;
 7//1,2,3,16;
 1/18=20,19=15,26=3/3(2);
 2/9=110/2;
 99//99;
 2/9=110/2;
 3/5=1,6=6,7=104,11=2,25=1,30=1,71=1,74=-5/1,2,3;
 4/5=5,16=3,69=1/1;
 5/5=2,38=5/2;
 7//1,2,3,16;
 1/18=20,19=15,26=3/3(-5);
 2/9=110/2;
 6/7=2,8=2,9=2,10=2,19=2,28=1/1;
 99/9=1/99;
 -------------------
 Title Card Required
 -------------------
 Symbolic Z-matrix:
 Charge =  0 Multiplicity = 1
 S                     1.02219   0.10815   0.02555 
 C                     2.90824   0.39723   0.06884 
 N                     3.6083    0.1034    1.41114 
 C                     3.28206  -1.57297   1.18777 
 C                     3.4359   -2.55326   2.06258 
 N                     3.98739  -2.00473   3.16639 
 C                     4.32544  -0.71854   3.40664 
 C                     4.85847  -0.7961    4.6964 
 C                     5.23958   0.35797   5.05359 
 C                     5.7837    0.87838   6.14478 
 C                     6.07571   2.11234   6.28079 
 N                     6.60359   2.55201   7.39858 
 N                     6.91721   3.71686   7.36192 
 N                     6.4292    4.38381   6.1905 
 C                     5.70878   4.20194   4.73308 
 C                     4.95409   2.5761    3.55319 
 C                     4.39485   1.08683   2.80411 
 H                     0.64557   0.8258   -1.0591 
 H                     3.15302   1.3919   -0.09983 
 H                     3.24513  -0.2522   -0.82365 
 H                     2.76281  -2.05031   0.22086 
 H                     3.13697  -3.69036   1.87861 
 H                     4.98211  -1.59089   5.35097 
 H                     5.15864   1.12014   4.43038 
 H                     6.00765   0.30013   6.94134 
 H                     5.91356   2.65454   5.43226 
 H                     6.40604   5.1353    5.54662 
 H                     4.67262   3.04182   2.65866 
 
 Add virtual bond connecting atoms H24        and C16        Dist= 3.24D+00.
 Add virtual bond connecting atoms H24        and C17        Dist= 3.40D+00.

 GradGradGradGradGradGradGradGradGradGradGradGradGradGradGradGradGradGrad
 Berny optimization.
 Initialization pass.
                           ----------------------------
                           !    Initial Parameters    !
                           ! (Angstroms and Degrees)  !
 --------------------------                            --------------------------
 ! Name  Definition              Value          Derivative Info.                !
 --------------------------------------------------------------------------------
 ! R1    R(1,2)                  1.9086         estimate D2E/DX2                !
 ! R2    R(1,18)                 1.354          estimate D2E/DX2                !
 ! R3    R(2,3)                  1.5421         estimate D2E/DX2                !
 ! R4    R(2,19)                 1.0381         estimate D2E/DX2                !
 ! R5    R(2,20)                 1.154          estimate D2E/DX2                !
 ! R6    R(3,4)                  1.7224         estimate D2E/DX2                !
 ! R7    R(4,5)                  1.3228         estimate D2E/DX2                !
 ! R8    R(4,21)                 1.1968         estimate D2E/DX2                !
 ! R9    R(5,6)                  1.3503         estimate D2E/DX2                !
 ! R10   R(5,22)                 1.19           estimate D2E/DX2                !
 ! R11   R(6,7)                  1.3514         estimate D2E/DX2                !
 ! R12   R(7,8)                  1.3977         estimate D2E/DX2                !
 ! R13   R(8,9)                  1.2668         estimate D2E/DX2                !
 ! R14   R(8,23)                 1.037          estimate D2E/DX2                !
 ! R15   R(9,10)                 1.3257         estimate D2E/DX2                !
 ! R16   R(9,24)                 0.9878         estimate D2E/DX2                !
 ! R17   R(10,11)                1.2753         estimate D2E/DX2                !
 ! R18   R(10,25)                1.0095         estimate D2E/DX2                !
 ! R19   R(11,12)                1.312          estimate D2E/DX2                !
 ! R20   R(11,26)                1.0199         estimate D2E/DX2                !
 ! R21   R(12,13)                1.2069         estimate D2E/DX2                !
 ! R22   R(13,14)                1.4336         estimate D2E/DX2                !
 ! R23   R(14,15)                1.6359         estimate D2E/DX2                !
 ! R24   R(14,27)                0.9899         estimate D2E/DX2                !
 ! R25   R(16,17)                1.7584         estimate D2E/DX2                !
 ! R26   R(16,24)                1.7121         estimate D2E/DX2                !
 ! R27   R(16,28)                1.047          estimate D2E/DX2                !
 ! R28   R(17,24)                1.797          estimate D2E/DX2                !
 ! A1    A(2,1,18)             102.2842         estimate D2E/DX2                !
 ! A2    A(1,2,3)              116.0708         estimate D2E/DX2                !
 ! A3    A(1,2,19)             111.9898         estimate D2E/DX2                !
 ! A4    A(1,2,20)             100.7021         estimate D2E/DX2                !
 ! A5    A(3,2,19)             102.5293         estimate D2E/DX2                !
 ! A6    A(3,2,20)             115.6839         estimate D2E/DX2                !
 ! A7    A(19,2,20)            110.1635         estimate D2E/DX2                !
 ! A8    A(2,3,4)               89.231          estimate D2E/DX2                !
 ! A9    A(3,4,5)              127.8404         estimate D2E/DX2                !
 ! A10   A(3,4,21)             125.1095         estimate D2E/DX2                !
 ! A11   A(5,4,21)             106.808          estimate D2E/DX2                !
 ! A12   A(4,5,6)              106.6811         estimate D2E/DX2                !
 ! A13   A(4,5,22)             125.2141         estimate D2E/DX2                !
 ! A14   A(6,5,22)             128.1047         estimate D2E/DX2                !
 ! A15   A(5,6,7)              129.3531         estimate D2E/DX2                !
 ! A16   A(6,7,8)              101.9249         estimate D2E/DX2                !
 ! A17   A(7,8,9)              108.9273         estimate D2E/DX2                !
 ! A18   A(7,8,23)             132.1008         estimate D2E/DX2                !
 ! A19   A(9,8,23)             118.9716         estimate D2E/DX2                !
 ! A20   A(8,9,10)             135.4943         estimate D2E/DX2                !
 ! A21   A(8,9,24)             120.0242         estimate D2E/DX2                !
 ! A22   A(10,9,24)            104.479          estimate D2E/DX2                !
 ! A23   A(9,10,11)            124.1644         estimate D2E/DX2                !
 ! A24   A(9,10,25)            121.0426         estimate D2E/DX2                !
 ! A25   A(11,10,25)           114.7903         estimate D2E/DX2                !
 ! A26   A(10,11,12)           120.4791         estimate D2E/DX2                !
 ! A27   A(10,11,26)           112.9069         estimate D2E/DX2                !
 ! A28   A(12,11,26)           126.484          estimate D2E/DX2                !
 ! A29   A(11,12,13)           113.71           estimate D2E/DX2                !
 ! A30   A(12,13,14)           112.6677         estimate D2E/DX2                !
 ! A31   A(13,14,15)           145.7063         estimate D2E/DX2                !
 ! A32   A(13,14,27)           153.2097         estimate D2E/DX2                !
 ! A33   A(15,14,27)            59.6419         estimate D2E/DX2                !
 ! A34   A(17,16,28)            85.8292         estimate D2E/DX2                !
 ! A35   A(24,16,28)           148.0066         estimate D2E/DX2                !
 ! A36   A(9,24,17)            126.2606         estimate D2E/DX2                !
 ! A37   L(9,24,16,1,-1)       184.451          estimate D2E/DX2                !
 ! A38   L(9,24,16,1,-2)       172.3519         estimate D2E/DX2                !
 ! D1    D(18,1,2,3)           161.2308         estimate D2E/DX2                !
 ! D2    D(18,1,2,19)           43.9705         estimate D2E/DX2                !
 ! D3    D(18,1,2,20)          -73.0716         estimate D2E/DX2                !
 ! D4    D(1,2,3,4)             68.3311         estimate D2E/DX2                !
 ! D5    D(19,2,3,4)          -169.2737         estimate D2E/DX2                !
 ! D6    D(20,2,3,4)           -49.3597         estimate D2E/DX2                !
 ! D7    D(2,3,4,5)           -170.0745         estimate D2E/DX2                !
 ! D8    D(2,3,4,21)             3.5125         estimate D2E/DX2                !
 ! D9    D(3,4,5,6)             -3.7975         estimate D2E/DX2                !
 ! D10   D(3,4,5,22)           176.3259         estimate D2E/DX2                !
 ! D11   D(21,4,5,6)          -178.3203         estimate D2E/DX2                !
 ! D12   D(21,4,5,22)            1.803          estimate D2E/DX2                !
 ! D13   D(4,5,6,7)              0.7776         estimate D2E/DX2                !
 ! D14   D(22,5,6,7)          -179.3505         estimate D2E/DX2                !
 ! D15   D(5,6,7,8)           -179.1248         estimate D2E/DX2                !
 ! D16   D(6,7,8,9)            179.232          estimate D2E/DX2                !
 ! D17   D(6,7,8,23)            -0.5546         estimate D2E/DX2                !
 ! D18   D(7,8,9,10)           178.7026         estimate D2E/DX2                !
 ! D19   D(7,8,9,24)            -1.9821         estimate D2E/DX2                !
 ! D20   D(23,8,9,10)           -1.4784         estimate D2E/DX2                !
 ! D21   D(23,8,9,24)          177.8369         estimate D2E/DX2                !
 ! D22   D(8,9,10,11)         -179.1552         estimate D2E/DX2                !
 ! D23   D(8,9,10,25)            1.4781         estimate D2E/DX2                !
 ! D24   D(24,9,10,11)           1.457          estimate D2E/DX2                !
 ! D25   D(24,9,10,25)        -177.9096         estimate D2E/DX2                !
 ! D26   D(8,9,16,28)           -4.8043         estimate D2E/DX2                !
 ! D27   D(10,9,16,28)         177.5797         estimate D2E/DX2                !
 ! D28   D(8,9,24,17)            4.6045         estimate D2E/DX2                !
 ! D29   D(10,9,24,17)        -175.8912         estimate D2E/DX2                !
 ! D30   D(9,10,11,12)         179.4645         estimate D2E/DX2                !
 ! D31   D(9,10,11,26)          -4.4195         estimate D2E/DX2                !
 ! D32   D(25,10,11,12)         -1.1332         estimate D2E/DX2                !
 ! D33   D(25,10,11,26)        174.9828         estimate D2E/DX2                !
 ! D34   D(10,11,12,13)        175.0889         estimate D2E/DX2                !
 ! D35   D(26,11,12,13)         -0.4603         estimate D2E/DX2                !
 ! D36   D(11,12,13,14)          9.9447         estimate D2E/DX2                !
 ! D37   D(12,13,14,15)         -9.3067         estimate D2E/DX2                !
 ! D38   D(12,13,14,27)       -165.3517         estimate D2E/DX2                !
 ! D39   D(13,14,15,27)       -167.7555         estimate D2E/DX2                !
 ! D40   D(17,16,24,28)          6.5624         estimate D2E/DX2                !
 --------------------------------------------------------------------------------
 Trust Radius=3.00D-01 FncErr=1.00D-07 GrdErr=1.00D-06 EigMax=2.50D+02 EigMin=1.00D-04
 Number of steps in this run=    116 maximum allowed number of steps=    168.
 GradGradGradGradGradGradGradGradGradGradGradGradGradGradGradGradGradGrad

                          Input orientation:                          
 ---------------------------------------------------------------------
 Center     Atomic      Atomic             Coordinates (Angstroms)
 Number     Number       Type             X           Y           Z
 ---------------------------------------------------------------------
      1         16           0        1.022190    0.108150    0.025550
      2          6           0        2.908240    0.397230    0.068840
      3          7           0        3.608300    0.103400    1.411140
      4          6           0        3.282060   -1.572970    1.187770
      5          6           0        3.435900   -2.553260    2.062580
      6          7           0        3.987390   -2.004730    3.166390
      7          6           0        4.325440   -0.718540    3.406640
      8          6           0        4.858470   -0.796100    4.696400
      9          6           0        5.239580    0.357970    5.053590
     10          6           0        5.783700    0.878380    6.144780
     11          6           0        6.075710    2.112340    6.280790
     12          7           0        6.603590    2.552010    7.398580
     13          7           0        6.917210    3.716860    7.361920
     14          7           0        6.429200    4.383810    6.190500
     15          6           0        5.708780    4.201940    4.733080
     16          6           0        4.954090    2.576100    3.553190
     17          6           0        4.394850    1.086830    2.804110
     18          1           0        0.645570    0.825800   -1.059100
     19          1           0        3.153020    1.391900   -0.099830
     20          1           0        3.245130   -0.252200   -0.823650
     21          1           0        2.762810   -2.050310    0.220860
     22          1           0        3.136970   -3.690360    1.878610
     23          1           0        4.982110   -1.590890    5.350970
     24          1           0        5.158640    1.120140    4.430380
     25          1           0        6.007650    0.300130    6.941340
     26          1           0        5.913560    2.654540    5.432260
     27          1           0        6.406040    5.135300    5.546620
     28          1           0        4.672620    3.041820    2.658660
 ---------------------------------------------------------------------
                    Distance matrix (angstroms):
                    1          2          3          4          5
     1  S    0.000000
     2  C    1.908566   0.000000
     3  N    2.933913   1.542138   0.000000
     4  C    3.046955   2.296396   1.722366   0.000000
     5  C    4.130205   3.599835   2.740792   1.322848   0.000000
     6  N    4.808487   4.065562   2.769264   2.144492   1.350342
     7  C    4.798609   3.793983   2.274180   2.596551   2.442125
     8  C    6.111592   5.161564   3.628355   3.924166   3.471070
     9  C    6.567342   5.503128   3.999165   4.743941   4.546940
    10  C    7.791676   6.739200   5.266907   6.069536   5.826892
    11  C    8.287513   7.180724   5.816996   6.879305   6.821269
    12  N    9.564834   8.486682   7.128597   8.162241   8.035604
    13  N   10.079503   8.959955   7.708292   8.905995   8.917227
    14  N    9.247899   8.109544   7.008685   8.391366   8.609443
    15  C    7.802825   6.638823   5.678497   7.197762   7.611194
    16  C    5.830511   4.590607   3.537481   5.060205   5.553121
    17  C    4.478063   3.188614   1.877807   3.305358   3.836627
    18  H    1.354005   2.564293   3.924502   4.213502   5.380416
    19  H    2.490817   1.038140   2.037288   3.234968   4.507807
    20  H    2.406752   1.154033   2.291862   2.406576   3.696159
    21  H    2.779722   2.456565   2.601939   1.196825   2.024337
    22  H    4.725971   4.476156   3.851402   2.231961   1.190042
    23  H    6.850387   6.012857   4.503358   4.496968   3.759046
    24  H    6.126734   4.960840   3.543039   4.613991   4.697678
    25  H    8.527592   7.539697   6.031475   6.636333   6.209511
    26  H    7.722831   6.549326   5.290741   6.543113   6.679425
    27  H    9.205449   8.043009   7.088693   8.588347   8.948420
    28  H    5.372646   4.100495   3.365025   5.039193   5.761051
                    6          7          8          9         10
     6  N    0.000000
     7  C    1.351400   0.000000
     8  C    2.135532   1.397719   0.000000
     9  C    3.272897   2.169555   1.266770   0.000000
    10  C    4.517727   3.489138   2.399529   1.325741   0.000000
    11  C    5.568737   4.397507   3.528596   2.298466   1.275314
    12  N    6.746837   5.641104   4.642958   3.489028   2.246168
    13  N    7.676126   6.483385   5.631182   4.407377   3.289870
    14  N    7.478043   6.181396   5.615247   4.349155   3.564660
    15  C    6.628760   5.280549   5.069988   3.885741   3.611725
    16  C    4.697672   3.357280   3.561995   2.693103   3.207311
    17  C    3.139270   1.904526   2.709452   2.510969   3.623870
    18  H    6.085592   5.989095   7.314702   7.660860   8.848674
    19  H    4.785547   4.257212   5.540733   5.655129   6.795538
    20  H    4.420716   4.390888   5.776647   6.236352   7.502104
    21  H    3.190270   3.790068   5.098558   5.940495   7.266074
    22  H    2.285375   3.546696   4.390927   5.557917   6.788135
    23  H    2.435800   2.229939   1.037034   1.988160   2.714770
    24  H    3.568516   2.263407   1.957765   0.987849   1.840738
    25  H    4.862518   4.044950   2.749926   2.038842   1.009472
    26  H    5.527485   4.242986   3.682611   2.423195   1.918148
    27  H    7.905403   6.570834   6.188647   4.942326   4.343555
    28  H    5.118105   3.849716   4.349317   3.641454   4.250647
                   11         12         13         14         15
    11  C    0.000000
    12  N    1.312030   0.000000
    13  N    2.109846   1.206887   0.000000
    14  N    2.300583   2.201218   1.433597   0.000000
    15  C    2.626113   3.260037   2.933668   1.635896   0.000000
    16  C    2.985449   4.184311   4.434140   3.521245   2.145939
    17  C    3.995531   5.304191   5.835494   5.145512   3.892460
    18  H    9.220390  10.488573  10.890605   9.933102   8.401415
    19  H    7.055031   8.335373   8.674807   7.697606   6.146971
    20  H    8.004767   9.313856   9.810258   8.990506   7.535661
    21  H    8.063852   9.351610  10.075417   9.511936   8.254060
    22  H    7.854089   9.025226   9.961115   9.727456   8.777847
    23  H    3.971705   4.897502   5.996728   6.204508   5.870836
    24  H    2.291178   3.598381   4.292954   3.919679   3.145119
    25  H    1.930042   2.373853   3.560650   4.173477   4.493312
    26  H    1.019940   2.086401   2.420625   1.957342   1.710332
    27  H    3.128324   3.184677   2.359784   0.989876   1.420978
    28  H    3.994048   5.141537   5.254952   4.166582   2.592822
                   16         17         18         19         20
    16  C    0.000000
    17  C    1.758350   0.000000
    18  H    6.549818   5.389771   0.000000
    19  H    4.241549   3.173023   2.743715   0.000000
    20  H    5.484209   4.034291   2.824045   1.798740   0.000000
    21  H    6.108175   4.379313   3.793812   3.479068   2.134674
    22  H    6.736072   5.025968   5.935732   5.453792   4.374340
    23  H    4.538348   3.741865   8.107710   6.477177   6.552490
    24  H    1.712052   1.797008   7.112582   4.961771   5.757575
    25  H    4.215399   4.509622   9.645479   7.675868   8.260245
    26  H    2.111312   3.416338   8.557673   6.310219   7.396355
    27  H    3.554072   5.287377   9.766798   7.515157   8.921707
    28  H    1.047046   1.979974   5.911820   3.555374   5.001478
                   21         22         23         24         25
    21  H    0.000000
    22  H    2.361757   0.000000
    23  H    5.608421   4.457533   0.000000
    24  H    5.788939   5.808579   2.868507   0.000000
    25  H    7.824219   7.056632   2.675251   2.774555   0.000000
    26  H    7.695553   7.784320   4.347170   1.981931   2.798110
    27  H    9.657631  10.101158   6.878044   4.350116   5.048052
    28  H    5.959868   6.949025   5.367152   2.658583   5.257425
                   26         27         28
    26  H    0.000000
    27  H    2.531755   0.000000
    28  H    3.063132   3.965818   0.000000
 Stoichiometry    C11H11N5S
 Framework group  C1[X(C11H11N5S)]
 Deg. of freedom    78
 Full point group                 C1      NOp   1
 Largest Abelian subgroup         C1      NOp   1
 Largest concise Abelian subgroup C1      NOp   1
                         Standard orientation:                         
 ---------------------------------------------------------------------
 Center     Atomic      Atomic             Coordinates (Angstroms)
 Number     Number       Type             X           Y           Z
 ---------------------------------------------------------------------
      1         16           0        4.571930   -1.523304    0.862683
      2          6           0        3.451471   -1.359505   -0.673666
      3          7           0        2.255603   -0.394938   -0.540624
      4          6           0        3.358188    0.926942   -0.481585
      5          6           0        3.096535    2.189335   -0.185225
      6          7           0        1.760219    2.277989   -0.012532
      7          6           0        0.819689    1.310966   -0.093480
      8          6           0       -0.353279    2.026789    0.162177
      9          6           0       -1.339681    1.234264    0.101991
     10          6           0       -2.650082    1.341017    0.272408
     11          6           0       -3.467276    0.367288    0.170081
     12          7           0       -4.751499    0.553051    0.364209
     13          7           0       -5.422014   -0.426345    0.145645
     14          7           0       -4.630379   -1.605298   -0.050786
     15          6           0       -3.120556   -2.200779   -0.255700
     16          6           0       -1.128050   -1.410645   -0.358956
     17          6           0        0.388751   -0.521514   -0.382500
     18          1           0        5.220551   -2.687505    0.623396
     19          1           0        2.990565   -2.257553   -0.916175
     20          1           0        4.230605   -1.082178   -1.478547
     21          1           0        4.545623    0.838785   -0.602478
     22          1           0        3.907380    3.056014   -0.098060
     23          1           0       -0.525052    3.027436    0.373457
     24          1           0       -1.197288    0.284560   -0.129596
     25          1           0       -3.076094    2.230114    0.489325
     26          1           0       -3.018078   -0.498239   -0.128851
     27          1           0       -4.497273   -2.541792   -0.342532
     28          1           0       -0.549583   -2.252927   -0.587519
 ---------------------------------------------------------------------
 Rotational constants (GHZ):           0.8747264           0.1818776           0.1551148
 Standard basis: 6-31G(2df,p) (6D, 7F)
 There are   586 symmetry adapted cartesian basis functions of A   symmetry.
 There are   535 symmetry adapted basis functions of A   symmetry.
   535 basis functions,   849 primitive gaussians,   586 cartesian basis functions
    64 alpha electrons       64 beta electrons
       nuclear repulsion energy      1151.9163839897 Hartrees.
 NAtoms=   28 NActive=   28 NUniq=   28 SFac= 1.00D+00 NAtFMM=   60 NAOKFM=F Big=F
 Integral buffers will be    131072 words long.
 Raffenetti 2 integral format.
 Two-electron integral symmetry is turned on.
 One-electron integrals computed using PRISM.
 PrsmSu:  requested number of processors reduced to:  12 ShMem   1 Linda.
 NBasis=   535 RedAO= T EigKep=  1.10D-04  NBF=   535
 NBsUse=   535 1.00D-06 EigRej= -1.00D+00 NBFU=   535
 ExpMin= 1.17D-01 ExpMax= 2.19D+04 ExpMxC= 3.30D+03 IAcc=3 IRadAn=         5 AccDes= 0.00D+00
 Harris functional with IExCor=  402 and IRadAn=       5 diagonalized for initial guess.
 HarFok:  IExCor=  402 AccDes= 0.00D+00 IRadAn=         5 IDoV= 1 UseB2=F ITyADJ=14
 ICtDFT=  3500011 ScaDFX=  1.000000  1.000000  1.000000  1.000000
 FoFCou: FMM=F IPFlag=           0 FMFlag=      100000 FMFlg1=           0
         NFxFlg=           0 DoJE=T BraDBF=F KetDBF=T FulRan=T
         wScrn=  0.000000 ICntrl=       500 IOpCl=  0 I1Cent=   200000004 NGrid=           0
         NMat0=    1 NMatS0=      1 NMatT0=    0 NMatD0=    1 NMtDS0=    0 NMtDT0=    0
 Petite list used in FoFCou.
 Requested convergence on RMS density matrix=1.00D-08 within 128 cycles.
 Requested convergence on MAX density matrix=1.00D-06.
 Requested convergence on             energy=1.00D-06.
 No special actions if energy rises.
 Integral accuracy reduced to 1.0D-05 until final iterations.
 EnCoef did     5 forward-backward iterations
 EnCoef did     2 forward-backward iterations
 Problem detected with inexpensive integrals.
 Switching to full accuracy and repeating last cycle.
 EnCoef did     2 forward-backward iterations
 EnCoef did   100 forward-backward iterations
 EnCoef did     2 forward-backward iterations
 EnCoef did     3 forward-backward iterations
 EnCoef did     2 forward-backward iterations
 EnCoef did     3 forward-backward iterations
 EnCoef did     6 forward-backward iterations
 Restarting incremental Fock formation.
 SCF Done:  E(RB3LYP) =  -1096.72379793     A.U. after   30 cycles
            NFock= 30  Conv=0.41D-08     -V/T= 2.0051

 **********************************************************************

            Population analysis using the SCF density.

 **********************************************************************

 Orbital symmetries:
       Occupied  (A) (A) (A) (A) (A) (A) (A) (A) (A) (A) (A) (A)
                 (A) (A) (A) (A) (A) (A) (A) (A) (A) (A) (A) (A)
                 (A) (A) (A) (A) (A) (A) (A) (A) (A) (A) (A) (A)
                 (A) (A) (A) (A) (A) (A) (A) (A) (A) (A) (A) (A)
                 (A) (A) (A) (A) (A) (A) (A) (A) (A) (A) (A) (A)
                 (A) (A) (A) (A)
       Virtual   (A) (A) (A) (A) (A) (A) (A) (A) (A) (A) (A) (A)
                 (A) (A) (A) (A) (A) (A) (A) (A) (A) (A) (A) (A)
                 (A) (A) (A) (A) (A) (A) (A) (A) (A) (A) (A) (A)
                 (A) (A) (A) (A) (A) (A) (A) (A) (A) (A) (A) (A)
                 (A) (A) (A) (A) (A) (A) (A) (A) (A) (A) (A) (A)
                 (A) (A) (A) (A) (A) (A) (A) (A) (A) (A) (A) (A)
                 (A) (A) (A) (A) (A) (A) (A) (A) (A) (A) (A) (A)
                 (A) (A) (A) (A) (A) (A) (A) (A) (A) (A) (A) (A)
                 (A) (A) (A) (A) (A) (A) (A) (A) (A) (A) (A) (A)
                 (A) (A) (A) (A) (A) (A) (A) (A) (A) (A) (A) (A)
                 (A) (A) (A) (A) (A) (A) (A) (A) (A) (A) (A) (A)
                 (A) (A) (A) (A) (A) (A) (A) (A) (A) (A) (A) (A)
                 (A) (A) (A) (A) (A) (A) (A) (A) (A) (A) (A) (A)
                 (A) (A) (A) (A) (A) (A) (A) (A) (A) (A) (A) (A)
                 (A) (A) (A) (A) (A) (A) (A) (A) (A) (A) (A) (A)
                 (A) (A) (A) (A) (A) (A) (A) (A) (A) (A) (A) (A)
                 (A) (A) (A) (A) (A) (A) (A) (A) (A) (A) (A) (A)
                 (A) (A) (A) (A) (A) (A) (A) (A) (A) (A) (A) (A)
                 (A) (A) (A) (A) (A) (A) (A) (A) (A) (A) (A) (A)
                 (A) (A) (A) (A) (A) (A) (A) (A) (A) (A) (A) (A)
                 (A) (A) (A) (A) (A) (A) (A) (A) (A) (A) (A) (A)
                 (A) (A) (A) (A) (A) (A) (A) (A) (A) (A) (A) (A)
                 (A) (A) (A) (A) (A) (A) (A) (A) (A) (A) (A) (A)
                 (A) (A) (A) (A) (A) (A) (A) (A) (A) (A) (A) (A)
                 (A) (A) (A) (A) (A) (A) (A) (A) (A) (A) (A) (A)
                 (A) (A) (A) (A) (A) (A) (A) (A) (A) (A) (A) (A)
                 (A) (A) (A) (A) (A) (A) (A) (A) (A) (A) (A) (A)
                 (A) (A) (A) (A) (A) (A) (A) (A) (A) (A) (A) (A)
                 (A) (A) (A) (A) (A) (A) (A) (A) (A) (A) (A) (A)
                 (A) (A) (A) (A) (A) (A) (A) (A) (A) (A) (A) (A)
                 (A) (A) (A) (A) (A) (A) (A) (A) (A) (A) (A) (A)
                 (A) (A) (A) (A) (A) (A) (A) (A) (A) (A) (A) (A)
                 (A) (A) (A) (A) (A) (A) (A) (A) (A) (A) (A) (A)
                 (A) (A) (A) (A) (A) (A) (A) (A) (A) (A) (A) (A)
                 (A) (A) (A) (A) (A) (A) (A) (A) (A) (A) (A) (A)
                 (A) (A) (A) (A) (A) (A) (A) (A) (A) (A) (A) (A)
                 (A) (A) (A) (A) (A) (A) (A) (A) (A) (A) (A) (A)
                 (A) (A) (A) (A) (A) (A) (A) (A) (A) (A) (A) (A)
                 (A) (A) (A) (A) (A) (A) (A) (A) (A) (A) (A) (A)
                 (A) (A) (A)
 The electronic state is 1-A.
 Alpha  occ. eigenvalues --  -88.86641 -14.44434 -14.43147 -14.40713 -14.38753
 Alpha  occ. eigenvalues --  -14.34716 -10.35672 -10.32847 -10.26055 -10.25292
 Alpha  occ. eigenvalues --  -10.25097 -10.24810 -10.22784 -10.19888 -10.19516
 Alpha  occ. eigenvalues --  -10.19142 -10.15620  -7.93225  -5.89674  -5.89338
 Alpha  occ. eigenvalues --   -5.88731  -1.12739  -0.94943  -0.94090  -0.88563
 Alpha  occ. eigenvalues --   -0.85350  -0.83459  -0.76962  -0.73662  -0.72570
 Alpha  occ. eigenvalues --   -0.70462  -0.68254  -0.63692  -0.62800  -0.61267
 Alpha  occ. eigenvalues --   -0.59302  -0.56170  -0.52973  -0.51180  -0.50008
 Alpha  occ. eigenvalues --   -0.48850  -0.48084  -0.45419  -0.43798  -0.42984
 Alpha  occ. eigenvalues --   -0.41887  -0.40639  -0.40131  -0.38893  -0.37312
 Alpha  occ. eigenvalues --   -0.37126  -0.36421  -0.34561  -0.34002  -0.33334
 Alpha  occ. eigenvalues --   -0.32443  -0.30344  -0.29360  -0.26951  -0.25688
 Alpha  occ. eigenvalues --   -0.24311  -0.23750  -0.22995  -0.20282
 Alpha virt. eigenvalues --   -0.14814  -0.14488  -0.09304  -0.06390  -0.05087
 Alpha virt. eigenvalues --   -0.03143  -0.01001   0.01738   0.02475   0.03236
 Alpha virt. eigenvalues --    0.05788   0.06410   0.07341   0.08290   0.10351
 Alpha virt. eigenvalues --    0.11405   0.11950   0.13157   0.14302   0.15724
 Alpha virt. eigenvalues --    0.16334   0.18149   0.18460   0.19245   0.22711
 Alpha virt. eigenvalues --    0.25339   0.26683   0.27035   0.27842   0.29867
 Alpha virt. eigenvalues --    0.32250   0.34370   0.35195   0.35640   0.36734
 Alpha virt. eigenvalues --    0.37944   0.38140   0.40077   0.40363   0.41140
 Alpha virt. eigenvalues --    0.41955   0.42275   0.43759   0.44917   0.45250
 Alpha virt. eigenvalues --    0.45838   0.47429   0.47828   0.48241   0.48641
 Alpha virt. eigenvalues --    0.49254   0.50561   0.51219   0.51518   0.51979
 Alpha virt. eigenvalues --    0.52517   0.53498   0.54274   0.55271   0.55470
 Alpha virt. eigenvalues --    0.55741   0.56845   0.57272   0.58146   0.58568
 Alpha virt. eigenvalues --    0.59521   0.60121   0.60363   0.61509   0.62378
 Alpha virt. eigenvalues --    0.63143   0.64564   0.64714   0.65979   0.66405
 Alpha virt. eigenvalues --    0.67852   0.68562   0.68864   0.71329   0.72387
 Alpha virt. eigenvalues --    0.72881   0.73136   0.73749   0.74424   0.74879
 Alpha virt. eigenvalues --    0.75476   0.76320   0.76618   0.77840   0.78523
 Alpha virt. eigenvalues --    0.79295   0.80183   0.80695   0.81877   0.82880
 Alpha virt. eigenvalues --    0.83623   0.84188   0.84718   0.85700   0.86408
 Alpha virt. eigenvalues --    0.87795   0.88558   0.88815   0.90160   0.90581
 Alpha virt. eigenvalues --    0.91986   0.92526   0.93743   0.94111   0.95104
 Alpha virt. eigenvalues --    0.95859   0.97446   0.97593   0.99010   1.00386
 Alpha virt. eigenvalues --    1.00676   1.00945   1.01455   1.02577   1.04736
 Alpha virt. eigenvalues --    1.05962   1.07055   1.08536   1.09421   1.11276
 Alpha virt. eigenvalues --    1.13147   1.14491   1.16184   1.17640   1.18097
 Alpha virt. eigenvalues --    1.20682   1.20787   1.22374   1.23042   1.23748
 Alpha virt. eigenvalues --    1.24583   1.25155   1.26082   1.27405   1.27865
 Alpha virt. eigenvalues --    1.30449   1.31822   1.32636   1.33818   1.36163
 Alpha virt. eigenvalues --    1.37075   1.38043   1.38381   1.39735   1.40765
 Alpha virt. eigenvalues --    1.41978   1.44008   1.44751   1.46644   1.47480
 Alpha virt. eigenvalues --    1.48103   1.49980   1.50166   1.50706   1.51781
 Alpha virt. eigenvalues --    1.53189   1.53357   1.54546   1.55686   1.56207
 Alpha virt. eigenvalues --    1.57127   1.57538   1.58730   1.60142   1.61165
 Alpha virt. eigenvalues --    1.61373   1.61841   1.62968   1.63846   1.64507
 Alpha virt. eigenvalues --    1.67705   1.70121   1.70529   1.71810   1.72193
 Alpha virt. eigenvalues --    1.73231   1.73713   1.76427   1.78151   1.79032
 Alpha virt. eigenvalues --    1.80503   1.84555   1.86939   1.88249   1.89716
 Alpha virt. eigenvalues --    1.90826   1.93189   1.94612   1.97204   1.98997
 Alpha virt. eigenvalues --    2.00083   2.02637   2.04038   2.06862   2.08490
 Alpha virt. eigenvalues --    2.09884   2.11953   2.12338   2.12768   2.15664
 Alpha virt. eigenvalues --    2.15930   2.18846   2.21820   2.22993   2.23339
 Alpha virt. eigenvalues --    2.25365   2.26970   2.29245   2.30052   2.30403
 Alpha virt. eigenvalues --    2.32028   2.32824   2.34747   2.35787   2.38500
 Alpha virt. eigenvalues --    2.40677   2.41578   2.42208   2.43529   2.47646
 Alpha virt. eigenvalues --    2.49158   2.51548   2.53560   2.56346   2.57081
 Alpha virt. eigenvalues --    2.58752   2.61390   2.62672   2.63026   2.64676
 Alpha virt. eigenvalues --    2.65974   2.68740   2.70823   2.72176   2.73373
 Alpha virt. eigenvalues --    2.74700   2.75882   2.76039   2.78049   2.79849
 Alpha virt. eigenvalues --    2.81036   2.84200   2.85346   2.86115   2.86154
 Alpha virt. eigenvalues --    2.88310   2.89569   2.90091   2.91817   2.92424
 Alpha virt. eigenvalues --    2.93627   2.96228   2.97176   2.99369   2.99934
 Alpha virt. eigenvalues --    3.01543   3.01998   3.02484   3.03594   3.04162
 Alpha virt. eigenvalues --    3.05517   3.06531   3.07761   3.09442   3.10831
 Alpha virt. eigenvalues --    3.12050   3.12214   3.12710   3.14372   3.14931
 Alpha virt. eigenvalues --    3.16877   3.19464   3.20917   3.21747   3.23986
 Alpha virt. eigenvalues --    3.24366   3.25984   3.27599   3.28154   3.29770
 Alpha virt. eigenvalues --    3.30445   3.31211   3.32353   3.33109   3.33770
 Alpha virt. eigenvalues --    3.36278   3.36453   3.37292   3.38159   3.40457
 Alpha virt. eigenvalues --    3.40961   3.43600   3.44163   3.46003   3.47416
 Alpha virt. eigenvalues --    3.48270   3.49789   3.50126   3.51558   3.52658
 Alpha virt. eigenvalues --    3.53862   3.54871   3.56644   3.57294   3.57602
 Alpha virt. eigenvalues --    3.59130   3.60664   3.61702   3.63141   3.64969
 Alpha virt. eigenvalues --    3.65975   3.69318   3.69698   3.71427   3.72584
 Alpha virt. eigenvalues --    3.73846   3.75050   3.77884   3.78360   3.81446
 Alpha virt. eigenvalues --    3.82391   3.84785   3.87612   3.90086   3.90963
 Alpha virt. eigenvalues --    3.92677   3.93252   3.94690   3.95851   3.98038
 Alpha virt. eigenvalues --    3.99000   3.99654   4.02095   4.02437   4.03989
 Alpha virt. eigenvalues --    4.06652   4.08172   4.09019   4.10040   4.11694
 Alpha virt. eigenvalues --    4.13346   4.13803   4.16145   4.18461   4.19887
 Alpha virt. eigenvalues --    4.20550   4.21790   4.23078   4.23975   4.24062
 Alpha virt. eigenvalues --    4.25350   4.27026   4.28516   4.29471   4.29966
 Alpha virt. eigenvalues --    4.31368   4.32050   4.33250   4.34729   4.35597
 Alpha virt. eigenvalues --    4.35860   4.37878   4.38880   4.39659   4.40969
 Alpha virt. eigenvalues --    4.41975   4.43040   4.43437   4.45579   4.46643
 Alpha virt. eigenvalues --    4.48621   4.50078   4.50949   4.51613   4.52109
 Alpha virt. eigenvalues --    4.54217   4.55569   4.56996   4.58599   4.59284
 Alpha virt. eigenvalues --    4.60672   4.61017   4.62820   4.63570   4.64510
 Alpha virt. eigenvalues --    4.64842   4.66167   4.67525   4.68227   4.68837
 Alpha virt. eigenvalues --    4.70344   4.71334   4.73497   4.74208   4.75945
 Alpha virt. eigenvalues --    4.76240   4.78566   4.80432   4.81346   4.82610
 Alpha virt. eigenvalues --    4.86006   4.86973   4.88047   4.89257   4.92909
 Alpha virt. eigenvalues --    4.94836   4.96974   4.98001   4.99199   5.03358
 Alpha virt. eigenvalues --    5.03609   5.06669   5.08404   5.09958   5.11506
 Alpha virt. eigenvalues --    5.12134   5.16518   5.17335   5.20485   5.21781
 Alpha virt. eigenvalues --    5.22956   5.26665   5.27560   5.29530   5.33051
 Alpha virt. eigenvalues --    5.34888   5.38577   5.40035   5.43298   5.44725
 Alpha virt. eigenvalues --    5.54671   5.56262   5.59868   5.65651   5.69042
 Alpha virt. eigenvalues --    5.70486   5.73490   5.78778   5.90240   5.93465
 Alpha virt. eigenvalues --    5.99197   6.10526   6.32006   6.48219   7.05604
 Alpha virt. eigenvalues --    7.41980   9.25929   9.95564  10.11228  10.26049
 Alpha virt. eigenvalues --   10.37461  10.60310  10.65022  11.05784  11.20868
 Alpha virt. eigenvalues --   11.25080  11.30518  11.36104  11.39432  11.49143
 Alpha virt. eigenvalues --   11.50553  11.77259  12.33741  14.38578  18.25823
 Alpha virt. eigenvalues --   21.82487
          Condensed to atoms (all electrons):
               1          2          3          4          5          6
     1  S   15.893522   0.250540  -0.027854  -0.008194   0.000598  -0.000067
     2  C    0.250540   4.934504   0.309690  -0.064385   0.002596   0.001192
     3  N   -0.027854   0.309690   6.668997   0.308702  -0.011676  -0.019840
     4  C   -0.008194  -0.064385   0.308702   4.944541   0.567122  -0.047549
     5  C    0.000598   0.002596  -0.011676   0.567122   4.874248   0.467083
     6  N   -0.000067   0.001192  -0.019840  -0.047549   0.467083   6.380132
     7  C   -0.000378   0.002564  -0.014060  -0.012906  -0.106431   0.525410
     8  C    0.000011  -0.000135   0.001844   0.000404   0.007697  -0.003624
     9  C    0.000001  -0.000008  -0.000129   0.000494  -0.001006  -0.000039
    10  C   -0.000000   0.000000  -0.000051   0.000003   0.000004  -0.000357
    11  C   -0.000000   0.000000   0.000000  -0.000000  -0.000000   0.000002
    12  N    0.000000  -0.000000   0.000000  -0.000000  -0.000000  -0.000000
    13  N   -0.000000   0.000000  -0.000000   0.000000  -0.000000   0.000000
    14  N   -0.000000   0.000000   0.000000  -0.000000  -0.000000   0.000000
    15  C    0.000000   0.000000  -0.000001  -0.000000   0.000000  -0.000000
    16  C    0.000013  -0.000058  -0.007503   0.000150   0.000002   0.000199
    17  C    0.001227  -0.014652   0.168158  -0.005587  -0.000526  -0.033089
    18  H    0.271287  -0.002599   0.000931   0.000227  -0.000002   0.000000
    19  H   -0.033871   0.357309  -0.023857   0.004485  -0.000300  -0.000008
    20  H   -0.076754   0.371946  -0.022311  -0.007270   0.000899   0.000066
    21  H    0.002164  -0.009075  -0.020996   0.321564  -0.044682   0.005630
    22  H    0.000080  -0.000115   0.001138  -0.043023   0.366165  -0.023344
    23  H   -0.000000   0.000001  -0.000059  -0.000048  -0.000005  -0.007249
    24  H   -0.000002  -0.000045   0.000607  -0.000033  -0.000075  -0.000094
    25  H    0.000000  -0.000000   0.000000   0.000000  -0.000000  -0.000011
    26  H   -0.000000  -0.000000  -0.000004   0.000000   0.000000  -0.000001
    27  H   -0.000000   0.000000  -0.000000   0.000000   0.000000  -0.000000
    28  H   -0.000006   0.000171   0.000521  -0.000013  -0.000001  -0.000010
               7          8          9         10         11         12
     1  S   -0.000378   0.000011   0.000001  -0.000000  -0.000000   0.000000
     2  C    0.002564  -0.000135  -0.000008   0.000000   0.000000  -0.000000
     3  N   -0.014060   0.001844  -0.000129  -0.000051   0.000000   0.000000
     4  C   -0.012906   0.000404   0.000494   0.000003  -0.000000  -0.000000
     5  C   -0.106431   0.007697  -0.001006   0.000004  -0.000000  -0.000000
     6  N    0.525410  -0.003624  -0.000039  -0.000357   0.000002  -0.000000
     7  C    4.853560   0.391586  -0.032023   0.005047   0.000262   0.000002
     8  C    0.391586   5.227684   0.424480  -0.046285   0.010985  -0.000298
     9  C   -0.032023   0.424480   4.733573   0.497825   0.066935   0.001663
    10  C    0.005047  -0.046285   0.497825   4.852568   0.509615   0.011474
    11  C    0.000262   0.010985   0.066935   0.509615   4.885842   0.460535
    12  N    0.000002  -0.000298   0.001663   0.011474   0.460535   6.267678
    13  N   -0.000000   0.000007   0.000577  -0.001387  -0.161255   0.586307
    14  N    0.000000  -0.000001   0.001019  -0.001593  -0.026324  -0.114881
    15  C    0.000009   0.000003  -0.001185  -0.001275  -0.013752   0.004017
    16  C   -0.007682   0.006136  -0.031909  -0.015078  -0.018196   0.002245
    17  C    0.254639  -0.065223   0.010285  -0.000692   0.001862  -0.000010
    18  H    0.000000  -0.000000  -0.000000   0.000000  -0.000000  -0.000000
    19  H    0.000012   0.000005   0.000001   0.000000  -0.000000  -0.000000
    20  H   -0.000160   0.000004  -0.000000  -0.000000  -0.000000   0.000000
    21  H   -0.000776  -0.000010  -0.000008  -0.000000   0.000000  -0.000000
    22  H    0.002427  -0.000302  -0.000012  -0.000000  -0.000000  -0.000000
    23  H   -0.021538   0.346409  -0.032933  -0.014657  -0.000388  -0.000008
    24  H   -0.057243  -0.088592   0.301723  -0.004741  -0.061319  -0.000597
    25  H   -0.000090  -0.016959  -0.070748   0.341182  -0.043483  -0.013454
    26  H   -0.000127   0.000040  -0.055203  -0.016706   0.306642  -0.073807
    27  H   -0.000000  -0.000000  -0.000059  -0.000207   0.003867   0.003984
    28  H    0.000982  -0.000304   0.004729   0.000352   0.001082  -0.000030
              13         14         15         16         17         18
     1  S   -0.000000  -0.000000   0.000000   0.000013   0.001227   0.271287
     2  C    0.000000   0.000000   0.000000  -0.000058  -0.014652  -0.002599
     3  N   -0.000000   0.000000  -0.000001  -0.007503   0.168158   0.000931
     4  C    0.000000  -0.000000  -0.000000   0.000150  -0.005587   0.000227
     5  C   -0.000000  -0.000000   0.000000   0.000002  -0.000526  -0.000002
     6  N    0.000000   0.000000  -0.000000   0.000199  -0.033089   0.000000
     7  C   -0.000000   0.000000   0.000009  -0.007682   0.254639   0.000000
     8  C    0.000007  -0.000001   0.000003   0.006136  -0.065223  -0.000000
     9  C    0.000577   0.001019  -0.001185  -0.031909   0.010285  -0.000000
    10  C   -0.001387  -0.001593  -0.001275  -0.015078  -0.000692   0.000000
    11  C   -0.161255  -0.026324  -0.013752  -0.018196   0.001862  -0.000000
    12  N    0.586307  -0.114881   0.004017   0.002245  -0.000010  -0.000000
    13  N    6.388759   0.280804  -0.015343  -0.000163   0.000003   0.000000
    14  N    0.280804   6.616201   0.244423   0.001146  -0.000010   0.000000
    15  C   -0.015343   0.244423   5.748076   0.132112  -0.001862  -0.000000
    16  C   -0.000163   0.001146   0.132112   5.668126   0.316306  -0.000000
    17  C    0.000003  -0.000010  -0.001862   0.316306   5.447734  -0.000005
    18  H    0.000000   0.000000  -0.000000  -0.000000  -0.000005   0.577495
    19  H    0.000000  -0.000000  -0.000000   0.000144   0.000182  -0.001762
    20  H   -0.000000  -0.000000   0.000000  -0.000001   0.000765   0.001528
    21  H   -0.000000   0.000000  -0.000000  -0.000000  -0.000064   0.000118
    22  H    0.000000  -0.000000  -0.000000   0.000000  -0.000056  -0.000000
    23  H   -0.000000   0.000000  -0.000002  -0.000344   0.002734   0.000000
    24  H   -0.000234  -0.000394  -0.001350  -0.030957  -0.045107   0.000000
    25  H   -0.000708  -0.000067  -0.000346  -0.001101  -0.000120  -0.000000
    26  H   -0.017239  -0.027805  -0.038680  -0.011056  -0.000280   0.000000
    27  H   -0.002738   0.259230   0.007520  -0.001409   0.000001   0.000000
    28  H    0.000001   0.000094  -0.009987   0.281984  -0.033573  -0.000000
              19         20         21         22         23         24
     1  S   -0.033871  -0.076754   0.002164   0.000080  -0.000000  -0.000002
     2  C    0.357309   0.371946  -0.009075  -0.000115   0.000001  -0.000045
     3  N   -0.023857  -0.022311  -0.020996   0.001138  -0.000059   0.000607
     4  C    0.004485  -0.007270   0.321564  -0.043023  -0.000048  -0.000033
     5  C   -0.000300   0.000899  -0.044682   0.366165  -0.000005  -0.000075
     6  N   -0.000008   0.000066   0.005630  -0.023344  -0.007249  -0.000094
     7  C    0.000012  -0.000160  -0.000776   0.002427  -0.021538  -0.057243
     8  C    0.000005   0.000004  -0.000010  -0.000302   0.346409  -0.088592
     9  C    0.000001  -0.000000  -0.000008  -0.000012  -0.032933   0.301723
    10  C    0.000000  -0.000000  -0.000000  -0.000000  -0.014657  -0.004741
    11  C   -0.000000  -0.000000   0.000000  -0.000000  -0.000388  -0.061319
    12  N   -0.000000   0.000000  -0.000000  -0.000000  -0.000008  -0.000597
    13  N    0.000000  -0.000000  -0.000000   0.000000  -0.000000  -0.000234
    14  N   -0.000000  -0.000000   0.000000  -0.000000   0.000000  -0.000394
    15  C   -0.000000   0.000000  -0.000000  -0.000000  -0.000002  -0.001350
    16  C    0.000144  -0.000001  -0.000000   0.000000  -0.000344  -0.030957
    17  C    0.000182   0.000765  -0.000064  -0.000056   0.002734  -0.045107
    18  H   -0.001762   0.001528   0.000118  -0.000000   0.000000   0.000000
    19  H    0.606219  -0.035096   0.001027   0.000003  -0.000000  -0.000003
    20  H   -0.035096   0.622807  -0.000870  -0.000012  -0.000000   0.000001
    21  H    0.001027  -0.000870   0.609809   0.001999  -0.000000  -0.000000
    22  H    0.000003  -0.000012   0.001999   0.547219  -0.000019  -0.000000
    23  H   -0.000000  -0.000000  -0.000000  -0.000019   0.591942   0.011080
    24  H   -0.000003   0.000001  -0.000000  -0.000000   0.011080   0.794041
    25  H    0.000000   0.000000   0.000000   0.000000   0.005033   0.013399
    26  H    0.000000   0.000000  -0.000000   0.000000  -0.000033   0.019736
    27  H    0.000000  -0.000000  -0.000000   0.000000   0.000000   0.000019
    28  H    0.000194  -0.000003  -0.000000  -0.000000   0.000009  -0.002849
              25         26         27         28
     1  S    0.000000  -0.000000  -0.000000  -0.000006
     2  C   -0.000000  -0.000000   0.000000   0.000171
     3  N    0.000000  -0.000004  -0.000000   0.000521
     4  C    0.000000   0.000000   0.000000  -0.000013
     5  C   -0.000000   0.000000   0.000000  -0.000001
     6  N   -0.000011  -0.000001  -0.000000  -0.000010
     7  C   -0.000090  -0.000127  -0.000000   0.000982
     8  C   -0.016959   0.000040  -0.000000  -0.000304
     9  C   -0.070748  -0.055203  -0.000059   0.004729
    10  C    0.341182  -0.016706  -0.000207   0.000352
    11  C   -0.043483   0.306642   0.003867   0.001082
    12  N   -0.013454  -0.073807   0.003984  -0.000030
    13  N   -0.000708  -0.017239  -0.002738   0.000001
    14  N   -0.000067  -0.027805   0.259230   0.000094
    15  C   -0.000346  -0.038680   0.007520  -0.009987
    16  C   -0.001101  -0.011056  -0.001409   0.281984
    17  C   -0.000120  -0.000280   0.000001  -0.033573
    18  H   -0.000000   0.000000   0.000000  -0.000000
    19  H    0.000000   0.000000   0.000000   0.000194
    20  H    0.000000   0.000000  -0.000000  -0.000003
    21  H    0.000000  -0.000000  -0.000000  -0.000000
    22  H    0.000000   0.000000   0.000000  -0.000000
    23  H    0.005033  -0.000033   0.000000   0.000009
    24  H    0.013399   0.019736   0.000019  -0.002849
    25  H    0.693577   0.015195   0.000017   0.000017
    26  H    0.015195   0.719728   0.007169  -0.002202
    27  H    0.000017   0.007169   0.431495   0.000050
    28  H    0.000017  -0.002202   0.000050   0.634777
 Mulliken charges:
               1
     1  S   -0.272318
     2  C   -0.139443
     3  N   -0.312247
     4  C    0.041316
     5  C   -0.121713
     6  N   -0.244431
     7  C    0.216912
     8  C   -0.195563
     9  C    0.181956
    10  C   -0.115040
    11  C    0.077087
    12  N   -0.134822
    13  N   -0.057390
    14  N   -0.231842
    15  C   -0.052374
    16  C   -0.283105
    17  C   -0.003042
    18  H    0.152781
    19  H    0.125317
    20  H    0.144461
    21  H    0.134171
    22  H    0.147851
    23  H    0.120075
    24  H    0.153026
    25  H    0.078668
    26  H    0.174634
    27  H    0.291062
    28  H    0.124013
 Sum of Mulliken charges =  -0.00000
 Mulliken charges with hydrogens summed into heavy atoms:
               1
     1  S   -0.119537
     2  C    0.130335
     3  N   -0.312247
     4  C    0.175486
     5  C    0.026138
     6  N   -0.244431
     7  C    0.216912
     8  C   -0.075488
     9  C    0.334982
    10  C   -0.036371
    11  C    0.251721
    12  N   -0.134822
    13  N   -0.057390
    14  N    0.059220
    15  C   -0.052374
    16  C   -0.159092
    17  C   -0.003042
 Electronic spatial extent (au):  <R**2>=           6466.7390
 Charge=             -0.0000 electrons
 Dipole moment (field-independent basis, Debye):
    X=              0.9349    Y=             -0.1028    Z=             -1.7010  Tot=              1.9438
 Quadrupole moment (field-independent basis, Debye-Ang):
   XX=           -106.4562   YY=            -95.9879   ZZ=           -110.2108
   XY=              4.7683   XZ=             -4.4110   YZ=              3.4484
 Traceless Quadrupole moment (field-independent basis, Debye-Ang):
   XX=             -2.2379   YY=              8.2304   ZZ=             -5.9925
   XY=              4.7683   XZ=             -4.4110   YZ=              3.4484
 Octapole moment (field-independent basis, Debye-Ang**2):
  XXX=            114.1795  YYY=             -0.6528  ZZZ=              3.0652  XYY=             10.7096
  XXY=            -22.4816  XXZ=            -38.8908  XZZ=             -8.0686  YZZ=              3.5843
  YYZ=             -3.4662  XYZ=              1.5342
 Hexadecapole moment (field-independent basis, Debye-Ang**3):
 XXXX=          -7441.6694 YYYY=          -1434.1123 ZZZZ=           -251.5728 XXXY=            116.5669
 XXXZ=            -36.1958 YYYX=             -8.0441 YYYZ=             14.8814 ZZZX=            -12.4500
 ZZZY=              3.3158 XXYY=          -1163.3899 XXZZ=          -1224.9571 YYZZ=           -304.2917
 XXYZ=             23.9412 YYXZ=              1.6554 ZZXY=             -6.5123
 N-N= 1.151916383990D+03 E-N=-4.874101799730D+03  KE= 1.091139952292D+03
 PrsmSu:  requested number of processors reduced to:  13 ShMem   1 Linda.
 Calling FoFJK, ICntrl=      2127 FMM=F ISym2X=0 I1Cent= 0 IOpClX= 0 NMat=1 NMatS=1 NMatT=0.
 ***** Axes restored to original set *****
 -------------------------------------------------------------------
 Center     Atomic                   Forces (Hartrees/Bohr)
 Number     Number              X              Y              Z
 -------------------------------------------------------------------
      1       16           0.002570124    0.003419126    0.012829403
      2        6           0.016963648   -0.010831375    0.002427653
      3        7          -0.046502996   -0.065755457   -0.073995785
      4        6          -0.023303372    0.015172472   -0.053262346
      5        6           0.005443269    0.006638459    0.008442809
      6        7           0.008924631    0.010969506    0.019397815
      7        6          -0.004861277   -0.045859943    0.007946937
      8        6          -0.008889523   -0.015027817   -0.012919196
      9        6           0.030542920    0.038200271    0.046123070
     10        6           0.001495347   -0.070537251    0.044705685
     11        6          -0.001661738    0.001039941    0.007405875
     12        7           0.003175588   -0.038471737    0.003749949
     13        7           0.026162540    0.104059250    0.018787744
     14        7          -0.066627770   -0.038880101   -0.100689715
     15        6           0.013060560   -0.035669724    0.055807384
     16        6          -0.036894118   -0.053867784   -0.059968221
     17        6          -0.008566387   -0.077241081    0.019125385
     18        1           0.008918769    0.001458712    0.001504094
     19        1          -0.001137885    0.040873900   -0.016232590
     20        1           0.002303958    0.020243570    0.033479580
     21        1           0.021701164    0.049725256    0.023986860
     22        1           0.017440214    0.052654907    0.015339885
     23        1          -0.004412843   -0.039906283    0.010507379
     24        1          -0.009366901    0.045574906   -0.051467900
     25        1           0.011337941   -0.045797508    0.056718558
     26        1           0.001470889    0.016033530   -0.015980984
     27        1           0.043395841    0.087237022    0.018030486
     28        1          -0.002682594    0.044545233   -0.021799814
 -------------------------------------------------------------------
 Cartesian Forces:  Max     0.104059250 RMS     0.036928118

 GradGradGradGradGradGradGradGradGradGradGradGradGradGradGradGradGradGrad
 Berny optimization.
 FormGI is forming the generalized inverse of G from B-inverse, IUseBI=4.
 Internal  Forces:  Max     0.497601751 RMS     0.112948957
 Search for a local minimum.
 Step number   1 out of a maximum of  116
 All quantities printed in internal units (Hartrees-Bohrs-Radians)
 Mixed Optimization -- RFO/linear search
 Second derivative matrix not updated -- first step.
 ITU=  0
     Eigenvalues ---    0.00230   0.00230   0.00230   0.00230   0.00236
     Eigenvalues ---    0.00748   0.00850   0.01278   0.01963   0.02119
     Eigenvalues ---    0.02314   0.02347   0.02839   0.02855   0.02945
     Eigenvalues ---    0.03071   0.03109   0.03137   0.03385   0.03402
     Eigenvalues ---    0.03738   0.03839   0.03849   0.06132   0.06754
     Eigenvalues ---    0.07381   0.08863   0.11404   0.12433   0.14581
     Eigenvalues ---    0.15485   0.15920   0.15973   0.15984   0.15993
     Eigenvalues ---    0.16000   0.16000   0.16000   0.16000   0.16974
     Eigenvalues ---    0.17293   0.19140   0.21468   0.21488   0.21953
     Eigenvalues ---    0.22000   0.22000   0.22000   0.22006   0.22013
     Eigenvalues ---    0.22236   0.24899   0.24984   0.25000   0.25000
     Eigenvalues ---    0.25000   0.25000   0.25333   0.25407   0.28330
     Eigenvalues ---    0.28350   0.40289   0.40477   0.41565   0.41728
     Eigenvalues ---    0.44348   0.46001   0.46061   0.49513   0.49879
     Eigenvalues ---    0.54724   0.54948   0.60523   0.61227   0.63960
     Eigenvalues ---    0.74543   0.77335   1.01437
 RFO step:  Lambda=-1.05747720D+00 EMin= 2.30000000D-03
 Linear search not attempted -- first point.
 Maximum step size (   0.300) exceeded in Quadratic search.
    -- Step size scaled by   0.330
 Iteration  1 RMS(Cart)=  0.22925318 RMS(Int)=  0.01975217
 Iteration  2 RMS(Cart)=  0.25586625 RMS(Int)=  0.01139727
 Iteration  3 RMS(Cart)=  0.21427399 RMS(Int)=  0.00363286
 Iteration  4 RMS(Cart)=  0.00626097 RMS(Int)=  0.00025327
 Iteration  5 RMS(Cart)=  0.00000468 RMS(Int)=  0.00025326
 Iteration  6 RMS(Cart)=  0.00000000 RMS(Int)=  0.00025326
 Variable       Old X    -DE/DX   Delta X   Delta X   Delta X     New X
                                 (Linear)    (Quad)   (Total)
    R1        3.60667  -0.01403   0.00000  -0.00367  -0.00367   3.60299
    R2        2.55870  -0.00291   0.00000  -0.00073  -0.00073   2.55797
    R3        2.91422  -0.03214   0.00000  -0.00792  -0.00792   2.90630
    R4        1.96180   0.04153   0.00000   0.00931   0.00931   1.97111
    R5        2.18081  -0.03661   0.00000  -0.00901  -0.00901   2.17179
    R6        3.25480  -0.01917   0.00000  -0.00514  -0.00514   3.24966
    R7        2.49982   0.08852   0.00000   0.01749   0.01750   2.51732
    R8        2.26167  -0.04863   0.00000  -0.01229  -0.01229   2.24938
    R9        2.55178  -0.01000   0.00000  -0.00207  -0.00206   2.54971
   R10        2.24885  -0.05706   0.00000  -0.01436  -0.01436   2.23449
   R11        2.55378  -0.11683   0.00000  -0.02404  -0.02404   2.52974
   R12        2.64131   0.01856   0.00000   0.00402   0.00403   2.64533
   R13        2.39385  -0.01394   0.00000  -0.00252  -0.00252   2.39133
   R14        1.95971   0.03669   0.00000   0.00821   0.00821   1.96792
   R15        2.50529   0.07769   0.00000   0.01542   0.01542   2.52071
   R16        1.86676   0.04372   0.00000   0.00931   0.00933   1.87609
   R17        2.40999   0.09523   0.00000   0.01744   0.01744   2.42743
   R18        1.90763   0.07350   0.00000   0.01598   0.01598   1.92361
   R19        2.47938   0.03027   0.00000   0.00589   0.00589   2.48526
   R20        1.92741   0.02158   0.00000   0.00475   0.00475   1.93215
   R21        2.28069   0.11708   0.00000   0.01865   0.01865   2.29934
   R22        2.70911   0.03131   0.00000   0.00707   0.00707   2.71617
   R23        3.09139  -0.05150   0.00000  -0.01336  -0.01336   3.07803
   R24        1.87060   0.05348   0.00000   0.01137   0.01137   1.88197
   R25        3.32280   0.00534   0.00000  -0.00068  -0.00027   3.32253
   R26        3.23531   0.02796   0.00000   0.00925   0.00903   3.24434
   R27        1.97863   0.03916   0.00000   0.00885   0.00885   1.98748
   R28        3.39585  -0.00666   0.00000  -0.00077  -0.00097   3.39489
    A1        1.78520  -0.02213   0.00000  -0.00600  -0.00600   1.77920
    A2        2.02582  -0.01372   0.00000  -0.00361  -0.00359   2.02223
    A3        1.95459  -0.01076   0.00000  -0.00303  -0.00303   1.95157
    A4        1.75758   0.01933   0.00000   0.00527   0.00526   1.76284
    A5        1.78947   0.01776   0.00000   0.00481   0.00480   1.79428
    A6        2.01907  -0.01160   0.00000  -0.00322  -0.00322   2.01585
    A7        1.92272  -0.00289   0.00000  -0.00075  -0.00074   1.92197
    A8        1.55737   0.15175   0.00000   0.03836   0.03835   1.59573
    A9        2.23124  -0.03529   0.00000  -0.00917  -0.00916   2.22208
   A10        2.18357  -0.02036   0.00000  -0.00570  -0.00571   2.17786
   A11        1.86415   0.05641   0.00000   0.01511   0.01510   1.87925
   A12        1.86194  -0.02635   0.00000  -0.00689  -0.00687   1.85507
   A13        2.18540   0.02148   0.00000   0.00570   0.00569   2.19109
   A14        2.23585   0.00485   0.00000   0.00119   0.00118   2.23703
   A15        2.25764  -0.34266   0.00000  -0.08663  -0.08660   2.17103
   A16        1.77893   0.47533   0.00000   0.12009   0.12007   1.89900
   A17        1.90114  -0.46875   0.00000  -0.12119  -0.12118   1.77996
   A18        2.30559   0.21537   0.00000   0.05544   0.05544   2.36103
   A19        2.07645   0.25337   0.00000   0.06574   0.06574   2.14219
   A20        2.36482   0.28976   0.00000   0.07495   0.07495   2.43977
   A21        2.09482  -0.49760   0.00000  -0.13320  -0.13324   1.96158
   A22        1.82350   0.20800   0.00000   0.05829   0.05832   1.88182
   A23        2.16708  -0.15351   0.00000  -0.03967  -0.03967   2.12741
   A24        2.11259   0.07170   0.00000   0.01846   0.01846   2.13105
   A25        2.00347   0.08182   0.00000   0.02121   0.02121   2.02467
   A26        2.10276   0.12454   0.00000   0.03218   0.03218   2.13494
   A27        1.97060  -0.05572   0.00000  -0.01431  -0.01431   1.95629
   A28        2.20756  -0.06828   0.00000  -0.01772  -0.01772   2.18984
   A29        1.98461  -0.00576   0.00000  -0.00145  -0.00145   1.98316
   A30        1.96642   0.01613   0.00000   0.00407   0.00407   1.97049
   A31        2.54306  -0.03924   0.00000  -0.01009  -0.01008   2.53298
   A32        2.67401  -0.05792   0.00000  -0.01599  -0.01599   2.65802
   A33        1.04095   0.09585   0.00000   0.02576   0.02577   1.06672
   A34        1.49800   0.03328   0.00000   0.00886   0.00895   1.50695
   A35        2.58320   0.02303   0.00000   0.00657   0.00661   2.58982
   A36        2.20366  -0.22983   0.00000  -0.06392  -0.06285   2.14081
   A37        3.21928  -0.23711   0.00000  -0.06677  -0.06786   3.15141
   A38        3.00811   0.04477   0.00000   0.01297   0.01339   3.02150
    D1        2.81401   0.00394   0.00000   0.00104   0.00105   2.81505
    D2        0.76743  -0.00161   0.00000  -0.00046  -0.00047   0.76696
    D3       -1.27534  -0.00439   0.00000  -0.00122  -0.00122  -1.27656
    D4        1.19260   0.00494   0.00000   0.00144   0.00143   1.19403
    D5       -2.95438  -0.00362   0.00000  -0.00096  -0.00097  -2.95535
    D6       -0.86149  -0.00124   0.00000  -0.00032  -0.00033  -0.86182
    D7       -2.96836  -0.01207   0.00000  -0.00348  -0.00352  -2.97188
    D8        0.06131   0.00138   0.00000   0.00051   0.00048   0.06178
    D9       -0.06628   0.00480   0.00000   0.00159   0.00158  -0.06470
   D10        3.07747   0.01128   0.00000   0.00337   0.00339   3.08086
   D11       -3.11228  -0.00367   0.00000  -0.00098  -0.00102  -3.11330
   D12        0.03147   0.00281   0.00000   0.00079   0.00079   0.03226
   D13        0.01357   0.01883   0.00000   0.00543   0.00549   0.01906
   D14       -3.13026   0.01214   0.00000   0.00359   0.00362  -3.12664
   D15       -3.12632   0.02354   0.00000   0.00655   0.00667  -3.11965
   D16        3.12819   0.00329   0.00000   0.00116   0.00115   3.12934
   D17       -0.00968   0.00761   0.00000   0.00218   0.00222  -0.00746
   D18        3.11895  -0.00193   0.00000  -0.00058  -0.00044   3.11851
   D19       -0.03459   0.01872   0.00000   0.00502   0.00499  -0.02961
   D20       -0.02580  -0.00542   0.00000  -0.00141  -0.00130  -0.02710
   D21        3.10384   0.01523   0.00000   0.00420   0.00414   3.10798
   D22       -3.12685   0.00623   0.00000   0.00166   0.00182  -3.12503
   D23        0.02580   0.00498   0.00000   0.00127   0.00144   0.02723
   D24        0.02543  -0.00859   0.00000  -0.00237  -0.00253   0.02290
   D25       -3.10511  -0.00984   0.00000  -0.00275  -0.00292  -3.10803
   D26       -0.08385   0.04392   0.00000   0.01131   0.01062  -0.07323
   D27        3.09935  -0.00914   0.00000  -0.00208  -0.00272   3.09663
   D28        0.08036  -0.02948   0.00000  -0.00828  -0.00739   0.07297
   D29       -3.06988  -0.01244   0.00000  -0.00369  -0.00316  -3.07304
   D30        3.13225  -0.00355   0.00000  -0.00107  -0.00107   3.13117
   D31       -0.07713   0.00114   0.00000   0.00034   0.00034  -0.07679
   D32       -0.01978  -0.00231   0.00000  -0.00069  -0.00070  -0.02048
   D33        3.05403   0.00237   0.00000   0.00072   0.00072   3.05475
   D34        3.05588   0.01142   0.00000   0.00342   0.00341   3.05929
   D35       -0.00803   0.00395   0.00000   0.00125   0.00126  -0.00678
   D36        0.17357  -0.01119   0.00000  -0.00337  -0.00337   0.17020
   D37       -0.16243   0.00677   0.00000   0.00200   0.00198  -0.16045
   D38       -2.88593  -0.00711   0.00000  -0.00210  -0.00209  -2.88802
   D39       -2.92789   0.00593   0.00000   0.00159   0.00157  -2.92632
   D40        0.11454   0.03741   0.00000   0.00993   0.00855   0.12309
         Item               Value     Threshold  Converged?
 Maximum Force            0.497602     0.000450     NO 
 RMS     Force            0.112949     0.000300     NO 
 Maximum Displacement     1.934447     0.001800     NO 
 RMS     Displacement     0.697029     0.001200     NO 
 Predicted change in Energy=-3.392750D-01
 GradGradGradGradGradGradGradGradGradGradGradGradGradGradGradGradGradGrad

                          Input orientation:                          
 ---------------------------------------------------------------------
 Center     Atomic      Atomic             Coordinates (Angstroms)
 Number     Number       Type             X           Y           Z
 ---------------------------------------------------------------------
      1         16           0        1.403503    0.835344    0.529926
      2          6           0        3.300241    0.913205    0.707499
      3          7           0        3.886196    0.227571    1.953229
      4          6           0        3.452629   -1.325405    1.355348
      5          6           0        3.494881   -2.483980    2.011418
      6          7           0        4.026502   -2.214251    3.221831
      7          6           0        4.395812   -0.994182    3.630615
      8          6           0        4.929348   -1.092937    4.921028
      9          6           0        5.243387    0.107753    5.168116
     10          6           0        5.768227    0.841936    6.150365
     11          6           0        5.930351    2.111123    6.036686
     12          7           0        6.436233    2.844831    7.003827
     13          7           0        6.603494    4.009946    6.695554
     14          7           0        6.004013    4.346122    5.433197
     15          6           0        5.273753    3.757347    4.101607
     16          6           0        4.644001    1.842977    3.178363
     17          6           0        4.241183    0.153860    2.902849
     18          1           0        1.163555    1.833860   -0.351930
     19          1           0        3.640762    1.894575    0.802066
     20          1           0        3.633188    0.474682   -0.301288
     21          1           0        2.956935   -1.529781    0.292622
     22          1           0        3.134138   -3.527312    1.587754
     23          1           0        5.087929   -1.867451    5.598857
     24          1           0        5.052747    0.713249    4.404799
     25          1           0        6.072405    0.430171    7.030199
     26          1           0        5.681756    2.448448    5.104045
     27          1           0        5.880709    4.945436    4.647434
     28          1           0        4.280944    2.018155    2.206953
 ---------------------------------------------------------------------
                    Distance matrix (angstroms):
                    1          2          3          4          5
     1  S    0.000000
     2  C    1.906622   0.000000
     3  N    2.925567   1.537947   0.000000
     4  C    3.090157   2.335445   1.719644   0.000000
     5  C    4.193637   3.644030   2.740259   1.332108   0.000000
     6  N    4.840094   4.078027   2.755273   2.145493   1.349249
     7  C    4.681383   3.658280   2.136823   2.485185   2.377598
     8  C    5.952447   4.942917   3.411706   3.866370   3.529664
     9  C    6.065221   4.931701   3.491679   4.449489   4.442869
    10  C    7.116193   5.976691   4.640629   5.749048   5.775872
    11  C    7.241849   6.062402   4.939733   6.313775   6.576417
    12  N    8.442618   7.294476   6.233882   7.628766   7.872225
    13  N    8.667927   7.507202   6.646782   8.179958   8.589276
    14  N    7.585006   6.436421   5.792908   7.436708   8.040808
    15  C    6.022777   4.848078   4.358918   6.057458   6.818170
    16  C    4.304692   2.962320   2.164430   3.844658   4.626531
    17  C    3.761332   2.506300   1.016478   2.281404   2.882675
    18  H    1.353617   2.556447   3.912377   4.258592   5.446489
    19  H    2.490252   1.043065   2.040666   3.272581   4.544839
    20  H    2.406759   1.149264   2.282088   2.453030   3.757848
    21  H    2.839592   2.501632   2.590257   1.190323   2.038171
    22  H    4.811119   4.529970   3.846857   2.236928   1.182442
    23  H    6.824526   5.903665   4.373086   4.579890   3.973364
    24  H    5.324145   4.096497   2.758064   4.001954   4.286897
    25  H    8.013511   6.920604   5.531382   6.492242   6.350123
    26  H    6.467466   5.230507   4.252526   5.767469   6.218972
    27  H    7.341124   6.200064   5.787493   7.487112   8.236321
    28  H    3.534279   2.105007   1.851052   3.548341   4.574423
                    6          7          8          9         10
     6  N    0.000000
     7  C    1.338679   0.000000
     8  C    2.227049   1.399850   0.000000
     9  C    3.265047   2.072813   1.265436   0.000000
    10  C    4.577138   3.406464   2.441049   1.333902   0.000000
    11  C    5.500628   4.217453   3.537329   2.289067   1.284540
    12  N    6.760518   5.502718   4.702634   3.504899   2.277327
    13  N    7.579463   6.269690   5.656069   4.405686   3.321324
    14  N    7.199943   5.861268   5.567816   4.314231   3.584585
    15  C    6.163573   4.854858   4.931057   3.802355   3.597436
    16  C    4.104180   2.883678   3.426061   2.707283   3.331481
    17  C    2.399122   1.368047   2.470044   2.477493   3.653994
    18  H    6.111909   5.857130   7.109952   7.077809   8.029119
    19  H    4.783985   4.112871   5.248955   4.982322   5.851364
    20  H    4.449429   4.266031   5.604467   5.713296   6.805667
    21  H    3.192607   3.674157   5.050088   5.628483   6.916760
    22  H    2.278300   3.490251   4.501076   5.521016   6.844427
    23  H    2.626242   2.261770   1.041380   2.027594   2.847410
    24  H    3.320067   1.986516   1.882559   0.992785   1.890893
    25  H    5.067776   4.049311   2.841661   2.063632   1.017930
    26  H    5.293709   3.959337   3.625054   2.382253   1.919152
    27  H    7.532035   6.206280   6.118978   4.907186   4.371518
    28  H    4.359814   3.333794   4.179177   3.653001   4.375614
                   11         12         13         14         15
    11  C    0.000000
    12  N    1.315145   0.000000
    13  N    2.119612   1.216758   0.000000
    14  N    2.316214   2.215303   1.437337   0.000000
    15  C    2.624063   3.256828   2.925847   1.628824   0.000000
    16  C    3.145887   4.341656   4.572307   3.633131   2.216705
    17  C    4.062647   5.373787   5.902077   5.204352   3.935523
    18  H    7.975815   9.106610   9.164895   7.950420   6.358264
    19  H    5.717549   6.868733   6.927177   5.748253   4.125961
    20  H    6.937205   8.175535   8.383114   7.313903   5.731739
    21  H    7.422376   8.734015   9.218650   8.380718   6.915905
    22  H    7.707383   8.991212   9.743527   9.220335   7.997729
    23  H    4.090284   5.098771   6.167939   6.282925   5.823629
    24  H    2.321055   3.634918   4.303555   3.893620   3.067133
    25  H    1.957766   2.442059   3.634396   4.229630   4.503843
    26  H    1.022452   2.082193   2.412629   1.952782   1.698401
    27  H    3.156868   3.205267   2.364816   0.995894   1.441485
    28  H    4.170856   5.323407   5.432219   4.335556   2.756841
                   16         17         18         19         20
    16  C    0.000000
    17  C    1.758205   0.000000
    18  H    4.957475   4.784118   0.000000
    19  H    2.579911   2.793544   2.733486   0.000000
    20  H    3.873235   3.277054   2.819400   1.798206   0.000000
    21  H    4.748599   3.361135   3.865972   3.528933   2.197253
    22  H    5.800839   4.062764   6.032224   5.501893   4.453480
    23  H    4.452318   3.474354   8.031954   6.265488   6.512570
    24  H    1.716829   1.796497   6.245642   4.045852   4.921312
    25  H    4.344306   4.523797   8.975688   6.844488   7.726737
    26  H    2.269753   3.490795   7.110522   4.793689   6.108192
    27  H    3.648681   5.356382   7.545004   5.395551   7.037674
    28  H    1.051729   1.990339   4.037321   1.548811   3.015489
                   21         22         23         24         25
    21  H    0.000000
    22  H    2.387236   0.000000
    23  H    5.728114   4.760398   0.000000
    24  H    5.131628   5.440511   2.843770   0.000000
    25  H    7.677403   7.342704   2.880451   2.830647   0.000000
    26  H    6.811810   7.386770   4.384570   1.973706   2.817112
    27  H    8.333144   9.417683   6.924532   4.319237   5.109006
    28  H    4.243291   5.696558   5.220553   2.670015   5.384675
                   26         27         28
    26  H    0.000000
    27  H    2.546179   0.000000
    28  H    3.246624   4.133300   0.000000
 Stoichiometry    C11H11N5S
 Framework group  C1[X(C11H11N5S)]
 Deg. of freedom    78
 Full point group                 C1      NOp   1
 Largest Abelian subgroup         C1      NOp   1
 Largest concise Abelian subgroup C1      NOp   1
                         Standard orientation:                         
 ---------------------------------------------------------------------
 Center     Atomic      Atomic             Coordinates (Angstroms)
 Number     Number       Type             X           Y           Z
 ---------------------------------------------------------------------
      1         16           0        3.630523   -2.001546    0.818561
      2          6           0        2.521926   -1.520573   -0.656188
      3          7           0        1.676223   -0.249123   -0.473208
      4          6           0        3.082042    0.741006   -0.495459
      5          6           0        3.160714    2.038375   -0.203647
      6          7           0        1.898172    2.449610    0.035824
      7          6           0        0.823026    1.653051   -0.004378
      8          6           0       -0.316745    2.419470    0.266002
      9          6           0       -1.239241    1.557409    0.181266
     10          6           0       -2.563294    1.465863    0.314673
     11          6           0       -3.185848    0.353248    0.157957
     12          7           0       -4.489434    0.250976    0.298707
     13          7           0       -4.924266   -0.852286    0.026245
     14          7           0       -3.888346   -1.829950   -0.166061
     15          6           0       -2.283678   -2.064419   -0.318152
     16          6           0       -0.370126   -0.946643   -0.369867
     17          6           0        0.856693    0.306395   -0.242992
     18          1           0        3.890254   -3.304683    0.560385
     19          1           0        1.803036   -2.249785   -0.854767
     20          1           0        3.293147   -1.483552   -1.507455
     21          1           0        4.188999    0.344482   -0.680617
     22          1           0        4.155458    2.676905   -0.173101
     23          1           0       -0.500081    3.420766    0.485698
     24          1           0       -0.895823    0.658990   -0.064764
     25          1           0       -3.141644    2.273387    0.537377
     26          1           0       -2.560823   -0.397996   -0.142679
     27          1           0       -3.559331   -2.715699   -0.480707
     28          1           0        0.419177   -1.601746   -0.602194
 ---------------------------------------------------------------------
 Rotational constants (GHZ):           0.7466844           0.2409663           0.1884212
 Standard basis: 6-31G(2df,p) (6D, 7F)
 There are   586 symmetry adapted cartesian basis functions of A   symmetry.
 There are   535 symmetry adapted basis functions of A   symmetry.
   535 basis functions,   849 primitive gaussians,   586 cartesian basis functions
    64 alpha electrons       64 beta electrons
       nuclear repulsion energy      1219.2518794724 Hartrees.
 NAtoms=   28 NActive=   28 NUniq=   28 SFac= 1.00D+00 NAtFMM=   60 NAOKFM=F Big=F
 Integral buffers will be    131072 words long.
 Raffenetti 2 integral format.
 Two-electron integral symmetry is turned on.
 One-electron integrals computed using PRISM.
 PrsmSu:  requested number of processors reduced to:  12 ShMem   1 Linda.
 NBasis=   535 RedAO= T EigKep=  7.58D-05  NBF=   535
 NBsUse=   535 1.00D-06 EigRej= -1.00D+00 NBFU=   535
 Initial guess from the checkpoint file:  "SCN1CdCNdC2CdCCdCNdNNdCCdC21.chk"
 B after Tr=     0.000000   -0.000000    0.000000
         Rot=    0.999633   -0.023660    0.006822    0.011318 Ang=  -3.11 deg.
 ExpMin= 1.17D-01 ExpMax= 2.19D+04 ExpMxC= 3.30D+03 IAcc=2 IRadAn=         4 AccDes= 0.00D+00
 Harris functional with IExCor=  402 and IRadAn=       4 diagonalized for initial guess.
 HarFok:  IExCor=  402 AccDes= 0.00D+00 IRadAn=         4 IDoV= 1 UseB2=F ITyADJ=14
 ICtDFT=  3500011 ScaDFX=  1.000000  1.000000  1.000000  1.000000
 FoFCou: FMM=F IPFlag=           0 FMFlag=      100000 FMFlg1=           0
         NFxFlg=           0 DoJE=T BraDBF=F KetDBF=T FulRan=T
         wScrn=  0.000000 ICntrl=       500 IOpCl=  0 I1Cent=   200000004 NGrid=           0
         NMat0=    1 NMatS0=      1 NMatT0=    0 NMatD0=    1 NMtDS0=    0 NMtDT0=    0
 Petite list used in FoFCou.
 Requested convergence on RMS density matrix=1.00D-08 within 128 cycles.
 Requested convergence on MAX density matrix=1.00D-06.
 Requested convergence on             energy=1.00D-06.
 No special actions if energy rises.
 Integral accuracy reduced to 1.0D-05 until final iterations.
[...]
 All quantities printed in internal units (Hartrees-Bohrs-Radians)
 Mixed Optimization -- RFO/linear search
 Update second derivatives using D2CorX and points   25   24
 DE=  4.55D-03 DEPred=-2.69D-02 R=-1.69D-01
 Trust test=-1.69D-01 RLast= 4.73D-01 DXMaxT set to 3.00D-01
 ITU= -1  0  1  1  0  0 -1  1  1 -1  0  0  0  1 -1  1  0 -1  1  0
 ITU=  0  1  0 -1  0
 Use linear search instead of GDIIS.
     Eigenvalues ---    0.00220   0.00230   0.00240   0.00264   0.00410
     Eigenvalues ---    0.00520   0.00926   0.01919   0.02007   0.02183
     Eigenvalues ---    0.02666   0.02774   0.02830   0.02919   0.03380
     Eigenvalues ---    0.03491   0.03580   0.03716   0.04992   0.05894
     Eigenvalues ---    0.06191   0.07774   0.08567   0.09080   0.09515
     Eigenvalues ---    0.11550   0.12151   0.13410   0.15310   0.15539
     Eigenvalues ---    0.15941   0.15974   0.16028   0.16086   0.16922
     Eigenvalues ---    0.17174   0.18513   0.19212   0.19781   0.20953
     Eigenvalues ---    0.21685   0.22739   0.23208   0.23862   0.24776
     Eigenvalues ---    0.25102   0.25331   0.25636   0.27256   0.28175
     Eigenvalues ---    0.28664   0.31363   0.33267   0.39065   0.39800
     Eigenvalues ---    0.41259   0.41625   0.42528   0.44361   0.45901
     Eigenvalues ---    0.47780   0.49525   0.51805   0.53800   0.58469
     Eigenvalues ---    0.60725   0.63080   0.69062   0.71320   0.78147
     Eigenvalues ---    0.93830   0.97157   2.03074   3.15819   7.52731
     Eigenvalues ---   12.21271  36.15693 117.82076
 RFO step:  Lambda=-6.72199587D-02 EMin= 2.20182019D-03
 Quartic linear search produced a step of -0.51480.
 Maximum step size (   0.300) exceeded in Quadratic search.
    -- Step size scaled by   0.601
 Iteration  1 RMS(Cart)=  0.01734544 RMS(Int)=  0.03760085
 Iteration  2 RMS(Cart)=  0.00571076 RMS(Int)=  0.03619438
 Iteration  3 RMS(Cart)=  0.00514768 RMS(Int)=  0.03492027
 Iteration  4 RMS(Cart)=  0.00467191 RMS(Int)=  0.03375866
 Iteration  5 RMS(Cart)=  0.00426523 RMS(Int)=  0.03269371
 Iteration  6 RMS(Cart)=  0.00391406 RMS(Int)=  0.03171263
 Iteration  7 RMS(Cart)=  0.00360807 RMS(Int)=  0.03080493
 Iteration  8 RMS(Cart)=  0.00333931 RMS(Int)=  0.02996193
 Iteration  9 RMS(Cart)=  0.00310146 RMS(Int)=  0.02917635
 Iteration 10 RMS(Cart)=  0.00288959 RMS(Int)=  0.02844203
 Iteration 11 RMS(Cart)=  0.00269954 RMS(Int)=  0.02775374
 Iteration 12 RMS(Cart)=  0.00252796 RMS(Int)=  0.02710695
 Iteration 13 RMS(Cart)=  0.00237193 RMS(Int)=  0.02649774
 Iteration 14 RMS(Cart)=  0.00222877 RMS(Int)=  0.02592254
 Iteration 15 RMS(Cart)=  0.00209567 RMS(Int)=  0.02537778
 Iteration 16 RMS(Cart)=  0.00196878 RMS(Int)=  0.02485779
 Iteration 17 RMS(Cart)=  0.00183777 RMS(Int)=  0.02429120
 Iteration 18 RMS(Cart)=  0.00153364 RMS(Int)=  0.30302318
 Iteration 19 RMS(Cart)=  0.10110207 RMS(Int)=  0.29822523
 Iteration 20 RMS(Cart)=  0.00586185 RMS(Int)=  0.28114237
 Iteration 21 RMS(Cart)=  0.00329587 RMS(Int)=  0.26246700
 Iteration 22 RMS(Cart)=  0.00475608 RMS(Int)=  0.24305733
 Iteration 23 RMS(Cart)=  0.00567147 RMS(Int)=  0.22409014
 Iteration 24 RMS(Cart)=  0.00324454 RMS(Int)=  0.21229097
 Iteration 25 RMS(Cart)=  0.00039527 RMS(Int)=  0.21057845
 Iteration 26 RMS(Cart)=  0.00031210 RMS(Int)=  0.20899774
 Iteration 27 RMS(Cart)=  0.00025383 RMS(Int)=  0.20746642
 Iteration 28 RMS(Cart)=  0.00020345 RMS(Int)=  0.20594858
 Iteration 29 RMS(Cart)=  0.00015755 RMS(Int)=  0.20441958
 Iteration 30 RMS(Cart)=  0.00011664 RMS(Int)=  0.20285350
 Iteration 31 RMS(Cart)=  0.00008660 RMS(Int)=  0.20121042
 Iteration 32 RMS(Cart)=  0.00008315 RMS(Int)=  0.19940371
 Iteration 33 RMS(Cart)=  0.00011459 RMS(Int)=  0.19713312
 Iteration 34 RMS(Cart)=  0.00017593 RMS(Int)=  0.18880871
 Iteration 35 RMS(Cart)=  0.00043021 RMS(Int)=  0.11610087
 Iteration 36 RMS(Cart)=  0.00044615 RMS(Int)=  0.18464900
 Iteration 37 RMS(Cart)=  0.00060376 RMS(Int)=  0.12014640
 Iteration 38 RMS(Cart)=  0.00046129 RMS(Int)=  0.10140580
 Iteration 39 RMS(Cart)=  0.00016091 RMS(Int)=  0.20371274
 Iteration 40 RMS(Cart)=  0.00006296 RMS(Int)=  0.20149007
 Iteration 41 RMS(Cart)=  0.00008352 RMS(Int)=  0.19346783
 Iteration 42 RMS(Cart)=  0.00028276 RMS(Int)=  0.11149798
 Iteration 43 RMS(Cart)=  0.00040027 RMS(Int)=  0.19152174
 Iteration 44 RMS(Cart)=  0.00034405 RMS(Int)=  0.11248416
 Iteration 45 RMS(Cart)=  0.00040137 RMS(Int)=  0.19165070
 Iteration 46 RMS(Cart)=  0.00033957 RMS(Int)=  0.11107326
 Iteration 47 RMS(Cart)=  0.00037254 RMS(Int)=  0.19357607
 Iteration 48 RMS(Cart)=  0.00027372 RMS(Int)=  0.09637098
 New curvilinear step failed, DQL= 3.14D+00 SP=-9.96D-01.
 ITry= 1 IFail=1 DXMaxC= 6.11D-01 DCOld= 1.00D+10 DXMaxT= 3.00D-01 DXLimC= 3.00D+00 Rises=F
 Iteration  1 RMS(Cart)=  0.01648177 RMS(Int)=  0.03470627
 Iteration  2 RMS(Cart)=  0.00477254 RMS(Int)=  0.03356815
 Iteration  3 RMS(Cart)=  0.00436469 RMS(Int)=  0.03252305
 Iteration  4 RMS(Cart)=  0.00401215 RMS(Int)=  0.03155876
 Iteration  5 RMS(Cart)=  0.00370479 RMS(Int)=  0.03066525
 Iteration  6 RMS(Cart)=  0.00343474 RMS(Int)=  0.02983419
 Iteration  7 RMS(Cart)=  0.00319591 RMS(Int)=  0.02905858
 Iteration  8 RMS(Cart)=  0.00298336 RMS(Int)=  0.02833250
 Iteration  9 RMS(Cart)=  0.00279316 RMS(Int)=  0.02765089
 Iteration 10 RMS(Cart)=  0.00262209 RMS(Int)=  0.02700941
 Iteration 11 RMS(Cart)=  0.00246752 RMS(Int)=  0.02640429
 Iteration 12 RMS(Cart)=  0.00232727 RMS(Int)=  0.02583226
 Iteration 13 RMS(Cart)=  0.00219945 RMS(Int)=  0.02529044
 Iteration 14 RMS(Cart)=  0.00208258 RMS(Int)=  0.02477631
 Iteration 15 RMS(Cart)=  0.00197531 RMS(Int)=  0.02428765
 Iteration 16 RMS(Cart)=  0.00187652 RMS(Int)=  0.02382246
 Iteration 17 RMS(Cart)=  0.00178524 RMS(Int)=  0.02337898
 Iteration 18 RMS(Cart)=  0.00170060 RMS(Int)=  0.02295564
 Iteration 19 RMS(Cart)=  0.00162184 RMS(Int)=  0.02255100
 Iteration 20 RMS(Cart)=  0.00154825 RMS(Int)=  0.02216378
 Iteration 21 RMS(Cart)=  0.00147916 RMS(Int)=  0.02179278
 Iteration 22 RMS(Cart)=  0.00141383 RMS(Int)=  0.02143682
 Iteration 23 RMS(Cart)=  0.00135135 RMS(Int)=  0.02109459
 Iteration 24 RMS(Cart)=  0.00129022 RMS(Int)=  0.02076357
 Iteration 25 RMS(Cart)=  0.00122623 RMS(Int)=  0.02041881
 Iteration 26 RMS(Cart)=  0.00110960 RMS(Int)=  0.30296816
 Iteration 27 RMS(Cart)=  0.08673404 RMS(Int)=  0.29927862
 Iteration 28 RMS(Cart)=  0.00444422 RMS(Int)=  0.28209923
 Iteration 29 RMS(Cart)=  0.00268003 RMS(Int)=  0.26334600
 Iteration 30 RMS(Cart)=  0.00386872 RMS(Int)=  0.24393367
 Iteration 31 RMS(Cart)=  0.00439518 RMS(Int)=  0.22519811
 Iteration 32 RMS(Cart)=  0.00208373 RMS(Int)=  0.21533808
 Iteration 33 RMS(Cart)=  0.00030601 RMS(Int)=  0.21361638
 Iteration 34 RMS(Cart)=  0.00024259 RMS(Int)=  0.21202984
 Iteration 35 RMS(Cart)=  0.00019755 RMS(Int)=  0.21049497
 Iteration 36 RMS(Cart)=  0.00015841 RMS(Int)=  0.20897463
 Iteration 37 RMS(Cart)=  0.00012304 RMS(Int)=  0.20744398
 Iteration 38 RMS(Cart)=  0.00009201 RMS(Int)=  0.20587744
 Iteration 39 RMS(Cart)=  0.00006820 RMS(Int)=  0.20423552
 Iteration 40 RMS(Cart)=  0.00006329 RMS(Int)=  0.20243328
 Iteration 41 RMS(Cart)=  0.00008505 RMS(Int)=  0.20018078
 Iteration 42 RMS(Cart)=  0.00013003 RMS(Int)=  0.19264464
 Iteration 43 RMS(Cart)=  0.00031617 RMS(Int)=  0.11225204
 Iteration 44 RMS(Cart)=  0.00035892 RMS(Int)=  0.18911801
 Iteration 45 RMS(Cart)=  0.00041837 RMS(Int)=  0.11557205
 Iteration 46 RMS(Cart)=  0.00037483 RMS(Int)=  0.18240112
 Iteration 47 RMS(Cart)=  0.00061577 RMS(Int)=  0.12252698
 Iteration 48 RMS(Cart)=  0.00036837 RMS(Int)=  0.11890021
 Iteration 49 RMS(Cart)=  0.00034954 RMS(Int)=  0.18509228
 Iteration 50 RMS(Cart)=  0.00054201 RMS(Int)=  0.11933206
 Iteration 51 RMS(Cart)=  0.00037139 RMS(Int)=  0.14045105
 Iteration 52 RMS(Cart)=  0.00166815 RMS(Int)=  0.16452544
 Iteration 53 RMS(Cart)=  0.00523743 RMS(Int)=  0.15970788
 Iteration 54 RMS(Cart)=  0.00184951 RMS(Int)=  0.14036182
 Iteration 55 RMS(Cart)=  0.00109927 RMS(Int)=  0.13652320
 Iteration 56 RMS(Cart)=  0.00053737 RMS(Int)=  0.13476371
 Iteration 57 RMS(Cart)=  0.00047850 RMS(Int)=  0.13316647
 Iteration 58 RMS(Cart)=  0.00044955 RMS(Int)=  0.13161910
 Iteration 59 RMS(Cart)=  0.00042861 RMS(Int)=  0.13007739
 Iteration 60 RMS(Cart)=  0.00041359 RMS(Int)=  0.12850828
 Iteration 61 RMS(Cart)=  0.00039872 RMS(Int)=  0.12686968
 Iteration 62 RMS(Cart)=  0.00038422 RMS(Int)=  0.12507684
 Iteration 63 RMS(Cart)=  0.00036965 RMS(Int)=  0.12284888
 Iteration 64 RMS(Cart)=  0.00035545 RMS(Int)=  0.11591588
 Iteration 65 RMS(Cart)=  0.00035053 RMS(Int)=  0.18896604
 Iteration 66 RMS(Cart)=  0.00041969 RMS(Int)=  0.11360689
 Iteration 67 RMS(Cart)=  0.00035430 RMS(Int)=  0.19076445
 Iteration 68 RMS(Cart)=  0.00031306 RMS(Int)=  0.11249638
 Iteration 69 RMS(Cart)=  0.00034753 RMS(Int)=  0.19178237
 Iteration 70 RMS(Cart)=  0.00033697 RMS(Int)=  0.11136365
 Iteration 71 RMS(Cart)=  0.00033903 RMS(Int)=  0.19303399
 Iteration 72 RMS(Cart)=  0.00030073 RMS(Int)=  0.10920705
 Iteration 73 RMS(Cart)=  0.00031231 RMS(Int)=  0.19548588
 Iteration 74 RMS(Cart)=  0.00023367 RMS(Int)=  0.09308753
 New curvilinear step failed, DQL= 3.14D+00 SP=-9.97D-01.
 ITry= 2 IFail=1 DXMaxC= 5.93D-01 DCOld= 1.00D+10 DXMaxT= 3.00D-01 DXLimC= 3.00D+00 Rises=F
 Iteration  1 RMS(Cart)=  0.01563873 RMS(Int)=  0.03194050
 Iteration  2 RMS(Cart)=  0.00393857 RMS(Int)=  0.03103195
 Iteration  3 RMS(Cart)=  0.00364890 RMS(Int)=  0.03018745
 Iteration  4 RMS(Cart)=  0.00339332 RMS(Int)=  0.02939970
 Iteration  5 RMS(Cart)=  0.00316636 RMS(Int)=  0.02866253
 Iteration  6 RMS(Cart)=  0.00296363 RMS(Int)=  0.02797070
 Iteration  7 RMS(Cart)=  0.00278166 RMS(Int)=  0.02731971
 Iteration  8 RMS(Cart)=  0.00261755 RMS(Int)=  0.02670568
 Iteration  9 RMS(Cart)=  0.00246891 RMS(Int)=  0.02612521
 Iteration 10 RMS(Cart)=  0.00233372 RMS(Int)=  0.02557536
 Iteration 11 RMS(Cart)=  0.00221035 RMS(Int)=  0.02505353
 Iteration 12 RMS(Cart)=  0.00209743 RMS(Int)=  0.02455740
 Iteration 13 RMS(Cart)=  0.00199361 RMS(Int)=  0.02408497
 Iteration 14 RMS(Cart)=  0.00189801 RMS(Int)=  0.02363441
 Iteration 15 RMS(Cart)=  0.00180970 RMS(Int)=  0.02320409
 Iteration 16 RMS(Cart)=  0.00172792 RMS(Int)=  0.02279257
 Iteration 17 RMS(Cart)=  0.00165203 RMS(Int)=  0.02239851
 Iteration 18 RMS(Cart)=  0.00158136 RMS(Int)=  0.02202075
 Iteration 19 RMS(Cart)=  0.00151551 RMS(Int)=  0.02165820
 Iteration 20 RMS(Cart)=  0.00145399 RMS(Int)=  0.02130989
 Iteration 21 RMS(Cart)=  0.00139641 RMS(Int)=  0.02097493
 Iteration 22 RMS(Cart)=  0.00134241 RMS(Int)=  0.02065251
 Iteration 23 RMS(Cart)=  0.00129169 RMS(Int)=  0.02034188
 Iteration 24 RMS(Cart)=  0.00124397 RMS(Int)=  0.02004236
 Iteration 25 RMS(Cart)=  0.00119900 RMS(Int)=  0.01975332
 Iteration 26 RMS(Cart)=  0.00115655 RMS(Int)=  0.01947419
 Iteration 27 RMS(Cart)=  0.00111642 RMS(Int)=  0.01920442
 Iteration 28 RMS(Cart)=  0.00107844 RMS(Int)=  0.01894354
 Iteration 29 RMS(Cart)=  0.00104242 RMS(Int)=  0.01869108
 Iteration 30 RMS(Cart)=  0.00100821 RMS(Int)=  0.01844662
 Iteration 31 RMS(Cart)=  0.00097568 RMS(Int)=  0.01820976
 Iteration 32 RMS(Cart)=  0.00094469 RMS(Int)=  0.01798015
 Iteration 33 RMS(Cart)=  0.00091511 RMS(Int)=  0.01775743
 Iteration 34 RMS(Cart)=  0.00088681 RMS(Int)=  0.01754128
 Iteration 35 RMS(Cart)=  0.00085966 RMS(Int)=  0.01733141
 Iteration 36 RMS(Cart)=  0.00083352 RMS(Int)=  0.01712750
 Iteration 37 RMS(Cart)=  0.00080821 RMS(Int)=  0.01692923
 Iteration 38 RMS(Cart)=  0.00078346 RMS(Int)=  0.01673619
 Iteration 39 RMS(Cart)=  0.00075879 RMS(Int)=  0.01654750
 Iteration 40 RMS(Cart)=  0.00073281 RMS(Int)=  0.01635736
 Iteration 41 RMS(Cart)=  0.00069600 RMS(Int)=  0.30322055
 Iteration 42 RMS(Cart)=  0.07090696 RMS(Int)=  0.30062500
 Iteration 43 RMS(Cart)=  0.00301160 RMS(Int)=  0.28333439
 Iteration 44 RMS(Cart)=  0.00202434 RMS(Int)=  0.26451180
 Iteration 45 RMS(Cart)=  0.00291646 RMS(Int)=  0.24510403
 Iteration 46 RMS(Cart)=  0.00315864 RMS(Int)=  0.22661923
 Iteration 47 RMS(Cart)=  0.00122920 RMS(Int)=  0.21873027
 Iteration 48 RMS(Cart)=  0.00023346 RMS(Int)=  0.21695437
 Iteration 49 RMS(Cart)=  0.00018301 RMS(Int)=  0.21535021
 Iteration 50 RMS(Cart)=  0.00014882 RMS(Int)=  0.21380778
 Iteration 51 RMS(Cart)=  0.00011970 RMS(Int)=  0.21228456
 Iteration 52 RMS(Cart)=  0.00009438 RMS(Int)=  0.21075575
 Iteration 53 RMS(Cart)=  0.00007147 RMS(Int)=  0.20919625
 Iteration 54 RMS(Cart)=  0.00005276 RMS(Int)=  0.20757032
 Iteration 55 RMS(Cart)=  0.00004492 RMS(Int)=  0.20580525
 Iteration 56 RMS(Cart)=  0.00005585 RMS(Int)=  0.20367698
 Iteration 57 RMS(Cart)=  0.00008371 RMS(Int)=  0.19914363
 Iteration 58 RMS(Cart)=  0.00015787 RMS(Int)=  0.10537500
 Iteration 59 RMS(Cart)=  0.00018945 RMS(Int)=  0.19854155
 Iteration 60 RMS(Cart)=  0.00016588 RMS(Int)=  0.10423953
 Iteration 61 RMS(Cart)=  0.00021902 RMS(Int)=  0.20050449
 Iteration 62 RMS(Cart)=  0.00013001 RMS(Int)=  0.19148995
 Iteration 63 RMS(Cart)=  0.00030836 RMS(Int)=  0.11344584
 Iteration 64 RMS(Cart)=  0.00029752 RMS(Int)=  0.17155848
 Iteration 65 RMS(Cart)=  0.00064090 RMS(Int)=  0.13346239
 Iteration 66 RMS(Cart)=  0.00016263 RMS(Int)=  0.13176513
 Iteration 67 RMS(Cart)=  0.00017169 RMS(Int)=  0.12972946
 Iteration 68 RMS(Cart)=  0.00015581 RMS(Int)=  0.12656692
 Iteration 69 RMS(Cart)=  0.00015329 RMS(Int)=  0.12469047
 Iteration 70 RMS(Cart)=  0.00003398 RMS(Int)=  0.12271271
 Iteration 71 RMS(Cart)=  0.00002343 RMS(Int)=  0.12083739
 Iteration 72 RMS(Cart)=  0.00001777 RMS(Int)=  0.11901535
 Iteration 73 RMS(Cart)=  0.00001888 RMS(Int)=  0.11582869
 Iteration 74 RMS(Cart)=  0.00009150 RMS(Int)=  0.11508743
 Iteration 75 RMS(Cart)=  0.00028024 RMS(Int)=  0.18906850
 Iteration 76 RMS(Cart)=  0.00036590 RMS(Int)=  0.11508847
 Iteration 77 RMS(Cart)=  0.00026288 RMS(Int)=  0.18619982
 Iteration 78 RMS(Cart)=  0.00043035 RMS(Int)=  0.11863013
 Iteration 79 RMS(Cart)=  0.00029645 RMS(Int)=  0.11264961
 Iteration 80 RMS(Cart)=  0.00027494 RMS(Int)=  0.19213058
 Iteration 81 RMS(Cart)=  0.00029685 RMS(Int)=  0.11021647
 Iteration 82 RMS(Cart)=  0.00026591 RMS(Int)=  0.19429731
 Iteration 83 RMS(Cart)=  0.00024781 RMS(Int)=  0.10802120
 Iteration 84 RMS(Cart)=  0.00025274 RMS(Int)=  0.19662052
 Iteration 85 RMS(Cart)=  0.00019990 RMS(Int)=  0.10128515
 Iteration 86 RMS(Cart)=  0.00018081 RMS(Int)=  0.20371048
 Iteration 87 RMS(Cart)=  0.00007901 RMS(Int)=  0.20052596
 Iteration 88 RMS(Cart)=  0.00013027 RMS(Int)=  0.10275921
 Iteration 89 RMS(Cart)=  0.00019831 RMS(Int)=  0.20196165
 Iteration 90 RMS(Cart)=  0.00010518 RMS(Int)=  0.19537527
 Iteration 91 RMS(Cart)=  0.00022578 RMS(Int)=  0.10945338
 Iteration 92 RMS(Cart)=  0.00027896 RMS(Int)=  0.19292275
 Iteration 93 RMS(Cart)=  0.00026646 RMS(Int)=  0.11151419
 Iteration 94 RMS(Cart)=  0.00028454 RMS(Int)=  0.19149472
 Iteration 95 RMS(Cart)=  0.00030936 RMS(Int)=  0.11292232
 Iteration 96 RMS(Cart)=  0.00028998 RMS(Int)=  0.18913678
 Iteration 97 RMS(Cart)=  0.00035314 RMS(Int)=  0.11553734
 Iteration 98 RMS(Cart)=  0.00029601 RMS(Int)=  0.17380309
 Iteration 99 RMS(Cart)=  0.00059368 RMS(Int)=  0.13121177
 Iteration100 RMS(Cart)=  0.00019168 RMS(Int)=  0.12938037
 New curvilinear step not converged.
 ITry= 3 IFail=1 DXMaxC= 5.74D-01 DCOld= 1.00D+10 DXMaxT= 3.00D-01 DXLimC= 3.00D+00 Rises=F
 Iteration  1 RMS(Cart)=  0.01481994 RMS(Int)=  0.02934156
 Iteration  2 RMS(Cart)=  0.00320890 RMS(Int)=  0.02862561
 Iteration  3 RMS(Cart)=  0.00300695 RMS(Int)=  0.02795295
 Iteration  4 RMS(Cart)=  0.00282546 RMS(Int)=  0.02731934
 Iteration  5 RMS(Cart)=  0.00266159 RMS(Int)=  0.02672108
 Iteration  6 RMS(Cart)=  0.00251303 RMS(Int)=  0.02615498
 Iteration  7 RMS(Cart)=  0.00237783 RMS(Int)=  0.02561822
 Iteration  8 RMS(Cart)=  0.00225432 RMS(Int)=  0.02510833
 Iteration  9 RMS(Cart)=  0.00214115 RMS(Int)=  0.02462313
 Iteration 10 RMS(Cart)=  0.00203713 RMS(Int)=  0.02416068
 Iteration 11 RMS(Cart)=  0.00194122 RMS(Int)=  0.02371925
 Iteration 12 RMS(Cart)=  0.00185257 RMS(Int)=  0.02329729
 Iteration 13 RMS(Cart)=  0.00177043 RMS(Int)=  0.02289341
 Iteration 14 RMS(Cart)=  0.00169412 RMS(Int)=  0.02250636
 Iteration 15 RMS(Cart)=  0.00162313 RMS(Int)=  0.02213500
 Iteration 16 RMS(Cart)=  0.00155689 RMS(Int)=  0.02177831
 Iteration 17 RMS(Cart)=  0.00149501 RMS(Int)=  0.02143534
 Iteration 18 RMS(Cart)=  0.00143706 RMS(Int)=  0.02110525
 Iteration 19 RMS(Cart)=  0.00138271 RMS(Int)=  0.02078725
 Iteration 20 RMS(Cart)=  0.00133166 RMS(Int)=  0.02048063
 Iteration 21 RMS(Cart)=  0.00128362 RMS(Int)=  0.02018474
 Iteration 22 RMS(Cart)=  0.00123836 RMS(Int)=  0.01989897
 Iteration 23 RMS(Cart)=  0.00119565 RMS(Int)=  0.01962276
 Iteration 24 RMS(Cart)=  0.00115530 RMS(Int)=  0.01935559
 Iteration 25 RMS(Cart)=  0.00111713 RMS(Int)=  0.01909700
 Iteration 26 RMS(Cart)=  0.00108099 RMS(Int)=  0.01884653
 Iteration 27 RMS(Cart)=  0.00104667 RMS(Int)=  0.01860379
 Iteration 28 RMS(Cart)=  0.00101412 RMS(Int)=  0.01836839
 Iteration 29 RMS(Cart)=  0.00098318 RMS(Int)=  0.01813996
 Iteration 30 RMS(Cart)=  0.00095374 RMS(Int)=  0.01791819
 Iteration 31 RMS(Cart)=  0.00092571 RMS(Int)=  0.01770275
 Iteration 32 RMS(Cart)=  0.00089899 RMS(Int)=  0.01749337
 Iteration 33 RMS(Cart)=  0.00087349 RMS(Int)=  0.01728976
 Iteration 34 RMS(Cart)=  0.00084915 RMS(Int)=  0.01709168
 Iteration 35 RMS(Cart)=  0.00082588 RMS(Int)=  0.01689888
 Iteration 36 RMS(Cart)=  0.00080363 RMS(Int)=  0.01671114
 Iteration 37 RMS(Cart)=  0.00078233 RMS(Int)=  0.01652824
 Iteration 38 RMS(Cart)=  0.00076192 RMS(Int)=  0.01635000
 Iteration 39 RMS(Cart)=  0.00074236 RMS(Int)=  0.01617621
 Iteration 40 RMS(Cart)=  0.00072359 RMS(Int)=  0.01600670
 Iteration 41 RMS(Cart)=  0.00070557 RMS(Int)=  0.01584131
 Iteration 42 RMS(Cart)=  0.00068826 RMS(Int)=  0.01567988
 Iteration 43 RMS(Cart)=  0.00067162 RMS(Int)=  0.01552225
 Iteration 44 RMS(Cart)=  0.00065561 RMS(Int)=  0.01536829
 Iteration 45 RMS(Cart)=  0.00064021 RMS(Int)=  0.01521785
 Iteration 46 RMS(Cart)=  0.00062537 RMS(Int)=  0.01507081
 Iteration 47 RMS(Cart)=  0.00061107 RMS(Int)=  0.01492706
 Iteration 48 RMS(Cart)=  0.00059729 RMS(Int)=  0.01478646
 Iteration 49 RMS(Cart)=  0.00058399 RMS(Int)=  0.01464892
 Iteration 50 RMS(Cart)=  0.00057116 RMS(Int)=  0.01451433
 Iteration 51 RMS(Cart)=  0.00055876 RMS(Int)=  0.01438259
 Iteration 52 RMS(Cart)=  0.00054678 RMS(Int)=  0.01425361
 Iteration 53 RMS(Cart)=  0.00053521 RMS(Int)=  0.01412729
 Iteration 54 RMS(Cart)=  0.00052401 RMS(Int)=  0.01400355
 Iteration 55 RMS(Cart)=  0.00051317 RMS(Int)=  0.01388230
 Iteration 56 RMS(Cart)=  0.00050268 RMS(Int)=  0.01376347
 Iteration 57 RMS(Cart)=  0.00049251 RMS(Int)=  0.01364699
 Iteration 58 RMS(Cart)=  0.00048266 RMS(Int)=  0.01353278
 Iteration 59 RMS(Cart)=  0.00047310 RMS(Int)=  0.01342077
 Iteration 60 RMS(Cart)=  0.00046383 RMS(Int)=  0.01331090
 Iteration 61 RMS(Cart)=  0.00045483 RMS(Int)=  0.01320310
 Iteration 62 RMS(Cart)=  0.00044609 RMS(Int)=  0.01309731
 Iteration 63 RMS(Cart)=  0.00043759 RMS(Int)=  0.01299349
 Iteration 64 RMS(Cart)=  0.00042942 RMS(Int)=  0.01289154
 Iteration 65 RMS(Cart)=  0.00042135 RMS(Int)=  0.01279144
 Iteration 66 RMS(Cart)=  0.00041348 RMS(Int)=  0.01269315
 Iteration 67 RMS(Cart)=  0.00040580 RMS(Int)=  0.01259661
 Iteration 68 RMS(Cart)=  0.00039829 RMS(Int)=  0.01250177
 Iteration 69 RMS(Cart)=  0.00039093 RMS(Int)=  0.01240859
 Iteration 70 RMS(Cart)=  0.00038368 RMS(Int)=  0.01231702
 Iteration 71 RMS(Cart)=  0.00037667 RMS(Int)=  0.01222696
 Iteration 72 RMS(Cart)=  0.00036962 RMS(Int)=  0.01213833
 Iteration 73 RMS(Cart)=  0.00036251 RMS(Int)=  0.01205095
 Iteration 74 RMS(Cart)=  0.00035507 RMS(Int)=  0.01196400
 Iteration 75 RMS(Cart)=  0.00034625 RMS(Int)=  0.30346284
 Iteration 76 RMS(Cart)=  0.05147892 RMS(Int)=  0.30194005
 Iteration 77 RMS(Cart)=  0.00152345 RMS(Int)=  0.28636657
 Iteration 78 RMS(Cart)=  0.00126210 RMS(Int)=  0.26763820
slurmstepd: error: *** JOB 27447060 ON lewis4-r630-hpc4-node295 CANCELLED AT 2023-05-16T03:09:29 DUE TO TIME LIMIT ***
