### Starting Gaussian ###
 Entering Gaussian System, Link 0=g16
 Initial command:
 /cluster/software/gaussian/gaussian-16-A.03/avx2/g16/l1.exe "/local/scratch/yxie/Gau-19297.inp" -scrdir="/local/scratch/yxie/"
 Entering Link 1 = /cluster/software/gaussian/gaussian-16-A.03/avx2/g16/l1.exe PID=     19298.
  
 Copyright (c) 1988,1990,1992,1993,1995,1998,2003,2009,2016,
            Gaussian, Inc.  All Rights Reserved.
  
 This is part of the Gaussian(R) 16 program.  It is based on
 the Gaussian(R) 09 system (copyright 2009, Gaussian, Inc.),
 the Gaussian(R) 03 system (copyright 2003, Gaussian, Inc.),
 the Gaussian(R) 98 system (copyright 1998, Gaussian, Inc.),
 the Gaussian(R) 94 system (copyright 1995, Gaussian, Inc.),
 the Gaussian 92(TM) system (copyright 1992, Gaussian, Inc.),
 the Gaussian 90(TM) system (copyright 1990, Gaussian, Inc.),
 the Gaussian 88(TM) system (copyright 1988, Gaussian, Inc.),
 the Gaussian 86(TM) system (copyright 1986, Carnegie Mellon
 University), and the Gaussian 82(TM) system (copyright 1983,
 Carnegie Mellon University). Gaussian is a federally registered
 trademark of Gaussian, Inc.
  
 This software contains proprietary and confidential information,
 including trade secrets, belonging to Gaussian, Inc.
  
 This software is provided under written license and may be
 used, copied, transmitted, or stored only in accord with that
 written license.
  
 The following legend is applicable only to US Government
 contracts under FAR:
  
                    RESTRICTED RIGHTS LEGEND
  
 Use, reproduction and disclosure by the US Government is
 subject to restrictions as set forth in subparagraphs (a)
 and (c) of the Commercial Computer Software - Restricted
 Rights clause in FAR 52.227-19.
  
 Gaussian, Inc.
 340 Quinnipiac St., Bldg. 40, Wallingford CT 06492
  
  
 ---------------------------------------------------------------
 Warning -- This program may not be used in any manner that
 competes with the business of Gaussian, Inc. or will provide
 assistance to any competitor of Gaussian, Inc.  The licensee
 of this program is prohibited from giving any competitor of
 Gaussian, Inc. access to this program.  By using this program,
 the user acknowledges that Gaussian, Inc. is engaged in the
 business of creating and licensing software in the field of
 computational chemistry and represents and warrants to the
 licensee that it is not a competitor of Gaussian, Inc. and that
 it will not use this program in any manner prohibited above.
 ---------------------------------------------------------------
  

 Cite this work as:
 Gaussian 16, Revision A.03,
 M. J. Frisch, G. W. Trucks, H. B. Schlegel, G. E. Scuseria, 
 M. A. Robb, J. R. Cheeseman, G. Scalmani, V. Barone, 
 G. A. Petersson, H. Nakatsuji, X. Li, M. Caricato, A. V. Marenich, 
 J. Bloino, B. G. Janesko, R. Gomperts, B. Mennucci, H. P. Hratchian, 
 J. V. Ortiz, A. F. Izmaylov, J. L. Sonnenberg, D. Williams-Young, 
 F. Ding, F. Lipparini, F. Egidi, J. Goings, B. Peng, A. Petrone, 
 T. Henderson, D. Ranasinghe, V. G. Zakrzewski, J. Gao, N. Rega, 
 G. Zheng, W. Liang, M. Hada, M. Ehara, K. Toyota, R. Fukuda, 
 J. Hasegawa, M. Ishida, T. Nakajima, Y. Honda, O. Kitao, H. Nakai, 
 T. Vreven, K. Throssell, J. A. Montgomery, Jr., J. E. Peralta, 
 F. Ogliaro, M. J. Bearpark, J. J. Heyd, E. N. Brothers, K. N. Kudin, 
 V. N. Staroverov, T. A. Keith, R. Kobayashi, J. Normand, 
 K. Raghavachari, A. P. Rendell, J. C. Burant, S. S. Iyengar, 
 J. Tomasi, M. Cossi, J. M. Millam, M. Klene, C. Adamo, R. Cammi, 
 J. W. Ochterski, R. L. Martin, K. Morokuma, O. Farkas, 
 J. B. Foresman, and D. J. Fox, Gaussian, Inc., Wallingford CT, 2016.
 
 ******************************************
 Gaussian 16:  ES64L-G16RevA.03 25-Dec-2016
                16-May-2023 
 ******************************************
 %chk=Sdc1ccc2cqcc1rdCCdCCCCSCSCdCd2.chk
 %NProcShared=20
 Will use up to   20 processors via shared memory.
 -----------------------------
 # opt freq b3lyp/6-31g(2df,p)
 -----------------------------
 1/18=20,19=15,26=3,38=1/1,3;
 2/9=110,12=2,17=6,18=5,40=1/2;
 3/5=1,6=6,7=104,11=2,25=1,30=1,71=1,74=-5/1,2,3;
 4//1;
 5/5=2,38=5/2;
 6/7=2,8=2,9=2,10=2,28=1/1;
 7//1,2,3,16;
 1/18=20,19=15,26=3/3(2);
 2/9=110/2;
 99//99;
 2/9=110/2;
 3/5=1,6=6,7=104,11=2,25=1,30=1,71=1,74=-5/1,2,3;
 4/5=5,16=3,69=1/1;
 5/5=2,38=5/2;
 7//1,2,3,16;
 1/18=20,19=15,26=3/3(-5);
 2/9=110/2;
 6/7=2,8=2,9=2,10=2,19=2,28=1/1;
 99/9=1/99;
 -------------------
 Title Card Required
 -------------------
 Symbolic Z-matrix:
 Charge =  0 Multiplicity = 1
 S                     1.13577   0.03543   0.08319 
 C                     3.18726  -0.216    -0.10832 
 C                     4.71966  -1.52648  -1.10652 
 C                     6.62347  -2.28341  -1.68307 
 C                     8.66701  -3.51674  -2.62251 
 C                     7.41772  -1.99652  -1.46455 
 C                     6.63913  -0.32651  -0.19249 
 C                     4.91862   0.47594   0.41873 
 C                     7.97044  -3.05686  -2.27221 
 C                     9.8218   -2.57129  -1.90236 
 C                     10.1715  -3.47096  -2.58764 
 C                     11.91092  -3.52118  -2.62589 
 C                     11.57248  -5.36834  -4.03288 
 C                     12.70585  -4.30228  -3.22086 
 S                     12.28255  -6.57929  -4.95527 
 C                     14.35655  -6.15291  -4.63048 
 S                     14.83552  -7.0016   -5.27696 
 C                     12.9559  -5.34688  -4.01654 
 C                     10.86681  -4.46995  -3.34858 
 H                     3.05329  -1.69067  -1.23159 
 H                     5.56931  -1.09508  -0.77792 
 H                     8.15842  -0.58779  -0.39152 
 H                     3.67747   1.42826   1.14413 
 H                     7.1675   -3.81749  -2.8516 
 H                     9.76523  -1.88951  -1.38304 
 H                     9.78845  -4.98225  -3.7388 
 H                     11.7775  -3.97211  -1.69446 
 H                     11.7775  -2.74301  -3.30807 
 H                     11.50826  -4.78748  -4.87488 
 H                     11.50826  -6.02576  -3.2492 
 H                     13.74413  -5.05393  -2.6229 
 H                     13.74413  -3.92549  -4.10436 
 H                     15.8209  -6.48589  -3.83124 
 H                     15.8209  -5.47084  -5.16384 
 H                     14.8828  -5.30633  -3.98565 
 
 Add virtual bond connecting atoms H31        and C14        Dist= 2.67D+00.
 Add virtual bond connecting atoms H32        and C14        Dist= 2.67D+00.
 Add virtual bond connecting atoms H21        and C7         Dist= 2.72D+00.
 Add virtual bond connecting atoms H35        and H34        Dist= 2.86D+00.
 Add virtual bond connecting atoms H35        and H33        Dist= 2.86D+00.
 Add virtual bond connecting atoms H22        and C7         Dist= 2.94D+00.
 Add virtual bond connecting atoms H20        and C3         Dist= 3.17D+00.
 Add virtual bond connecting atoms H23        and C8         Dist= 3.26D+00.
 Add virtual bond connecting atoms H21        and C4         Dist= 3.45D+00.
 Add virtual bond connecting atoms H22        and C6         Dist= 3.63D+00.
 Add virtual bond connecting atoms H20        and C2         Dist= 3.51D+00.
 Add virtual bond connecting atoms C8         and C2         Dist= 3.66D+00.
 Add virtual bond connecting atoms C8         and C7         Dist= 3.77D+00.
 Add virtual bond connecting atoms C8         and H21        Dist= 3.93D+00.

 GradGradGradGradGradGradGradGradGradGradGradGradGradGradGradGradGradGrad
 Berny optimization.
 Initialization pass.
                           ----------------------------
                           !    Initial Parameters    !
                           ! (Angstroms and Degrees)  !
 --------------------------                            --------------------------
 ! Name  Definition              Value          Derivative Info.                !
 --------------------------------------------------------------------------------
 ! R1    R(1,2)                  2.0757         estimate D2E/DX2                !
 ! R2    R(2,8)                  1.9376         estimate D2E/DX2                !
 ! R3    R(2,20)                 1.8586         estimate D2E/DX2                !
 ! R4    R(3,20)                 1.6791         estimate D2E/DX2                !
 ! R5    R(3,21)                 1.008          estimate D2E/DX2                !
 ! R6    R(4,6)                  0.8723         estimate D2E/DX2                !
 ! R7    R(4,9)                  1.6612         estimate D2E/DX2                !
 ! R8    R(4,21)                 1.8283         estimate D2E/DX2                !
 ! R9    R(5,9)                  0.9052         estimate D2E/DX2                !
 ! R10   R(5,10)                 1.6571         estimate D2E/DX2                !
 ! R11   R(5,11)                 1.5056         estimate D2E/DX2                !
 ! R12   R(6,9)                  1.443          estimate D2E/DX2                !
 ! R13   R(6,22)                 1.9195         estimate D2E/DX2                !
 ! R14   R(7,8)                  1.9944         estimate D2E/DX2                !
 ! R15   R(7,21)                 1.4415         estimate D2E/DX2                !
 ! R16   R(7,22)                 1.5544         estimate D2E/DX2                !
 ! R17   R(8,21)                 2.0793         estimate D2E/DX2                !
 ! R18   R(8,23)                 1.7244         estimate D2E/DX2                !
 ! R19   R(9,24)                 1.2486         estimate D2E/DX2                !
 ! R20   R(10,11)                1.1838         estimate D2E/DX2                !
 ! R21   R(10,25)                0.8589         estimate D2E/DX2                !
 ! R22   R(11,12)                1.7406         estimate D2E/DX2                !
 ! R23   R(11,19)                1.4354         estimate D2E/DX2                !
 ! R24   R(12,14)                1.2633         estimate D2E/DX2                !
 ! R25   R(12,19)                1.5851         estimate D2E/DX2                !
 ! R26   R(12,27)                1.0434         estimate D2E/DX2                !
 ! R27   R(12,28)                1.0434         estimate D2E/DX2                !
 ! R28   R(13,14)                1.7551         estimate D2E/DX2                !
 ! R29   R(13,15)                1.6797         estimate D2E/DX2                !
 ! R30   R(13,18)                1.3837         estimate D2E/DX2                !
 ! R31   R(13,19)                1.3317         estimate D2E/DX2                !
 ! R32   R(13,29)                1.0249         estimate D2E/DX2                !
 ! R33   R(13,30)                1.0249         estimate D2E/DX2                !
 ! R34   R(14,18)                1.3367         estimate D2E/DX2                !
 ! R35   R(14,31)                1.4144         estimate D2E/DX2                !
 ! R36   R(14,32)                1.4144         estimate D2E/DX2                !
 ! R37   R(15,16)                2.1421         estimate D2E/DX2                !
 ! R38   R(15,18)                1.6892         estimate D2E/DX2                !
 ! R39   R(16,17)                1.1695         estimate D2E/DX2                !
 ! R40   R(16,18)                1.7287         estimate D2E/DX2                !
 ! R41   R(16,35)                1.1872         estimate D2E/DX2                !
 ! R42   R(19,26)                1.256          estimate D2E/DX2                !
 ! R43   R(33,35)                1.515          estimate D2E/DX2                !
 ! R44   R(34,35)                1.515          estimate D2E/DX2                !
 ! A1    A(1,2,8)              144.5675         estimate D2E/DX2                !
 ! A2    A(1,2,20)              94.6247         estimate D2E/DX2                !
 ! A3    A(8,2,20)             120.8077         estimate D2E/DX2                !
 ! A4    A(20,3,21)            154.5125         estimate D2E/DX2                !
 ! A5    A(6,4,21)             100.7896         estimate D2E/DX2                !
 ! A6    A(9,4,21)             161.0329         estimate D2E/DX2                !
 ! A7    A(9,5,10)              94.4861         estimate D2E/DX2                !
 ! A8    A(9,5,11)             138.1194         estimate D2E/DX2                !
 ! A9    A(4,6,22)             137.119          estimate D2E/DX2                !
 ! A10   A(9,6,22)             134.7793         estimate D2E/DX2                !
 ! A11   A(8,7,22)             161.8162         estimate D2E/DX2                !
 ! A12   A(21,7,22)            125.7163         estimate D2E/DX2                !
 ! A13   A(2,8,7)              122.9431         estimate D2E/DX2                !
 ! A14   A(2,8,21)              81.5622         estimate D2E/DX2                !
 ! A15   A(2,8,23)              70.6399         estimate D2E/DX2                !
 ! A16   A(21,8,23)            152.202          estimate D2E/DX2                !
 ! A17   A(4,9,24)              85.8006         estimate D2E/DX2                !
 ! A18   A(5,9,6)              152.2126         estimate D2E/DX2                !
 ! A19   A(5,9,24)              90.3318         estimate D2E/DX2                !
 ! A20   A(6,9,24)             117.4556         estimate D2E/DX2                !
 ! A21   A(5,10,25)            132.0474         estimate D2E/DX2                !
 ! A22   A(5,11,19)            116.782          estimate D2E/DX2                !
 ! A23   A(10,11,12)           109.2608         estimate D2E/DX2                !
 ! A24   A(11,12,14)           131.0719         estimate D2E/DX2                !
 ! A25   A(11,12,27)            82.2452         estimate D2E/DX2                !
 ! A26   A(11,12,28)            82.2452         estimate D2E/DX2                !
 ! A27   A(14,12,19)            80.1937         estimate D2E/DX2                !
 ! A28   A(14,12,27)           103.5129         estimate D2E/DX2                !
 ! A29   A(14,12,28)           103.5128         estimate D2E/DX2                !
 ! A30   A(19,12,27)            93.6746         estimate D2E/DX2                !
 ! A31   A(19,12,28)            93.6744         estimate D2E/DX2                !
 ! A32   A(27,12,28)           152.8214         estimate D2E/DX2                !
 ! A33   A(14,13,15)           114.7702         estimate D2E/DX2                !
 ! A34   A(14,13,19)            72.2221         estimate D2E/DX2                !
 ! A35   A(14,13,29)            94.3766         estimate D2E/DX2                !
 ! A36   A(14,13,30)            94.3765         estimate D2E/DX2                !
 ! A37   A(15,13,29)            89.0794         estimate D2E/DX2                !
 ! A38   A(15,13,30)            89.08           estimate D2E/DX2                !
 ! A39   A(18,13,19)           120.8827         estimate D2E/DX2                !
 ! A40   A(18,13,29)            93.644          estimate D2E/DX2                !
 ! A41   A(18,13,30)            93.6445         estimate D2E/DX2                !
 ! A42   A(19,13,29)            90.3788         estimate D2E/DX2                !
 ! A43   A(19,13,30)            90.379          estimate D2E/DX2                !
 ! A44   A(12,14,13)           100.7842         estimate D2E/DX2                !
 ! A45   A(12,14,18)           151.788          estimate D2E/DX2                !
 ! A46   A(12,14,31)           126.2543         estimate D2E/DX2                !
 ! A47   A(12,14,32)           126.2542         estimate D2E/DX2                !
 ! A48   A(13,14,31)           110.2941         estimate D2E/DX2                !
 ! A49   A(13,14,32)           110.2943         estimate D2E/DX2                !
 ! A50   A(18,14,31)            72.4849         estimate D2E/DX2                !
 ! A51   A(18,14,32)            72.485          estimate D2E/DX2                !
 ! A52   A(31,14,32)            82.3443         estimate D2E/DX2                !
 ! A53   A(13,15,16)           100.5172         estimate D2E/DX2                !
 ! A54   A(15,16,17)            99.6875         estimate D2E/DX2                !
 ! A55   A(15,16,35)           130.8029         estimate D2E/DX2                !
 ! A56   A(17,16,18)           150.0592         estimate D2E/DX2                !
 ! A57   A(17,16,35)           129.5096         estimate D2E/DX2                !
 ! A58   A(18,16,35)            80.4311         estimate D2E/DX2                !
 ! A59   A(13,18,16)           143.0014         estimate D2E/DX2                !
 ! A60   A(14,18,15)           145.7269         estimate D2E/DX2                !
 ! A61   A(14,18,16)           136.663          estimate D2E/DX2                !
 ! A62   A(11,19,26)            91.8728         estimate D2E/DX2                !
 ! A63   A(12,19,13)           106.8            estimate D2E/DX2                !
 ! A64   A(12,19,26)           162.0457         estimate D2E/DX2                !
 ! A65   A(13,19,26)            91.1543         estimate D2E/DX2                !
 ! A66   A(2,20,3)              78.8056         estimate D2E/DX2                !
 ! A67   A(3,21,4)              92.662          estimate D2E/DX2                !
 ! A68   A(3,21,8)             104.312          estimate D2E/DX2                !
 ! A69   A(4,21,7)              96.8745         estimate D2E/DX2                !
 ! A70   A(4,21,8)             163.026          estimate D2E/DX2                !
 ! A71   A(6,22,7)              79.5006         estimate D2E/DX2                !
 ! A72   A(16,35,33)            76.9755         estimate D2E/DX2                !
 ! A73   A(16,35,34)            76.9762         estimate D2E/DX2                !
 ! A74   A(33,35,34)            67.1264         estimate D2E/DX2                !
 ! A75   L(7,8,23,2,-1)        193.583          estimate D2E/DX2                !
 ! A76   L(4,9,5,24,-1)        176.1324         estimate D2E/DX2                !
 ! A77   L(11,10,25,9,-1)      193.4059         estimate D2E/DX2                !
 ! A78   L(5,11,12,10,-1)      184.269          estimate D2E/DX2                !
 ! A79   L(10,11,19,24,-1)     191.7903         estimate D2E/DX2                !
 ! A80   L(15,13,19,14,-1)     186.9922         estimate D2E/DX2                !
 ! A81   L(29,13,30,14,-1)     188.7531         estimate D2E/DX2                !
 ! A82   L(11,19,13,26,-1)     183.0271         estimate D2E/DX2                !
 ! A83   L(3,21,7,4,-1)        189.5365         estimate D2E/DX2                !
 ! A84   L(7,8,23,2,-2)        179.9993         estimate D2E/DX2                !
 ! A85   L(4,9,5,24,-2)        179.9997         estimate D2E/DX2                !
 ! A86   L(11,10,25,9,-2)      179.9996         estimate D2E/DX2                !
 ! A87   L(5,11,12,10,-2)      179.9999         estimate D2E/DX2                !
 ! A88   L(10,11,19,24,-2)     179.9997         estimate D2E/DX2                !
 ! A89   L(15,13,19,14,-2)     179.9996         estimate D2E/DX2                !
 ! A90   L(29,13,30,14,-2)     177.986          estimate D2E/DX2                !
 ! A91   L(11,19,13,26,-2)     180.0004         estimate D2E/DX2                !
 ! A92   L(3,21,7,4,-2)        180.0002         estimate D2E/DX2                !
 ! D1    D(1,2,8,7)           -180.0            estimate D2E/DX2                !
 ! D2    D(1,2,8,21)          -179.9997         estimate D2E/DX2                !
 ! D3    D(1,2,8,23)             0.0007         estimate D2E/DX2                !
 ! D4    D(20,2,8,7)            -0.0006         estimate D2E/DX2                !
 ! D5    D(20,2,8,21)           -0.0003         estimate D2E/DX2                !
 ! D6    D(20,2,8,23)         -179.9999         estimate D2E/DX2                !
 ! D7    D(1,2,20,3)           180.0            estimate D2E/DX2                !
 ! D8    D(8,2,20,3)             0.0003         estimate D2E/DX2                !
 ! D9    D(21,3,20,2)           -0.0004         estimate D2E/DX2                !
 ! D10   D(20,3,21,4)         -179.9999         estimate D2E/DX2                !
 ! D11   D(20,3,21,8)            0.0002         estimate D2E/DX2                !
 ! D12   D(21,4,6,22)            0.0003         estimate D2E/DX2                !
 ! D13   D(21,4,9,24)         -179.999          estimate D2E/DX2                !
 ! D14   D(6,4,21,3)           179.9997         estimate D2E/DX2                !
 ! D15   D(6,4,21,7)            -0.0006         estimate D2E/DX2                !
 ! D16   D(6,4,21,8)            -0.0006         estimate D2E/DX2                !
 ! D17   D(9,4,21,3)           179.9995         estimate D2E/DX2                !
 ! D18   D(9,4,21,7)            -0.0007         estimate D2E/DX2                !
 ! D19   D(9,4,21,8)            -0.0007         estimate D2E/DX2                !
 ! D20   D(10,5,9,6)             0.001          estimate D2E/DX2                !
 ! D21   D(10,5,9,24)          179.9994         estimate D2E/DX2                !
 ! D22   D(11,5,9,6)             0.0015         estimate D2E/DX2                !
 ! D23   D(11,5,9,24)          179.9998         estimate D2E/DX2                !
 ! D24   D(9,5,10,25)            0.0001         estimate D2E/DX2                !
 ! D25   D(9,5,11,19)          179.9996         estimate D2E/DX2                !
 ! D26   D(9,5,12,14)          179.9995         estimate D2E/DX2                !
 ! D27   D(9,5,12,27)           78.548          estimate D2E/DX2                !
 ! D28   D(9,5,12,28)          -78.5491         estimate D2E/DX2                !
 ! D29   D(22,6,9,5)            -0.0011         estimate D2E/DX2                !
 ! D30   D(22,6,9,24)         -179.9993         estimate D2E/DX2                !
 ! D31   D(4,6,22,7)             0.0001         estimate D2E/DX2                !
 ! D32   D(9,6,22,7)          -179.9996         estimate D2E/DX2                !
 ! D33   D(22,7,8,2)           179.9985         estimate D2E/DX2                !
 ! D34   D(22,7,21,4)            0.0008         estimate D2E/DX2                !
 ! D35   D(8,7,22,6)          -179.9983         estimate D2E/DX2                !
 ! D36   D(21,7,22,6)           -0.0006         estimate D2E/DX2                !
 ! D37   D(2,8,21,3)             0.0001         estimate D2E/DX2                !
 ! D38   D(2,8,21,4)          -179.9996         estimate D2E/DX2                !
 ! D39   D(23,8,21,3)            0.0009         estimate D2E/DX2                !
 ! D40   D(23,8,21,4)         -179.9988         estimate D2E/DX2                !
 ! D41   D(5,10,11,25)        -179.9983         estimate D2E/DX2                !
 ! D42   D(10,11,12,14)       -179.9997         estimate D2E/DX2                !
 ! D43   D(10,11,12,27)         78.8064         estimate D2E/DX2                !
 ! D44   D(10,11,12,28)        -78.8061         estimate D2E/DX2                !
 ! D45   D(5,11,15,16)        -179.9997         estimate D2E/DX2                !
 ! D46   D(5,11,19,26)          -0.0001         estimate D2E/DX2                !
 ! D47   D(11,12,14,13)         -0.0003         estimate D2E/DX2                !
 ! D48   D(11,12,14,18)         -0.0001         estimate D2E/DX2                !
 ! D49   D(11,12,14,31)       -125.2768         estimate D2E/DX2                !
 ! D50   D(11,12,14,32)        125.2765         estimate D2E/DX2                !
 ! D51   D(19,12,14,13)         -0.0003         estimate D2E/DX2                !
 ! D52   D(19,12,14,18)         -0.0001         estimate D2E/DX2                !
 ! D53   D(19,12,14,31)       -125.2769         estimate D2E/DX2                !
 ! D54   D(19,12,14,32)        125.2765         estimate D2E/DX2                !
 ! D55   D(27,12,14,13)         91.4526         estimate D2E/DX2                !
 ! D56   D(27,12,14,18)         91.4528         estimate D2E/DX2                !
 ! D57   D(27,12,14,31)        -33.824          estimate D2E/DX2                !
 ! D58   D(27,12,14,32)       -143.2706         estimate D2E/DX2                !
 ! D59   D(28,12,14,13)        -91.453          estimate D2E/DX2                !
 ! D60   D(28,12,14,18)        -91.4528         estimate D2E/DX2                !
 ! D61   D(28,12,14,31)        143.2705         estimate D2E/DX2                !
 ! D62   D(28,12,14,32)         33.8238         estimate D2E/DX2                !
 ! D63   D(14,12,19,13)          0.0004         estimate D2E/DX2                !
 ! D64   D(14,12,19,26)        179.9992         estimate D2E/DX2                !
 ! D65   D(27,12,19,13)       -103.0917         estimate D2E/DX2                !
 ! D66   D(27,12,19,26)         76.9071         estimate D2E/DX2                !
 ! D67   D(28,12,19,13)        103.0925         estimate D2E/DX2                !
 ! D68   D(28,12,19,26)        -76.9087         estimate D2E/DX2                !
 ! D69   D(15,13,14,12)        180.0            estimate D2E/DX2                !
 ! D70   D(15,13,14,31)        -44.5793         estimate D2E/DX2                !
 ! D71   D(15,13,14,32)         44.5792         estimate D2E/DX2                !
 ! D72   D(19,13,14,12)          0.0004         estimate D2E/DX2                !
 ! D73   D(19,13,14,31)        135.4212         estimate D2E/DX2                !
 ! D74   D(19,13,14,32)       -135.4204         estimate D2E/DX2                !
 ! D75   D(29,13,14,12)         88.9932         estimate D2E/DX2                !
 ! D76   D(29,13,14,31)       -135.586          estimate D2E/DX2                !
 ! D77   D(29,13,14,32)        -46.4275         estimate D2E/DX2                !
 ! D78   D(30,13,14,12)        -88.9928         estimate D2E/DX2                !
 ! D79   D(30,13,14,31)         46.428          estimate D2E/DX2                !
 ! D80   D(30,13,14,32)        135.5864         estimate D2E/DX2                !
 ! D81   D(14,13,15,16)          0.0005         estimate D2E/DX2                !
 ! D82   D(29,13,15,16)         94.3959         estimate D2E/DX2                !
 ! D83   D(30,13,15,16)        -94.3952         estimate D2E/DX2                !
 ! D84   D(16,15,19,12)          0.0            estimate D2E/DX2                !
 ! D85   D(16,15,19,26)       -179.9997         estimate D2E/DX2                !
 ! D86   D(19,13,18,16)        179.9994         estimate D2E/DX2                !
 ! D87   D(29,13,18,16)        -87.375          estimate D2E/DX2                !
 ! D88   D(30,13,18,16)         87.3733         estimate D2E/DX2                !
 ! D89   D(14,13,19,12)         -0.0003         estimate D2E/DX2                !
 ! D90   D(14,13,19,26)       -179.9999         estimate D2E/DX2                !
 ! D91   D(18,13,19,12)         -0.0007         estimate D2E/DX2                !
 ! D92   D(18,13,19,26)        179.9997         estimate D2E/DX2                !
 ! D93   D(29,13,19,12)        -94.4751         estimate D2E/DX2                !
 ! D94   D(29,13,19,26)         85.5253         estimate D2E/DX2                !
 ! D95   D(30,13,19,12)         94.4743         estimate D2E/DX2                !
 ! D96   D(30,13,19,26)        -85.5253         estimate D2E/DX2                !
 ! D97   D(12,14,18,15)         -0.0003         estimate D2E/DX2                !
 ! D98   D(12,14,18,16)       -179.9993         estimate D2E/DX2                !
 ! D99   D(31,14,18,15)        136.3436         estimate D2E/DX2                !
 ! D100  D(31,14,18,16)        -43.6553         estimate D2E/DX2                !
 ! D101  D(32,14,18,15)       -136.3441         estimate D2E/DX2                !
 ! D102  D(32,14,18,16)         43.657          estimate D2E/DX2                !
 ! D103  D(13,15,16,17)       -179.999          estimate D2E/DX2                !
 ! D104  D(13,15,16,35)         -0.0011         estimate D2E/DX2                !
 ! D105  D(17,16,18,13)          0.004          estimate D2E/DX2                !
 ! D106  D(17,16,18,14)       -179.9976         estimate D2E/DX2                !
 ! D107  D(35,16,18,13)       -179.9995         estimate D2E/DX2                !
 ! D108  D(35,16,18,14)         -0.0011         estimate D2E/DX2                !
 ! D109  D(15,16,35,33)        145.4281         estimate D2E/DX2                !
 ! D110  D(15,16,35,34)       -145.4262         estimate D2E/DX2                !
 ! D111  D(17,16,35,33)        -34.5747         estimate D2E/DX2                !
 ! D112  D(17,16,35,34)         34.571          estimate D2E/DX2                !
 ! D113  D(18,16,35,33)        145.4275         estimate D2E/DX2                !
 ! D114  D(18,16,35,34)       -145.4267         estimate D2E/DX2                !
 --------------------------------------------------------------------------------
 Trust Radius=3.00D-01 FncErr=1.00D-07 GrdErr=1.00D-06 EigMax=2.50D+02 EigMin=1.00D-04
 Number of steps in this run=    210 maximum allowed number of steps=    210.
 GradGradGradGradGradGradGradGradGradGradGradGradGradGradGradGradGradGrad

                          Input orientation:                          
 ---------------------------------------------------------------------
 Center     Atomic      Atomic             Coordinates (Angstroms)
 Number     Number       Type             X           Y           Z
 ---------------------------------------------------------------------
      1         16           0        1.135770    0.035430    0.083190
      2          6           0        3.187260   -0.216000   -0.108320
      3          6           0        4.719660   -1.526480   -1.106520
      4          6           0        6.623470   -2.283410   -1.683070
      5          6           0        8.667010   -3.516740   -2.622510
      6          6           0        7.417720   -1.996520   -1.464550
      7          6           0        6.639130   -0.326510   -0.192490
      8          6           0        4.918620    0.475940    0.418730
      9          6           0        7.970440   -3.056860   -2.272210
     10          6           0        9.821800   -2.571290   -1.902360
     11          6           0       10.171500   -3.470960   -2.587640
     12          6           0       11.910920   -3.521180   -2.625890
     13          6           0       11.572480   -5.368340   -4.032880
     14          6           0       12.705850   -4.302280   -3.220860
     15         16           0       12.282550   -6.579290   -4.955270
     16          6           0       14.356550   -6.152910   -4.630480
     17         16           0       14.835520   -7.001600   -5.276960
     18          6           0       12.955900   -5.346880   -4.016540
     19          6           0       10.866810   -4.469950   -3.348580
     20          1           0        3.053290   -1.690670   -1.231590
     21          1           0        5.569310   -1.095080   -0.777920
     22          1           0        8.158420   -0.587790   -0.391520
     23          1           0        3.677470    1.428260    1.144130
     24          1           0        7.167500   -3.817490   -2.851600
     25          1           0        9.765230   -1.889510   -1.383040
     26          1           0        9.788450   -4.982250   -3.738800
     27          1           0       11.777500   -3.972110   -1.694460
     28          1           0       11.777500   -2.743010   -3.308070
     29          1           0       11.508260   -4.787480   -4.874880
     30          1           0       11.508260   -6.025760   -3.249200
     31          1           0       13.744130   -5.053930   -2.622900
     32          1           0       13.744130   -3.925490   -4.104360
     33          1           0       15.820900   -6.485890   -3.831240
     34          1           0       15.820900   -5.470840   -5.163840
     35          1           0       14.882800   -5.306330   -3.985650
 ---------------------------------------------------------------------
                    Distance matrix (angstroms):
                    1          2          3          4          5
     1  S    0.000000
     2  C    2.075694   0.000000
     3  C    4.086470   2.249891   0.000000
     4  C    6.213819   4.308313   2.128343   0.000000
     5  C    8.755473   6.873405   4.673428   2.565094   0.000000
     6  C    6.781387   4.786063   2.762001   0.872290   2.283126
     7  C    5.522135   3.454664   2.441259   2.459986   4.493869
     8  C    3.823165   1.937568   2.525007   3.864982   6.264269
     9  C    7.862753   5.969231   3.777362   1.661216   0.905212
    10  C    9.283562   7.265197   5.268474   3.218739   1.657115
    11  C   10.053483   8.094529   5.974720   3.849291   1.505590
    12  C   11.665867   9.662537   7.615874   5.511634   3.243915
    13  C   12.452617  10.595315   8.383592   6.287376   3.722811
    14  C   12.790591  10.816152   8.715201   6.590598   4.157803
    15  S   13.906520  12.112336   9.876288   7.822216   5.281393
    16  C   15.339598  13.433163  11.255745   9.135687   6.584239
    17  S   16.307488  14.437492  12.235201  10.129913   7.565770
    18  C   13.619564  11.705829   9.534114   7.411451   4.866961
    19  C   11.259158   9.357931   7.174838   5.055770   2.504976
    20  H    2.895678   1.858584   1.679104   3.647103   6.064902
    21  H    4.655732   2.625892   1.007963   1.828299   4.343120
    22  H    7.066213   4.993081   3.635579   2.626652   3.716817
    23  H    3.086391   2.124271   3.857729   5.518013   7.970954
    24  H    7.735616   6.028153   3.779676   2.003705   1.546436
    25  H    8.962299   6.906174   5.066165   3.180539   2.321691
    26  H   10.707642   8.914776   6.675618   4.639705   2.156722
    27  H   11.509424   9.508755   7.492655   5.423639   3.277772
    28  H   11.509422   9.508754   7.492655   5.423641   3.277773
    29  H   12.467216  10.623444   8.421386   6.349739   3.841959
    30  H   12.467213  10.623440   8.421383   6.349734   3.841956
    31  H   13.863450  11.881758   9.807312   7.698237   5.304724
    32  H   13.863448  11.881757   9.807311   7.698238   5.304725
    33  H   16.537939  14.586998  12.460232  10.337707   7.839325
    34  H   16.537937  14.586997  12.460231  10.337707   7.839324
    35  H   15.299369  13.331572  11.219005   9.091559   6.610358
                    6          7          8          9         10
     6  C    0.000000
     7  C    2.239034   0.000000
     8  C    3.988145   1.994410   0.000000
     9  C    1.442960   3.681363   5.388454   0.000000
    10  C    2.510307   4.253479   6.222077   1.949385   0.000000
    11  C    3.319429   5.301127   7.225582   2.261778   1.183767
    12  C    4.884889   6.627150   8.610397   3.983474   2.406285
    13  C    5.935278   8.031599   9.911927   4.627914   3.927784
    14  C    6.030379   7.860208   9.834579   4.987496   3.612826
    15  S    7.540125   9.676235  11.527515   6.180665   5.607104
    16  C    8.685969  10.639608  12.590103   7.478594   6.390195
    17  S    9.726718  11.729854  13.663799   8.468696   7.493528
    18  C    6.957658   8.929113  10.870820   5.756882   4.690015
    19  C    4.643667   6.708374   8.604384   3.397698   2.605477
    20  H    4.381331   3.974784   3.301092   5.208429   6.858437
    21  H    2.168104   1.441507   2.079296   3.441934   4.639745
    22  H    1.919518   1.554388   3.504901   3.109443   2.997289
    23  H    5.702964   3.692858   1.724405   7.086415   7.939162
    24  H    2.302705   4.420066   5.846885   1.248585   3.082106
    25  H    2.351361   3.692273   5.686067   2.318318   0.858905
    26  H    4.439274   6.646085   8.413806   3.027073   3.030900
    27  H    4.792024   6.476817   8.443634   3.957927   2.414598
    28  H    4.792024   6.476817   8.443631   3.957930   2.414595
    29  H    6.012680   8.095274   9.957372   4.720710   4.073269
    30  H    6.012676   8.095267   9.957368   4.720704   4.073265
    31  H    7.121306   8.873354  10.849913   6.119376   4.697590
    32  H    7.121305   8.873354  10.849910   6.119378   4.697588
    33  H    9.816776  11.639732  13.615764   8.707384   7.418482
    34  H    9.816775  11.639732  13.615763   8.707385   7.418480
    35  H    8.546239  10.351076  12.333616   7.468381   6.118355
                   11         12         13         14         15
    11  C    0.000000
    12  C    1.740565   0.000000
    13  C    2.766137   2.346521   0.000000
    14  C    2.741348   1.263337   1.755103   0.000000
    15  S    4.441162   3.862144   1.679703   2.893464   0.000000
    16  C    5.374076   4.114060   2.953595   2.852485   2.142140
    17  S    6.438241   5.262583   3.855218   4.006166   2.607582
    18  C    3.648796   2.521720   1.383683   1.336720   1.689215
    19  C    1.435433   1.585122   1.331669   1.851079   3.005842
    20  H    7.461717   9.151636   9.692733  10.195568  11.087995
    21  H    5.486351   7.036830   8.055654   8.196602   9.622599
    22  H    4.145854   5.261031   6.911510   6.517800   8.586870
    23  H    8.949910  10.319869  11.632987  11.550059  13.242769
    24  H    3.035420   4.758022   4.817095   5.571777   6.181966
    25  H    2.029064   2.968334   4.731814   4.224487   6.410286
    26  H    1.938013   2.806808   1.848868   3.040040   3.201698
    27  H    1.904772   1.043408   2.731245   1.816795   4.205395
    28  H    1.904775   1.043417   2.731253   1.816800   4.205400
    29  H    2.958314   2.612203   1.024932   2.098910   1.953605
    30  H    2.958309   2.612197   1.024929   2.098906   1.953611
    31  H    3.907777   2.389559   2.608249   1.414411   3.146886
    32  H    3.907777   2.389560   2.608254   1.414414   3.146890
    33  H    6.523194   5.052753   4.397573   3.852824   3.713770
    34  H    6.523193   5.052753   4.397573   3.852822   3.713769
    35  H    5.245890   3.723947   3.311238   2.516373   3.053177
                   16         17         18         19         20
    16  C    0.000000
    17  S    1.169454   0.000000
    18  C    1.728707   2.803521   0.000000
    19  C    4.080920   5.087097   2.362091   0.000000
    20  H   12.618547  13.542228  10.917211   8.559038   0.000000
    21  H   10.846172  11.873963   9.117465   6.786866   2.625052
    22  H    9.346452  10.468436   7.668476   5.581285   5.290030
    23  H   14.313036  15.388145  12.594614  10.327630   3.970059
    24  H    7.765374   8.649824   6.099319   3.789141   4.906579
    25  H    7.057100   8.185592   5.391577   3.425711   6.716592
    26  H    4.799279   5.649480   3.200443   1.256019   7.904618
    27  H    4.475221   5.600322   2.944601   1.952771   9.029455
    28  H    4.475230   5.600322   2.944604   1.952772   9.029453
    29  H    3.168105   4.016797   1.773510   1.685786   9.713409
    30  H    3.168100   4.016806   1.773514   1.685787   9.713407
    31  H    2.369218   3.468225   1.627685   3.024337  11.293419
    32  H    2.369232   3.468224   1.627688   3.024336  11.293418
    33  H    1.701171   1.824017   3.088674   5.370287  13.883954
    34  H    1.701180   1.824005   3.088671   5.370285  13.883953
    35  H    1.187199   2.131586   1.927574   4.151333  12.672614
                   21         22         23         24         25
    21  H    0.000000
    22  H    2.666484   0.000000
    23  H    3.693316   5.147970   0.000000
    24  H    3.777019   4.179100   7.460835   0.000000
    25  H    4.313123   2.293344   7.379364   3.552742   0.000000
    26  H    6.455853   5.759562  10.113443   3.002194   3.887825
    27  H    6.903548   5.123379  10.140615   4.755521   2.912634
    28  H    6.903547   5.123376  10.140615   4.755520   2.912633
    29  H    8.104938   6.997095  11.669840   4.886383   4.861001
    30  H    8.104934   6.997091  11.669834   4.886383   4.860995
    31  H    9.268448   7.491703  12.551771   6.695756   5.232824
    32  H    9.268447   7.491701  12.551770   6.695755   5.232824
    33  H   11.978259  10.263180  15.324848   9.108314   7.986960
    34  H   11.978258  10.263178  15.324848   9.108312   7.986959
    35  H   10.712855   8.966587  14.043816   7.939053   6.681150
                   26         27         28         29         30
    26  H    0.000000
    27  H    3.025893   0.000000
    28  H    3.025896   2.028404   0.000000
    29  H    2.070353   3.294297   2.589834   0.000000
    30  H    2.070354   2.589823   3.294299   2.043569   0.000000
    31  H    4.110690   2.428985   3.110859   3.184576   2.517105
    32  H    4.110691   3.110856   2.428985   2.517110   3.184580
    33  H    6.217711   5.218621   5.534613   4.751068   4.375997
    34  H    6.217710   5.534607   5.218623   4.375996   4.751068
    35  H    5.110613   4.083207   4.083211   3.528095   3.528096
                   31         32         33         34         35
    31  H    0.000000
    32  H    1.862284   0.000000
    33  H    2.797064   3.308053   0.000000
    34  H    3.308045   2.797066   1.675156   0.000000
    35  H    1.793701   1.793706   1.515004   1.515001   0.000000
 Stoichiometry    C16H16S3
 Framework group  C1[X(C16H16S3)]
 Deg. of freedom    99
 Full point group                 C1      NOp   1
 Largest Abelian subgroup         C1      NOp   1
 Largest concise Abelian subgroup C1      NOp   1
                         Standard orientation:                         
 ---------------------------------------------------------------------
 Center     Atomic      Atomic             Coordinates (Angstroms)
 Number     Number       Type             X           Y           Z
 ---------------------------------------------------------------------
      1         16           0        9.221645   -1.087724    0.000003
      2          6           0        7.364209   -0.161207   -0.000000
      3          6           0        5.161875   -0.621353   -0.000000
      4          6           0        3.058097   -0.298914   -0.000006
      5          6           0        0.494440   -0.384741   -0.000002
      6          6           0        2.617868    0.454138   -0.000001
      7          6           0        4.465719    1.718543   -0.000004
      8          6           0        6.452881    1.548662    0.000005
      9          6           0        1.396959   -0.314962   -0.000007
     10          6           0        0.237861    1.252390    0.000003
     11          6           0       -0.700672    0.530960   -0.000000
     12          6           0       -2.157272    1.483789   -0.000001
     13          6           0       -3.221706   -0.607417   -0.000004
     14          6           0       -3.373251    1.141131   -0.000000
     15         16           0       -4.680406   -1.440241   -0.000003
     16          6           0       -6.064232    0.194932   -0.000013
     17         16           0       -7.071315   -0.399549    0.000009
     18          6           0       -4.335624    0.213414    0.000001
     19          6           0       -1.993472   -0.092847    0.000003
     20          1           0        6.403204   -1.752057    0.000003
     21          1           0        4.781308    0.312006    0.000000
     22          1           0        3.035642    2.327642    0.000006
     23          1           0        8.157459    1.809398   -0.000005
     24          1           0        1.500414   -1.559253    0.000003
     25          1           0        0.778916    1.919456    0.000000
     26          1           0       -1.484895   -1.241295    0.000000
     27          1           0       -1.929581    1.574674   -1.014199
     28          1           0       -1.929579    1.574676    1.014205
     29          1           0       -3.197061   -0.683791    1.021781
     30          1           0       -3.197057   -0.683784   -1.021787
     31          1           0       -4.357003    1.548285   -0.931139
     32          1           0       -4.357001    1.548286    0.931145
     33          1           0       -7.133112    1.219606   -0.837581
     34          1           0       -7.133112    1.219605    0.837576
     35          1           0       -5.879407    1.367656   -0.000000
 ---------------------------------------------------------------------
 Rotational constants (GHZ):           1.7020167           0.0605785           0.0585960
 Standard basis: 6-31G(2df,p) (6D, 7F)
 There are   681 symmetry adapted cartesian basis functions of A   symmetry.
 There are   624 symmetry adapted basis functions of A   symmetry.
   624 basis functions,  1020 primitive gaussians,   681 cartesian basis functions
    80 alpha electrons       80 beta electrons
       nuclear repulsion energy      1565.7628125068 Hartrees.
 NAtoms=   35 NActive=   35 NUniq=   35 SFac= 1.00D+00 NAtFMM=   60 NAOKFM=F Big=F
 Integral buffers will be    131072 words long.
 Raffenetti 2 integral format.
 Two-electron integral symmetry is turned on.
 One-electron integrals computed using PRISM.
 PrsmSu:  requested number of processors reduced to:  12 ShMem   1 Linda.
 NBasis=   624 RedAO= T EigKep=  1.32D-05  NBF=   624
 NBsUse=   624 1.00D-06 EigRej= -1.00D+00 NBFU=   624
 ExpMin= 1.17D-01 ExpMax= 2.19D+04 ExpMxC= 3.30D+03 IAcc=3 IRadAn=         5 AccDes= 0.00D+00
 Harris functional with IExCor=  402 and IRadAn=       5 diagonalized for initial guess.
 HarFok:  IExCor=  402 AccDes= 0.00D+00 IRadAn=         5 IDoV= 1 UseB2=F ITyADJ=14
 ICtDFT=  3500011 ScaDFX=  1.000000  1.000000  1.000000  1.000000
 FoFCou: FMM=F IPFlag=           0 FMFlag=      100000 FMFlg1=           0
         NFxFlg=           0 DoJE=T BraDBF=F KetDBF=T FulRan=T
         wScrn=  0.000000 ICntrl=       500 IOpCl=  0 I1Cent=   200000004 NGrid=           0
         NMat0=    1 NMatS0=      1 NMatT0=    0 NMatD0=    1 NMtDS0=    0 NMtDT0=    0
 Petite list used in FoFCou.
 Requested convergence on RMS density matrix=1.00D-08 within 128 cycles.
 Requested convergence on MAX density matrix=1.00D-06.
 Requested convergence on             energy=1.00D-06.
 No special actions if energy rises.
 Integral accuracy reduced to 1.0D-05 until final iterations.
 EnCoef did     6 forward-backward iterations
 EnCoef did   100 forward-backward iterations
 Problem detected with inexpensive integrals.
 Switching to full accuracy and repeating last cycle.
 EnCoef did   100 forward-backward iterations
 EnCoef did     6 forward-backward iterations
 EnCoef did     3 forward-backward iterations
 EnCoef did    10 forward-backward iterations
 EnCoef did     5 forward-backward iterations
 EnCoef did     9 forward-backward iterations
 EnCoef did     8 forward-backward iterations
 EnCoef did   100 forward-backward iterations
 EnCoef did   100 forward-backward iterations
 EnCoef did    12 forward-backward iterations
 EnCoef did   100 forward-backward iterations
 EnCoef did   100 forward-backward iterations
 EnCoef did     2 forward-backward iterations
 EnCoef did    21 forward-backward iterations
 EnCoef did     3 forward-backward iterations
 EnCoef did     2 forward-backward iterations
 EnCoef did    14 forward-backward iterations
 Restarting incremental Fock formation.
 EnCoef did     9 forward-backward iterations
 EnCoef did    23 forward-backward iterations
 EnCoef did   100 forward-backward iterations
 EnCoef did   100 forward-backward iterations
 EnCoef did    32 forward-backward iterations
 EnCoef did     6 forward-backward iterations
 EnCoef did   100 forward-backward iterations
 EnCoef did   100 forward-backward iterations
 EnCoef did     5 forward-backward iterations
 EnCoef did     5 forward-backward iterations
 EnCoef did   100 forward-backward iterations
 Restarting incremental Fock formation.
 SCF Done:  E(RB3LYP) =  -1809.51795394     A.U. after   50 cycles
            NFock= 50  Conv=0.80D-08     -V/T= 1.9971

 **********************************************************************

            Population analysis using the SCF density.

 **********************************************************************

 Orbital symmetries:
       Occupied  (A) (A) (A) (A) (A) (A) (A) (A) (A) (A) (A) (A)
                 (A) (A) (A) (A) (A) (A) (A) (A) (A) (A) (A) (A)
                 (A) (A) (A) (A) (A) (A) (A) (A) (A) (A) (A) (A)
                 (A) (A) (A) (A) (A) (A) (A) (A) (A) (A) (A) (A)
                 (A) (A) (A) (A) (A) (A) (A) (A) (A) (A) (A) (A)
                 (A) (A) (A) (A) (A) (A) (A) (A) (A) (A) (A) (A)
                 (A) (A) (A) (A) (A) (A) (A) (A)
       Virtual   (A) (A) (A) (A) (A) (A) (A) (A) (A) (A) (A) (A)
                 (A) (A) (A) (A) (A) (A) (A) (A) (A) (A) (A) (A)
                 (A) (A) (A) (A) (A) (A) (A) (A) (A) (A) (A) (A)
                 (A) (A) (A) (A) (A) (A) (A) (A) (A) (A) (A) (A)
                 (A) (A) (A) (A) (A) (A) (A) (A) (A) (A) (A) (A)
                 (A) (A) (A) (A) (A) (A) (A) (A) (A) (A) (A) (A)
                 (A) (A) (A) (A) (A) (A) (A) (A) (A) (A) (A) (A)
                 (A) (A) (A) (A) (A) (A) (A) (A) (A) (A) (A) (A)
                 (A) (A) (A) (A) (A) (A) (A) (A) (A) (A) (A) (A)
                 (A) (A) (A) (A) (A) (A) (A) (A) (A) (A) (A) (A)
                 (A) (A) (A) (A) (A) (A) (A) (A) (A) (A) (A) (A)
                 (A) (A) (A) (A) (A) (A) (A) (A) (A) (A) (A) (A)
                 (A) (A) (A) (A) (A) (A) (A) (A) (A) (A) (A) (A)
                 (A) (A) (A) (A) (A) (A) (A) (A) (A) (A) (A) (A)
                 (A) (A) (A) (A) (A) (A) (A) (A) (A) (A) (A) (A)
                 (A) (A) (A) (A) (A) (A) (A) (A) (A) (A) (A) (A)
                 (A) (A) (A) (A) (A) (A) (A) (A) (A) (A) (A) (A)
                 (A) (A) (A) (A) (A) (A) (A) (A) (A) (A) (A) (A)
                 (A) (A) (A) (A) (A) (A) (A) (A) (A) (A) (A) (A)
                 (A) (A) (A) (A) (A) (A) (A) (A) (A) (A) (A) (A)
                 (A) (A) (A) (A) (A) (A) (A) (A) (A) (A) (A) (A)
                 (A) (A) (A) (A) (A) (A) (A) (A) (A) (A) (A) (A)
                 (A) (A) (A) (A) (A) (A) (A) (A) (A) (A) (A) (A)
                 (A) (A) (A) (A) (A) (A) (A) (A) (A) (A) (A) (A)
                 (A) (A) (A) (A) (A) (A) (A) (A) (A) (A) (A) (A)
                 (A) (A) (A) (A) (A) (A) (A) (A) (A) (A) (A) (A)
                 (A) (A) (A) (A) (A) (A) (A) (A) (A) (A) (A) (A)
                 (A) (A) (A) (A) (A) (A) (A) (A) (A) (A) (A) (A)
                 (A) (A) (A) (A) (A) (A) (A) (A) (A) (A) (A) (A)
                 (A) (A) (A) (A) (A) (A) (A) (A) (A) (A) (A) (A)
                 (A) (A) (A) (A) (A) (A) (A) (A) (A) (A) (A) (A)
                 (A) (A) (A) (A) (A) (A) (A) (A) (A) (A) (A) (A)
                 (A) (A) (A) (A) (A) (A) (A) (A) (A) (A) (A) (A)
                 (A) (A) (A) (A) (A) (A) (A) (A) (A) (A) (A) (A)
                 (A) (A) (A) (A) (A) (A) (A) (A) (A) (A) (A) (A)
                 (A) (A) (A) (A) (A) (A) (A) (A) (A) (A) (A) (A)
                 (A) (A) (A) (A) (A) (A) (A) (A) (A) (A) (A) (A)
                 (A) (A) (A) (A) (A) (A) (A) (A) (A) (A) (A) (A)
                 (A) (A) (A) (A) (A) (A) (A) (A) (A) (A) (A) (A)
                 (A) (A) (A) (A) (A) (A) (A) (A) (A) (A) (A) (A)
                 (A) (A) (A) (A) (A) (A) (A) (A) (A) (A) (A) (A)
                 (A) (A) (A) (A) (A) (A) (A) (A) (A) (A) (A) (A)
                 (A) (A) (A) (A) (A) (A) (A) (A) (A) (A) (A) (A)
                 (A) (A) (A) (A) (A) (A) (A) (A) (A) (A) (A) (A)
                 (A) (A) (A) (A) (A) (A) (A) (A) (A) (A) (A) (A)
                 (A) (A) (A) (A)
 The electronic state is 1-A.
 Alpha  occ. eigenvalues --  -88.94718 -88.92420 -88.87750 -10.33406 -10.31568
 Alpha  occ. eigenvalues --  -10.31367 -10.30031 -10.28192 -10.28056 -10.27810
 Alpha  occ. eigenvalues --  -10.25908 -10.24476 -10.24246 -10.24220 -10.20821
 Alpha  occ. eigenvalues --  -10.19704 -10.18403 -10.17966 -10.12381  -8.02081
 Alpha  occ. eigenvalues --   -8.00859  -7.93664  -5.98239  -5.97922  -5.97346
 Alpha  occ. eigenvalues --   -5.97281  -5.97176  -5.96233  -5.90274  -5.89510
 Alpha  occ. eigenvalues --   -5.89393  -1.10557  -1.00826  -0.98745  -0.95689
 Alpha  occ. eigenvalues --   -0.90327  -0.84499  -0.81636  -0.79334  -0.72709
 Alpha  occ. eigenvalues --   -0.70475  -0.68353  -0.67559  -0.65113  -0.63704
 Alpha  occ. eigenvalues --   -0.62821  -0.60288  -0.58737  -0.58710  -0.57817
 Alpha  occ. eigenvalues --   -0.56665  -0.53036  -0.52276  -0.51802  -0.51768
 Alpha  occ. eigenvalues --   -0.49722  -0.49481  -0.47955  -0.44011  -0.41543
 Alpha  occ. eigenvalues --   -0.39944  -0.39288  -0.37254  -0.37149  -0.34087
 Alpha  occ. eigenvalues --   -0.32142  -0.30895  -0.30713  -0.28714  -0.28505
 Alpha  occ. eigenvalues --   -0.26979  -0.26639  -0.23427  -0.22186  -0.21418
 Alpha  occ. eigenvalues --   -0.21249  -0.19111  -0.18235  -0.18025  -0.15296
 Alpha virt. eigenvalues --   -0.14256  -0.13465  -0.12370  -0.12277  -0.10421
 Alpha virt. eigenvalues --   -0.09884  -0.07274  -0.07258  -0.06166  -0.06106
 Alpha virt. eigenvalues --   -0.03596  -0.02800  -0.02527  -0.02153  -0.01055
 Alpha virt. eigenvalues --    0.01301   0.03343   0.03763   0.04599   0.05163
 Alpha virt. eigenvalues --    0.07754   0.07905   0.10153   0.11034   0.11424
 Alpha virt. eigenvalues --    0.11517   0.13113   0.14195   0.14816   0.16626
 Alpha virt. eigenvalues --    0.16923   0.18124   0.18867   0.20452   0.22819
 Alpha virt. eigenvalues --    0.23313   0.24242   0.24920   0.25555   0.27237
 Alpha virt. eigenvalues --    0.29934   0.31524   0.32102   0.32192   0.34380
 Alpha virt. eigenvalues --    0.35113   0.35554   0.36154   0.36286   0.38108
 Alpha virt. eigenvalues --    0.38472   0.39171   0.39194   0.39906   0.40810
 Alpha virt. eigenvalues --    0.41372   0.42101   0.42382   0.43022   0.43373
 Alpha virt. eigenvalues --    0.43440   0.43577   0.44403   0.44986   0.45599
 Alpha virt. eigenvalues --    0.46043   0.46410   0.47317   0.48345   0.48838
 Alpha virt. eigenvalues --    0.50117   0.50268   0.50754   0.51947   0.52851
 Alpha virt. eigenvalues --    0.53573   0.54213   0.54844   0.55519   0.56353
 Alpha virt. eigenvalues --    0.56605   0.57453   0.58206   0.58725   0.59237
 Alpha virt. eigenvalues --    0.60116   0.60976   0.61133   0.61287   0.61757
 Alpha virt. eigenvalues --    0.61941   0.62228   0.62674   0.64164   0.64930
 Alpha virt. eigenvalues --    0.65445   0.66557   0.66596   0.67461   0.67734
 Alpha virt. eigenvalues --    0.68167   0.69510   0.69989   0.70539   0.71049
 Alpha virt. eigenvalues --    0.71918   0.72333   0.72826   0.73001   0.74417
 Alpha virt. eigenvalues --    0.75775   0.76683   0.76778   0.78975   0.79313
 Alpha virt. eigenvalues --    0.80220   0.80525   0.80735   0.81617   0.82140
 Alpha virt. eigenvalues --    0.83230   0.83814   0.84475   0.85144   0.85287
 Alpha virt. eigenvalues --    0.87852   0.88176   0.89032   0.90076   0.90114
 Alpha virt. eigenvalues --    0.91355   0.92513   0.93518   0.95053   0.95482
 Alpha virt. eigenvalues --    0.95555   0.96506   0.96625   0.96991   0.97685
 Alpha virt. eigenvalues --    0.99275   1.00203   1.01612   1.02897   1.04913
 Alpha virt. eigenvalues --    1.05070   1.06233   1.06794   1.06807   1.07713
 Alpha virt. eigenvalues --    1.08729   1.10263   1.10464   1.10726   1.11396
 Alpha virt. eigenvalues --    1.12869   1.13622   1.14479   1.17514   1.17864
 Alpha virt. eigenvalues --    1.19129   1.19634   1.20439   1.21445   1.22020
 Alpha virt. eigenvalues --    1.22076   1.23376   1.24541   1.26795   1.26866
 Alpha virt. eigenvalues --    1.27518   1.29645   1.30381   1.32202   1.32972
 Alpha virt. eigenvalues --    1.33268   1.33653   1.36466   1.38048   1.38102
 Alpha virt. eigenvalues --    1.40129   1.41263   1.42595   1.44122   1.44749
 Alpha virt. eigenvalues --    1.45121   1.45695   1.47980   1.49171   1.49882
 Alpha virt. eigenvalues --    1.51206   1.51805   1.52493   1.52747   1.56315
 Alpha virt. eigenvalues --    1.56482   1.57453   1.59689   1.60535   1.60945
 Alpha virt. eigenvalues --    1.61994   1.62782   1.64438   1.64809   1.64891
 Alpha virt. eigenvalues --    1.67279   1.67335   1.67568   1.67672   1.68032
 Alpha virt. eigenvalues --    1.68956   1.70456   1.71307   1.73080   1.74157
 Alpha virt. eigenvalues --    1.74570   1.75790   1.76654   1.77874   1.79758
 Alpha virt. eigenvalues --    1.80007   1.81794   1.82319   1.84527   1.86572
 Alpha virt. eigenvalues --    1.87944   1.88989   1.90419   1.91685   1.93575
 Alpha virt. eigenvalues --    1.95788   1.96711   1.96860   1.98680   1.99185
 Alpha virt. eigenvalues --    1.99626   2.00660   2.01222   2.01533   2.01821
 Alpha virt. eigenvalues --    2.03567   2.04083   2.04321   2.05520   2.08944
 Alpha virt. eigenvalues --    2.08955   2.09302   2.09844   2.10332   2.11470
 Alpha virt. eigenvalues --    2.12271   2.13046   2.13765   2.13827   2.14786
 Alpha virt. eigenvalues --    2.16000   2.17025   2.18329   2.18366   2.19512
 Alpha virt. eigenvalues --    2.20195   2.20634   2.21296   2.23186   2.24365
 Alpha virt. eigenvalues --    2.25833   2.26996   2.28878   2.29188   2.30066
 Alpha virt. eigenvalues --    2.30543   2.31289   2.34206   2.36361   2.37087
 Alpha virt. eigenvalues --    2.38045   2.38520   2.38806   2.38899   2.41522
 Alpha virt. eigenvalues --    2.42509   2.45313   2.45556   2.48570   2.49329
 Alpha virt. eigenvalues --    2.49712   2.51192   2.52163   2.52930   2.54237
 Alpha virt. eigenvalues --    2.55621   2.56435   2.58617   2.59419   2.59579
 Alpha virt. eigenvalues --    2.60646   2.61657   2.62497   2.63507   2.64873
 Alpha virt. eigenvalues --    2.66147   2.66793   2.68485   2.70229   2.70844
 Alpha virt. eigenvalues --    2.71923   2.72517   2.72884   2.74021   2.74934
 Alpha virt. eigenvalues --    2.75428   2.76772   2.78751   2.79243   2.80029
 Alpha virt. eigenvalues --    2.80448   2.81296   2.82524   2.84697   2.85814
 Alpha virt. eigenvalues --    2.86212   2.86760   2.88246   2.88675   2.89896
 Alpha virt. eigenvalues --    2.90233   2.90855   2.91519   2.92908   2.93881
 Alpha virt. eigenvalues --    2.93982   2.95768   2.97588   2.98354   2.98893
 Alpha virt. eigenvalues --    2.99198   2.99230   3.00947   3.01713   3.02705
 Alpha virt. eigenvalues --    3.02989   3.04552   3.05065   3.05291   3.07270
 Alpha virt. eigenvalues --    3.09096   3.09281   3.10125   3.11213   3.12259
 Alpha virt. eigenvalues --    3.14458   3.15428   3.15542   3.16254   3.18546
 Alpha virt. eigenvalues --    3.20860   3.22161   3.22600   3.25778   3.25951
 Alpha virt. eigenvalues --    3.26158   3.27003   3.28864   3.30277   3.30853
 Alpha virt. eigenvalues --    3.31627   3.32337   3.32576   3.33809   3.34562
 Alpha virt. eigenvalues --    3.34853   3.37136   3.37144   3.37791   3.39862
 Alpha virt. eigenvalues --    3.42490   3.42610   3.43768   3.44413   3.46459
 Alpha virt. eigenvalues --    3.49679   3.50214   3.50505   3.50823   3.52076
 Alpha virt. eigenvalues --    3.53050   3.55941   3.57112   3.59042   3.62256
 Alpha virt. eigenvalues --    3.64826   3.64926   3.65681   3.66522   3.68762
 Alpha virt. eigenvalues --    3.70867   3.71216   3.72320   3.73334   3.73580
 Alpha virt. eigenvalues --    3.74505   3.77542   3.82667   3.83276   3.84807
 Alpha virt. eigenvalues --    3.86131   3.88269   3.91437   3.92847   3.92858
 Alpha virt. eigenvalues --    3.93569   3.94990   3.98676   3.99570   4.00564
 Alpha virt. eigenvalues --    4.00961   4.03072   4.05545   4.06396   4.06876
 Alpha virt. eigenvalues --    4.07359   4.10373   4.10999   4.11914   4.14997
 Alpha virt. eigenvalues --    4.16608   4.17099   4.18942   4.20368   4.22699
 Alpha virt. eigenvalues --    4.23732   4.24680   4.25877   4.28025   4.28908
 Alpha virt. eigenvalues --    4.28915   4.31742   4.33488   4.34008   4.34849
 Alpha virt. eigenvalues --    4.37382   4.37639   4.38126   4.40920   4.41775
 Alpha virt. eigenvalues --    4.42629   4.42843   4.44717   4.46405   4.48576
 Alpha virt. eigenvalues --    4.49278   4.51429   4.52780   4.54467   4.57337
 Alpha virt. eigenvalues --    4.58304   4.59544   4.60193   4.61882   4.62626
 Alpha virt. eigenvalues --    4.64547   4.64720   4.65219   4.67043   4.69135
 Alpha virt. eigenvalues --    4.70803   4.71070   4.71979   4.73312   4.74995
 Alpha virt. eigenvalues --    4.77878   4.78946   4.79898   4.80725   4.83814
 Alpha virt. eigenvalues --    4.84151   4.87259   4.87768   4.89875   4.91319
 Alpha virt. eigenvalues --    4.93711   4.98277   4.98434   4.99604   5.03280
 Alpha virt. eigenvalues --    5.03580   5.04061   5.07511   5.08698   5.10903
 Alpha virt. eigenvalues --    5.15067   5.16669   5.21119   5.22835   5.23211
 Alpha virt. eigenvalues --    5.26493   5.26861   5.30563   5.32600   5.35057
 Alpha virt. eigenvalues --    5.40283   5.43444   5.45207   5.47611   5.49230
 Alpha virt. eigenvalues --    5.50796   5.54387   5.62623   5.71679   5.74074
 Alpha virt. eigenvalues --    5.76585   5.88317   5.91213   6.03434   6.10112
 Alpha virt. eigenvalues --    6.14579   6.20661   6.27438   6.36003   6.45053
 Alpha virt. eigenvalues --    6.70085   6.72380   7.10001   7.28279   7.71028
 Alpha virt. eigenvalues --    7.78997   8.09812   9.43429   9.77006  10.23355
 Alpha virt. eigenvalues --   10.38233  10.45026  10.63951  11.16090  11.18684
 Alpha virt. eigenvalues --   11.24632  11.41349  11.55033  12.03584  12.35564
 Alpha virt. eigenvalues --   12.38813  12.87682  13.16107  13.29472
          Condensed to atoms (all electrons):
               1          2          3          4          5          6
     1  S   15.933725   0.303126  -0.006719  -0.000023   0.000000  -0.000001
     2  C    0.303126   5.451653   0.020749   0.000566  -0.000001   0.000292
     3  C   -0.006719   0.020749   5.915936   0.082641  -0.004163  -0.020214
     4  C   -0.000023   0.000566   0.082641   5.662749  -0.696177   0.426250
     5  C    0.000000  -0.000001  -0.004163  -0.696177  14.915644  -0.100952
     6  C   -0.000001   0.000292  -0.020214   0.426250  -0.100952   5.584309
     7  C   -0.000192   0.005192  -0.108923   0.034757  -0.000051  -0.072116
     8  C   -0.012152   0.168748   0.034427   0.003139   0.000002   0.001932
     9  C    0.000000  -0.000001  -0.015494   0.752994  -7.266895   0.322202
    10  C   -0.000000   0.000000  -0.000117  -0.042779   0.817033  -0.040715
    11  C   -0.000000   0.000000   0.000013   0.020836  -0.374344  -0.029051
    12  C    0.000000  -0.000000   0.000000   0.000030  -0.001572  -0.000074
    13  C   -0.000000   0.000000   0.000000   0.000012   0.002801  -0.000006
    14  C    0.000000  -0.000000   0.000000  -0.000001  -0.004530   0.000008
    15  S    0.000000  -0.000000   0.000000   0.000000   0.000191  -0.000000
    16  C    0.000000   0.000000   0.000000  -0.000000  -0.000001   0.000000
    17  S    0.000000   0.000000  -0.000000   0.000000  -0.000000  -0.000000
    18  C   -0.000000   0.000000  -0.000000  -0.000000  -0.000823   0.000000
    19  C   -0.000000   0.000000  -0.000000   0.000505  -0.132403   0.000250
    20  H   -0.000384   0.066892   0.126182   0.000155  -0.000009  -0.000482
    21  H    0.000098  -0.007389   0.276453   0.008399   0.001764  -0.004666
    22  H    0.000001  -0.000048   0.006845  -0.030700   0.001667   0.031827
    23  H    0.000761   0.004239  -0.001064  -0.000009   0.000000  -0.000011
    24  H   -0.000000   0.000005  -0.004109   0.101007  -0.589883  -0.072109
    25  H    0.000000  -0.000000   0.000029   0.009914  -0.037391  -0.009840
    26  H    0.000000  -0.000000   0.000000  -0.000093   0.027303  -0.000215
    27  H    0.000000   0.000000   0.000000   0.000008   0.001457  -0.000086
    28  H    0.000000   0.000000   0.000000   0.000008   0.001457  -0.000086
    29  H   -0.000000   0.000000  -0.000000  -0.000000  -0.000111   0.000003
    30  H   -0.000000   0.000000  -0.000000  -0.000000  -0.000111   0.000003
    31  H    0.000000  -0.000000   0.000000   0.000000   0.000054  -0.000000
    32  H    0.000000  -0.000000   0.000000   0.000000   0.000054  -0.000000
    33  H    0.000000   0.000000  -0.000000  -0.000000  -0.000000  -0.000000
    34  H    0.000000   0.000000  -0.000000  -0.000000  -0.000000  -0.000000
    35  H    0.000000   0.000000   0.000000   0.000000  -0.000000  -0.000000
               7          8          9         10         11         12
     1  S   -0.000192  -0.012152   0.000000  -0.000000  -0.000000   0.000000
     2  C    0.005192   0.168748  -0.000001   0.000000   0.000000  -0.000000
     3  C   -0.108923   0.034427  -0.015494  -0.000117   0.000013   0.000000
     4  C    0.034757   0.003139   0.752994  -0.042779   0.020836   0.000030
     5  C   -0.000051   0.000002  -7.266895   0.817033  -0.374344  -0.001572
     6  C   -0.072116   0.001932   0.322202  -0.040715  -0.029051  -0.000074
     7  C    6.095869   0.102128  -0.005389   0.000576   0.000033  -0.000000
     8  C    0.102128   5.657439   0.000019  -0.000003  -0.000000   0.000000
     9  C   -0.005389   0.000019  11.059195  -0.745402   0.505068  -0.011004
    10  C    0.000576  -0.000003  -0.745402   6.567876   0.133245  -0.054458
    11  C    0.000033  -0.000000   0.505068   0.133245   5.387409  -0.273926
    12  C   -0.000000   0.000000  -0.011004  -0.054458  -0.273926   5.422970
    13  C    0.000000  -0.000000   0.009162  -0.044720  -0.144456  -0.124983
    14  C   -0.000000   0.000000  -0.002001   0.021566  -0.022277   0.458035
    15  S   -0.000000   0.000000  -0.000062  -0.000338  -0.009595   0.018921
    16  C   -0.000000  -0.000000  -0.000000   0.000004   0.000018   0.003601
    17  S    0.000000  -0.000000  -0.000000  -0.000000  -0.000047   0.000469
    18  C   -0.000000   0.000000  -0.000028   0.002376   0.003966  -0.003903
    19  C    0.000001  -0.000000   0.117154  -0.374589   0.470623   0.135816
    20  H    0.004450  -0.008973  -0.000023   0.000000   0.000000  -0.000000
    21  H    0.055004  -0.013363   0.002342  -0.000055  -0.000012  -0.000000
    22  H    0.122122   0.002884  -0.012207  -0.003334  -0.002179  -0.000023
    23  H   -0.000434   0.154255   0.000000   0.000000   0.000000  -0.000000
    24  H    0.000330   0.000000   0.608936   0.012423   0.001639  -0.000033
    25  H   -0.001027   0.000010   0.019343   0.316228   0.057235   0.000466
    26  H   -0.000000   0.000000  -0.063498   0.014685  -0.051315   0.041210
    27  H   -0.000000  -0.000000   0.002095  -0.021179  -0.035484   0.421619
    28  H   -0.000000  -0.000000   0.002095  -0.021180  -0.035484   0.421619
    29  H    0.000000   0.000000   0.000466  -0.000366   0.012761  -0.044490
    30  H    0.000000   0.000000   0.000466  -0.000366   0.012761  -0.044490
    31  H    0.000000   0.000000   0.000010  -0.000076   0.000955  -0.024772
    32  H    0.000000   0.000000   0.000010  -0.000076   0.000954  -0.024771
    33  H    0.000000   0.000000  -0.000000  -0.000000  -0.000002  -0.000115
    34  H    0.000000   0.000000  -0.000000  -0.000000  -0.000002  -0.000115
    35  H   -0.000000  -0.000000   0.000000   0.000000  -0.000023  -0.001101
              13         14         15         16         17         18
     1  S   -0.000000   0.000000   0.000000   0.000000   0.000000  -0.000000
     2  C    0.000000  -0.000000  -0.000000   0.000000   0.000000   0.000000
     3  C    0.000000   0.000000   0.000000   0.000000  -0.000000  -0.000000
     4  C    0.000012  -0.000001   0.000000  -0.000000   0.000000  -0.000000
     5  C    0.002801  -0.004530   0.000191  -0.000001  -0.000000  -0.000823
     6  C   -0.000006   0.000008  -0.000000   0.000000  -0.000000   0.000000
     7  C    0.000000  -0.000000  -0.000000  -0.000000   0.000000  -0.000000
     8  C   -0.000000   0.000000   0.000000  -0.000000  -0.000000   0.000000
     9  C    0.009162  -0.002001  -0.000062  -0.000000  -0.000000  -0.000028
    10  C   -0.044720   0.021566  -0.000338   0.000004  -0.000000   0.002376
    11  C   -0.144456  -0.022277  -0.009595   0.000018  -0.000047   0.003966
    12  C   -0.124983   0.458035   0.018921   0.003601   0.000469  -0.003903
    13  C    6.106151  -0.181469   0.166469  -0.023216  -0.006339  -0.002111
    14  C   -0.181469   5.342239  -0.004195  -0.059487   0.014432   0.249974
    15  S    0.166469  -0.004195  16.099303  -0.046381  -0.072352   0.189279
    16  C   -0.023216  -0.059487  -0.046381   5.448281   0.854193   0.401543
    17  S   -0.006339   0.014432  -0.072352   0.854193  15.163392  -0.071921
    18  C   -0.002111   0.249974   0.189279   0.401543  -0.071921   6.036116
    19  C   -0.889437  -0.139670   0.022184  -0.008187  -0.002117  -0.086142
    20  H    0.000000  -0.000000  -0.000000   0.000000  -0.000000   0.000000
    21  H   -0.000000   0.000000  -0.000000  -0.000000  -0.000000  -0.000000
    22  H   -0.000000  -0.000000  -0.000000   0.000000   0.000000   0.000000
    23  H    0.000000  -0.000000   0.000000   0.000000   0.000000  -0.000000
    24  H    0.000120  -0.000022   0.000002  -0.000000   0.000000   0.000001
    25  H    0.000142   0.000501  -0.000002  -0.000000  -0.000000  -0.000004
    26  H   -0.096052   0.020174   0.026412  -0.000148   0.000105   0.012361
    27  H    0.013276  -0.044893  -0.000354  -0.000240  -0.000008  -0.007582
    28  H    0.013277  -0.044894  -0.000354  -0.000240  -0.000008  -0.007583
    29  H    0.556189  -0.026717  -0.128188   0.012847  -0.000118  -0.037197
    30  H    0.556197  -0.026716  -0.128189   0.012846  -0.000118  -0.037200
    31  H    0.011913   0.256476   0.016212  -0.069368  -0.003536  -0.225981
    32  H    0.011915   0.256470   0.016211  -0.069365  -0.003536  -0.225981
    33  H   -0.001318  -0.001114   0.015862  -0.277018  -0.003598  -0.019687
    34  H   -0.001318  -0.001114   0.015861  -0.277021  -0.003579  -0.019687
    35  H    0.010210  -0.013172  -0.005540   0.222700  -0.170254  -0.170170
              19         20         21         22         23         24
     1  S   -0.000000  -0.000384   0.000098   0.000001   0.000761  -0.000000
     2  C    0.000000   0.066892  -0.007389  -0.000048   0.004239   0.000005
     3  C   -0.000000   0.126182   0.276453   0.006845  -0.001064  -0.004109
     4  C    0.000505   0.000155   0.008399  -0.030700  -0.000009   0.101007
     5  C   -0.132403  -0.000009   0.001764   0.001667   0.000000  -0.589883
     6  C    0.000250  -0.000482  -0.004666   0.031827  -0.000011  -0.072109
     7  C    0.000001   0.004450   0.055004   0.122122  -0.000434   0.000330
     8  C   -0.000000  -0.008973  -0.013363   0.002884   0.154255   0.000000
     9  C    0.117154  -0.000023   0.002342  -0.012207   0.000000   0.608936
    10  C   -0.374589   0.000000  -0.000055  -0.003334   0.000000   0.012423
    11  C    0.470623   0.000000  -0.000012  -0.002179   0.000000   0.001639
    12  C    0.135816  -0.000000  -0.000000  -0.000023  -0.000000  -0.000033
    13  C   -0.889437   0.000000  -0.000000  -0.000000   0.000000   0.000120
    14  C   -0.139670  -0.000000   0.000000  -0.000000  -0.000000  -0.000022
    15  S    0.022184  -0.000000  -0.000000  -0.000000   0.000000   0.000002
    16  C   -0.008187   0.000000  -0.000000   0.000000   0.000000  -0.000000
    17  S   -0.002117  -0.000000  -0.000000   0.000000   0.000000   0.000000
    18  C   -0.086142   0.000000  -0.000000   0.000000  -0.000000   0.000001
    19  C    7.555537   0.000000  -0.000000  -0.000022   0.000000   0.004517
    20  H    0.000000   0.654529  -0.006548  -0.000046   0.001547   0.000073
    21  H   -0.000000  -0.006548   0.246676  -0.003588   0.000394  -0.000458
    22  H   -0.000022  -0.000046  -0.003588   0.830685  -0.000056   0.000340
    23  H    0.000000   0.001547   0.000394  -0.000056   0.804644   0.000000
    24  H    0.004517   0.000073  -0.000458   0.000340   0.000000   0.782823
    25  H   -0.002722  -0.000000   0.000017   0.016748  -0.000000  -0.001439
    26  H    0.306139  -0.000000  -0.000000  -0.000002  -0.000000  -0.000512
    27  H   -0.049695   0.000000  -0.000000   0.000003   0.000000   0.000033
    28  H   -0.049693   0.000000  -0.000000   0.000003   0.000000   0.000033
    29  H   -0.274700   0.000000   0.000000   0.000000   0.000000  -0.000037
    30  H   -0.274707   0.000000   0.000000   0.000000   0.000000  -0.000037
    31  H    0.039118  -0.000000  -0.000000  -0.000000  -0.000000   0.000000
    32  H    0.039118  -0.000000  -0.000000  -0.000000  -0.000000   0.000000
    33  H   -0.000102   0.000000  -0.000000   0.000000   0.000000   0.000000
    34  H   -0.000102   0.000000  -0.000000   0.000000   0.000000   0.000000
    35  H    0.002841  -0.000000   0.000000  -0.000000   0.000000   0.000000
              25         26         27         28         29         30
     1  S    0.000000   0.000000   0.000000   0.000000  -0.000000  -0.000000
     2  C   -0.000000  -0.000000   0.000000   0.000000   0.000000   0.000000
     3  C    0.000029   0.000000   0.000000   0.000000  -0.000000  -0.000000
     4  C    0.009914  -0.000093   0.000008   0.000008  -0.000000  -0.000000
     5  C   -0.037391   0.027303   0.001457   0.001457  -0.000111  -0.000111
     6  C   -0.009840  -0.000215  -0.000086  -0.000086   0.000003   0.000003
     7  C   -0.001027  -0.000000  -0.000000  -0.000000   0.000000   0.000000
     8  C    0.000010   0.000000  -0.000000  -0.000000   0.000000   0.000000
     9  C    0.019343  -0.063498   0.002095   0.002095   0.000466   0.000466
    10  C    0.316228   0.014685  -0.021179  -0.021180  -0.000366  -0.000366
    11  C    0.057235  -0.051315  -0.035484  -0.035484   0.012761   0.012761
    12  C    0.000466   0.041210   0.421619   0.421619  -0.044490  -0.044490
    13  C    0.000142  -0.096052   0.013276   0.013277   0.556189   0.556197
    14  C    0.000501   0.020174  -0.044893  -0.044894  -0.026717  -0.026716
    15  S   -0.000002   0.026412  -0.000354  -0.000354  -0.128188  -0.128189
    16  C   -0.000000  -0.000148  -0.000240  -0.000240   0.012847   0.012846
    17  S   -0.000000   0.000105  -0.000008  -0.000008  -0.000118  -0.000118
    18  C   -0.000004   0.012361  -0.007582  -0.007583  -0.037197  -0.037200
    19  C   -0.002722   0.306139  -0.049695  -0.049693  -0.274700  -0.274707
    20  H   -0.000000  -0.000000   0.000000   0.000000   0.000000   0.000000
    21  H    0.000017  -0.000000  -0.000000  -0.000000   0.000000   0.000000
    22  H    0.016748  -0.000002   0.000003   0.000003   0.000000   0.000000
    23  H   -0.000000  -0.000000   0.000000   0.000000   0.000000   0.000000
    24  H   -0.001439  -0.000512   0.000033   0.000033  -0.000037  -0.000037
    25  H    0.418529  -0.000249  -0.000207  -0.000207   0.000023   0.000023
    26  H   -0.000249   0.900166   0.001414   0.001414  -0.089507  -0.089506
    27  H   -0.000207   0.001414   0.546835  -0.010308  -0.000518  -0.004790
    28  H   -0.000207   0.001414  -0.010308   0.546831  -0.004791  -0.000518
    29  H    0.000023  -0.089507  -0.000518  -0.004791   0.791456   0.077533
    30  H    0.000023  -0.089506  -0.004790  -0.000518   0.077533   0.791461
    31  H    0.000001  -0.000156  -0.008026   0.004059  -0.004923  -0.016963
    32  H    0.000001  -0.000156   0.004059  -0.008026  -0.016964  -0.004923
    33  H   -0.000000   0.000001   0.000003  -0.000000   0.000032   0.000327
    34  H   -0.000000   0.000001  -0.000000   0.000003   0.000327   0.000032
    35  H   -0.000000   0.000064   0.000094   0.000094  -0.003850  -0.003850
              31         32         33         34         35
     1  S    0.000000   0.000000   0.000000   0.000000   0.000000
     2  C   -0.000000  -0.000000   0.000000   0.000000   0.000000
     3  C    0.000000   0.000000  -0.000000  -0.000000   0.000000
     4  C    0.000000   0.000000  -0.000000  -0.000000   0.000000
     5  C    0.000054   0.000054  -0.000000  -0.000000  -0.000000
     6  C   -0.000000  -0.000000  -0.000000  -0.000000  -0.000000
     7  C    0.000000   0.000000   0.000000   0.000000  -0.000000
     8  C    0.000000   0.000000   0.000000   0.000000  -0.000000
     9  C    0.000010   0.000010  -0.000000  -0.000000   0.000000
    10  C   -0.000076  -0.000076  -0.000000  -0.000000   0.000000
    11  C    0.000955   0.000954  -0.000002  -0.000002  -0.000023
    12  C   -0.024772  -0.024771  -0.000115  -0.000115  -0.001101
    13  C    0.011913   0.011915  -0.001318  -0.001318   0.010210
    14  C    0.256476   0.256470  -0.001114  -0.001114  -0.013172
    15  S    0.016212   0.016211   0.015862   0.015861  -0.005540
    16  C   -0.069368  -0.069365  -0.277018  -0.277021   0.222700
    17  S   -0.003536  -0.003536  -0.003598  -0.003579  -0.170254
    18  C   -0.225981  -0.225981  -0.019687  -0.019687  -0.170170
    19  C    0.039118   0.039118  -0.000102  -0.000102   0.002841
    20  H   -0.000000  -0.000000   0.000000   0.000000  -0.000000
    21  H   -0.000000  -0.000000  -0.000000  -0.000000   0.000000
    22  H   -0.000000  -0.000000   0.000000   0.000000  -0.000000
    23  H   -0.000000  -0.000000   0.000000   0.000000   0.000000
    24  H    0.000000   0.000000   0.000000   0.000000   0.000000
    25  H    0.000001   0.000001  -0.000000  -0.000000  -0.000000
    26  H   -0.000156  -0.000156   0.000001   0.000001   0.000064
    27  H   -0.008026   0.004059   0.000003  -0.000000   0.000094
    28  H    0.004059  -0.008026  -0.000000   0.000003   0.000094
    29  H   -0.004923  -0.016964   0.000032   0.000327  -0.003850
    30  H   -0.016963  -0.004923   0.000327   0.000032  -0.003850
    31  H    0.812693   0.032811   0.007691  -0.004312   0.073301
    32  H    0.032811   0.812699  -0.004312   0.007691   0.073301
    33  H    0.007691  -0.004312   1.153690   0.170997   0.040788
    34  H   -0.004312   0.007691   0.170997   1.153680   0.040782
    35  H    0.073301   0.073301   0.040788   0.040782   0.865207
 Mulliken charges:
               1
     1  S   -0.218240
     2  C   -0.014023
     3  C   -0.302471
     4  C   -0.334184
     5  C   -0.560009
     6  C   -0.016453
     7  C   -0.232330
     8  C   -0.090490
     9  C    0.720450
    10  C   -0.536259
    11  C    0.370678
    12  C   -0.314925
    13  C    0.057588
    14  C   -0.047601
    15  S   -0.191357
    16  C   -0.125362
    17  S    0.304938
    18  C    0.020384
    19  C   -0.409513
    20  H    0.162637
    21  H    0.444933
    22  H    0.039083
    23  H    0.035735
    24  H    0.156359
    25  H    0.213881
    26  H    0.039962
    27  H    0.192475
    28  H    0.192478
    29  H    0.180839
    30  H    0.180836
    31  H    0.102819
    32  H    0.102816
    33  H   -0.082125
    34  H   -0.082124
    35  H    0.038577
 Sum of Mulliken charges =  -0.00000
 Mulliken charges with hydrogens summed into heavy atoms:
               1
     1  S   -0.218240
     2  C   -0.014023
     3  C    0.305099
     4  C   -0.334184
     5  C   -0.560009
     6  C   -0.016453
     7  C   -0.193247
     8  C   -0.054754
     9  C    0.876808
    10  C   -0.322379
    11  C    0.370678
    12  C    0.070027
    13  C    0.419263
    14  C    0.158034
    15  S   -0.191357
    16  C   -0.251034
    17  S    0.304938
    18  C    0.020384
    19  C   -0.369551
 Electronic spatial extent (au):  <R**2>=          16477.0084
 Charge=             -0.0000 electrons
 Dipole moment (field-independent basis, Debye):
    X=            -11.8128    Y=             -0.3291    Z=              0.0000  Tot=             11.8174
 Quadrupole moment (field-independent basis, Debye-Ang):
   XX=           -209.6549   YY=           -142.9611   ZZ=           -137.5717
   XY=              9.2877   XZ=              0.0003   YZ=              0.0000
 Traceless Quadrupole moment (field-independent basis, Debye-Ang):
   XX=            -46.2590   YY=             20.4348   ZZ=             25.8242
   XY=              9.2877   XZ=              0.0003   YZ=              0.0000
 Octapole moment (field-independent basis, Debye-Ang**2):
  XXX=           -667.5758  YYY=            -30.0749  ZZZ=             -0.0000  XYY=            -16.2567
  XXY=            -59.6868  XXZ=              0.0008  XZZ=            -46.4128  YZZ=             -3.8068
  YYZ=              0.0001  XYZ=             -0.0000
 Hexadecapole moment (field-independent basis, Debye-Ang**3):
 XXXX=         -28566.3701 YYYY=          -1058.2784 ZZZZ=           -188.7628 XXXY=            990.0718
 XXXZ=              0.0164 YYYX=             53.3354 YYYZ=              0.0004 ZZZX=              0.0004
 ZZZY=             -0.0000 XXYY=          -4262.5727 XXZZ=          -3930.6342 YYZZ=           -211.2675
 XXYZ=              0.0008 YYXZ=              0.0010 ZZXY=              4.8007
[...]
     10          6           0        0.430742    1.939518    0.000001
     11          6           0       -0.541528    0.965523   -0.000005
     12          6           0       -2.554360    1.852137   -0.000006
     13          6           0       -3.394215   -0.651285   -0.000016
     14          6           0       -4.047125    1.438194   -0.000002
     15         16           0       -4.908639   -1.762520   -0.000008
     16          6           0       -6.321610    0.096115   -0.000010
     17         16           0       -7.696575   -0.880195    0.000022
     18          6           0       -4.860885    0.063399   -0.000004
     19          6           0       -1.715377    0.283792   -0.000004
     20          1           0        5.764796   -1.905384   -0.000005
     21          1           0        5.666339    0.265511    0.000001
     22          1           0        5.135621    2.535578    0.000017
     23          1           0        8.673423    1.021214    0.000009
     24          1           0        2.612464   -0.820946   -0.000003
     25          1           0        0.923357    2.994171   -0.000004
     26          1           0       -1.193291   -0.692155   -0.000004
     27          1           0       -2.302351    2.091529   -1.017865
     28          1           0       -2.302363    2.091524    1.017856
     29          1           0       -3.280547   -0.747399    1.092880
     30          1           0       -3.280551   -0.747388   -1.092915
     31          1           0       -4.816519    1.854328   -0.792964
     32          1           0       -4.816512    1.854329    0.792969
     33          1           0       -7.715430    2.069843   -0.341521
     34          1           0       -7.715434    2.069836    0.341553
     35          1           0       -6.340988    1.319615    0.000008
 ---------------------------------------------------------------------
 Rotational constants (GHZ):           1.0448773           0.0564614           0.0536351
 Standard basis: 6-31G(2df,p) (6D, 7F)
 There are   681 symmetry adapted cartesian basis functions of A   symmetry.
 There are   624 symmetry adapted basis functions of A   symmetry.
   624 basis functions,  1020 primitive gaussians,   681 cartesian basis functions
    80 alpha electrons       80 beta electrons
       nuclear repulsion energy      1449.7626860474 Hartrees.
 NAtoms=   35 NActive=   35 NUniq=   35 SFac= 1.00D+00 NAtFMM=   60 NAOKFM=F Big=F
 Integral buffers will be    131072 words long.
 Raffenetti 2 integral format.
 Two-electron integral symmetry is turned on.
 One-electron integrals computed using PRISM.
 PrsmSu:  requested number of processors reduced to:  12 ShMem   1 Linda.
 NBasis=   624 RedAO= T EigKep=  1.38D-04  NBF=   624
 NBsUse=   624 1.00D-06 EigRej= -1.00D+00 NBFU=   624
 Initial guess from the checkpoint file:  "Sdc1ccc2cqcc1rdCCdCCCCSCSCdCd2.chk"
 B after Tr=    -0.000000    0.000000    0.000000
         Rot=    1.000000    0.000000   -0.000000   -0.000635 Ang=   0.07 deg.
 ExpMin= 1.17D-01 ExpMax= 2.19D+04 ExpMxC= 3.30D+03 IAcc=2 IRadAn=         4 AccDes= 0.00D+00
 Harris functional with IExCor=  402 and IRadAn=       4 diagonalized for initial guess.
 HarFok:  IExCor=  402 AccDes= 0.00D+00 IRadAn=         4 IDoV= 1 UseB2=F ITyADJ=14
 ICtDFT=  3500011 ScaDFX=  1.000000  1.000000  1.000000  1.000000
 FoFCou: FMM=F IPFlag=           0 FMFlag=      100000 FMFlg1=           0
         NFxFlg=           0 DoJE=T BraDBF=F KetDBF=T FulRan=T
         wScrn=  0.000000 ICntrl=       500 IOpCl=  0 I1Cent=   200000004 NGrid=           0
         NMat0=    1 NMatS0=      1 NMatT0=    0 NMatD0=    1 NMtDS0=    0 NMtDT0=    0
 Petite list used in FoFCou.
 Requested convergence on RMS density matrix=1.00D-08 within 128 cycles.
 Requested convergence on MAX density matrix=1.00D-06.
 Requested convergence on             energy=1.00D-06.
 No special actions if energy rises.
 Integral accuracy reduced to 1.0D-05 until final iterations.
 Initial convergence to 1.0D-05 achieved.  Increase integral accuracy.
 SCF Done:  E(RB3LYP) =  -1812.64360960     A.U. after   17 cycles
            NFock= 17  Conv=0.46D-08     -V/T= 2.0052
 PrsmSu:  requested number of processors reduced to:  12 ShMem   1 Linda.
 Calling FoFJK, ICntrl=      2127 FMM=F ISym2X=0 I1Cent= 0 IOpClX= 0 NMat=1 NMatS=1 NMatT=0.
 ***** Axes restored to original set *****
 -------------------------------------------------------------------
 Center     Atomic                   Forces (Hartrees/Bohr)
 Number     Number              X              Y              Z
 -------------------------------------------------------------------
      1       16           0.001429215    0.006235752    0.004748714
      2        6          -0.016026167    0.017052006    0.012987523
      3        6          -0.070864512   -0.040479703   -0.030822182
      4        6           0.014501506    0.044665706    0.034013547
      5        6           0.064823876    0.082011732    0.062451706
      6        6           0.045414141   -0.050924057   -0.038784451
      7        6          -0.047812706    0.022496441    0.017134365
      8        6           0.011526039   -0.028350508   -0.021590166
      9        6           0.013832167   -0.059858556   -0.045588860
     10        6          -0.071296279    0.016764397    0.012774246
     11        6          -0.059067863   -0.010944096   -0.008330142
     12        6          -0.001980460   -0.103555492   -0.078865127
     13        6           0.027914275   -0.094397147   -0.071888309
     14        6           0.138145772   -0.012019204   -0.009167981
     15       16          -0.032518112   -0.014560897   -0.011089190
     16        6           0.000817284    0.080011827    0.060932781
     17       16          -0.012263786    0.012575025    0.009579213
     18        6           0.021459309   -0.035661990   -0.027158854
     19        6          -0.033511747    0.101228934    0.077095690
     20        1           0.032777019   -0.013975291   -0.010645338
     21        1           0.044530515    0.068722474    0.052332951
     22        1          -0.082675556    0.003269686    0.002497885
     23        1           0.072498305   -0.018164740   -0.013840009
     24        1           0.009974041    0.006763067    0.005150563
     25        1           0.000098365   -0.039842753   -0.030343540
     26        1           0.023194095   -0.026779358   -0.020396194
     27        1           0.009520629    0.028902129    0.010035350
     28        1           0.009520976    0.017359491    0.025193912
     29        1          -0.019295052    0.003340977    0.030554896
     30        1          -0.019298542    0.030341740   -0.004900447
     31        1          -0.041903280    0.026361098    0.017388236
     32        1          -0.041903515    0.023767171    0.020795941
     33        1           0.016065074   -0.028935958    0.038383598
     34        1           0.016058798    0.029310823   -0.038101072
     35        1          -0.023683822   -0.042730725   -0.032539256
 -------------------------------------------------------------------
 Cartesian Forces:  Max     0.138145772 RMS     0.041597004

 GradGradGradGradGradGradGradGradGradGradGradGradGradGradGradGradGradGrad
 Berny optimization.
 Using GEDIIS/GDIIS optimizer.
 FormGI is forming the generalized inverse of G from B-inverse, IUseBI=4.
 Internal  Forces:  Max     0.077981082 RMS     0.017457938
 Search for a local minimum.
 Step number  10 out of a maximum of  210
 All quantities printed in internal units (Hartrees-Bohrs-Radians)
 Mixed Optimization -- RFO/linear search
 Update second derivatives using D2CorX and points    9   10
 DE= -1.38D-01 DEPred=-1.71D-01 R= 8.08D-01
 TightC=F SS=  1.41D+00  RLast= 9.02D-01 DXNew= 2.4000D+00 2.7062D+00
 Trust test= 8.08D-01 RLast= 9.02D-01 DXMaxT set to 2.40D+00
 ITU=  1  1  0  0  1  0  0  0  1  0
 Use linear search instead of GDIIS.
     Eigenvalues ---    0.00073   0.00230   0.00230   0.00230   0.00230
     Eigenvalues ---    0.00230   0.00230   0.00230   0.00230   0.00234
     Eigenvalues ---    0.00359   0.00477   0.00517   0.00631   0.00973
     Eigenvalues ---    0.01381   0.01530   0.01838   0.01934   0.02819
     Eigenvalues ---    0.02855   0.02920   0.03351   0.03991   0.04065
     Eigenvalues ---    0.04402   0.04764   0.05142   0.05144   0.05318
     Eigenvalues ---    0.05442   0.05540   0.05782   0.05851   0.05905
     Eigenvalues ---    0.06123   0.06967   0.07271   0.07481   0.07531
     Eigenvalues ---    0.07586   0.08047   0.08624   0.09322   0.09345
     Eigenvalues ---    0.09449   0.09826   0.09967   0.10666   0.10742
     Eigenvalues ---    0.10798   0.12454   0.12583   0.12994   0.13034
     Eigenvalues ---    0.13440   0.13871   0.13967   0.14455   0.14803
     Eigenvalues ---    0.15497   0.15907   0.16000   0.16120   0.16427
     Eigenvalues ---    0.17054   0.17335   0.17444   0.18662   0.18883
     Eigenvalues ---    0.19340   0.19681   0.20353   0.21258   0.21471
     Eigenvalues ---    0.22690   0.22960   0.24932   0.26761   0.27171
     Eigenvalues ---    0.28668   0.30049   0.36034   0.36401   0.37839
     Eigenvalues ---    0.39781   0.40803   0.40939   0.43561   0.44095
     Eigenvalues ---    0.48498   0.53086   0.65800   0.75357   1.00845
     Eigenvalues ---    1.18789   1.99750   5.69108   7.05921
 RFO step:  Lambda=-3.84487747D-01 EMin= 7.27308377D-04
 Quartic linear search produced a step of  2.00000.
 Iteration  1 RMS(Cart)=  0.00849842 RMS(Int)=  0.23863489
 Iteration  2 RMS(Cart)=  0.13684447 RMS(Int)=  0.22599399
 Iteration  3 RMS(Cart)=  0.03135844 RMS(Int)=  0.20443374
 Iteration  4 RMS(Cart)=  0.00093203 RMS(Int)=  0.18317524
 Iteration  5 RMS(Cart)=  0.00097883 RMS(Int)=  0.16546734
 Iteration  6 RMS(Cart)=  0.00063162 RMS(Int)=  0.15688091
 Iteration  7 RMS(Cart)=  0.00027392 RMS(Int)=  0.15364406
 Iteration  8 RMS(Cart)=  0.00019303 RMS(Int)=  0.15138772
 Iteration  9 RMS(Cart)=  0.00016562 RMS(Int)=  0.14943083
 Iteration 10 RMS(Cart)=  0.00015189 RMS(Int)=  0.14760572
 Iteration 11 RMS(Cart)=  0.00014337 RMS(Int)=  0.14584788
 Iteration 12 RMS(Cart)=  0.00013736 RMS(Int)=  0.14412452
 Iteration 13 RMS(Cart)=  0.00013276 RMS(Int)=  0.14241463
 Iteration 14 RMS(Cart)=  0.00012905 RMS(Int)=  0.14070120
 Iteration 15 RMS(Cart)=  0.00012596 RMS(Int)=  0.13896645
 Iteration 16 RMS(Cart)=  0.00012335 RMS(Int)=  0.13718651
 Iteration 17 RMS(Cart)=  0.00012119 RMS(Int)=  0.13532073
 Iteration 18 RMS(Cart)=  0.00011945 RMS(Int)=  0.13327946
 Iteration 19 RMS(Cart)=  0.00011846 RMS(Int)=  0.13076365
 Iteration 20 RMS(Cart)=  0.00011921 RMS(Int)=  0.12393459
 Iteration 21 RMS(Cart)=  0.00013478 RMS(Int)=  0.22038257
 Iteration 22 RMS(Cart)=  0.00026266 RMS(Int)=  0.12343661
 Iteration 23 RMS(Cart)=  0.00014553 RMS(Int)=  0.10609774
 Iteration 24 RMS(Cart)=  0.00018172 RMS(Int)=  0.23857565
 Iteration 25 RMS(Cart)=  0.00016366 RMS(Int)=  0.20692980
 Iteration 26 RMS(Cart)=  0.00034822 RMS(Int)=  0.13774679
 Iteration 27 RMS(Cart)=  0.00010627 RMS(Int)=  0.13568899
 Iteration 28 RMS(Cart)=  0.00010675 RMS(Int)=  0.13308841
 Iteration 29 RMS(Cart)=  0.00010894 RMS(Int)=  0.12244286
 Iteration 30 RMS(Cart)=  0.00013718 RMS(Int)=  0.22210500
 Iteration 31 RMS(Cart)=  0.00025234 RMS(Int)=  0.12131721
 Iteration 32 RMS(Cart)=  0.00015064 RMS(Int)=  0.21448707
 Iteration 33 RMS(Cart)=  0.00029565 RMS(Int)=  0.13012931
 Iteration 34 RMS(Cart)=  0.00013134 RMS(Int)=  0.12744351
 Iteration 35 RMS(Cart)=  0.00013121 RMS(Int)=  0.11145849
 Iteration 36 RMS(Cart)=  0.00017177 RMS(Int)=  0.23319245
 Iteration 37 RMS(Cart)=  0.00019100 RMS(Int)=  0.10495774
 Iteration 38 RMS(Cart)=  0.00018711 RMS(Int)=  0.23952404
 Iteration 39 RMS(Cart)=  0.00015774 RMS(Int)=  0.04547170
 Iteration 40 RMS(Cart)=  0.00027043 RMS(Int)=  0.29983622
 Iteration 41 RMS(Cart)=  0.00043395 RMS(Int)=  0.29142952
 Iteration 42 RMS(Cart)=  0.00018630 RMS(Int)=  0.27262835
 Iteration 43 RMS(Cart)=  0.00006027 RMS(Int)=  0.27086462
 Iteration 44 RMS(Cart)=  0.00005973 RMS(Int)=  0.26914095
 Iteration 45 RMS(Cart)=  0.00006000 RMS(Int)=  0.26742285
 Iteration 46 RMS(Cart)=  0.00006080 RMS(Int)=  0.26568201
 Iteration 47 RMS(Cart)=  0.00006203 RMS(Int)=  0.26388287
 Iteration 48 RMS(Cart)=  0.00006372 RMS(Int)=  0.26196075
 Iteration 49 RMS(Cart)=  0.00006604 RMS(Int)=  0.25974186
 Iteration 50 RMS(Cart)=  0.00006955 RMS(Int)=  0.25622765
 Iteration 51 RMS(Cart)=  0.00007812 RMS(Int)=  0.08658269
 Iteration 52 RMS(Cart)=  0.00022305 RMS(Int)=  0.25804633
 Iteration 53 RMS(Cart)=  0.00008049 RMS(Int)=  0.25560337
 Iteration 54 RMS(Cart)=  0.00008448 RMS(Int)=  0.24955170
 Iteration 55 RMS(Cart)=  0.00010328 RMS(Int)=  0.09481199
 Iteration 56 RMS(Cart)=  0.00021221 RMS(Int)=  0.24919670
 Iteration 57 RMS(Cart)=  0.00011183 RMS(Int)=  0.24064133
 Iteration 58 RMS(Cart)=  0.00014311 RMS(Int)=  0.10389330
 Iteration 59 RMS(Cart)=  0.00019688 RMS(Int)=  0.23862053
 Iteration 60 RMS(Cart)=  0.00015688 RMS(Int)=  0.10488462
 Iteration 61 RMS(Cart)=  0.00019177 RMS(Int)=  0.23884731
 Iteration 62 RMS(Cart)=  0.00015791 RMS(Int)=  0.10280464
 Iteration 63 RMS(Cart)=  0.00019390 RMS(Int)=  0.24151478
 Iteration 64 RMS(Cart)=  0.00014718 RMS(Int)=  0.03404931
 Iteration 65 RMS(Cart)=  0.00028581 RMS(Int)=  0.31161746
 Iteration 66 RMS(Cart)=  0.00074676 RMS(Int)=  0.30561717
 Iteration 67 RMS(Cart)=  0.00021350 RMS(Int)=  0.28407264
 Iteration 68 RMS(Cart)=  0.00020138 RMS(Int)=  0.27663023
 Iteration 69 RMS(Cart)=  0.00007824 RMS(Int)=  0.27438843
 Iteration 70 RMS(Cart)=  0.00006809 RMS(Int)=  0.27249253
 Iteration 71 RMS(Cart)=  0.00006482 RMS(Int)=  0.27071493
 Iteration 72 RMS(Cart)=  0.00006369 RMS(Int)=  0.26898560
 Iteration 73 RMS(Cart)=  0.00006354 RMS(Int)=  0.26726900
 Iteration 74 RMS(Cart)=  0.00006400 RMS(Int)=  0.26553813
 Iteration 75 RMS(Cart)=  0.00006492 RMS(Int)=  0.26376231
 Iteration 76 RMS(Cart)=  0.00006629 RMS(Int)=  0.26189139
 Iteration 77 RMS(Cart)=  0.00006822 RMS(Int)=  0.25980854
 Iteration 78 RMS(Cart)=  0.00007108 RMS(Int)=  0.25704744
 Iteration 79 RMS(Cart)=  0.00007661 RMS(Int)=  0.04932284
 Iteration 80 RMS(Cart)=  0.00026640 RMS(Int)=  0.29591044
 Iteration 81 RMS(Cart)=  0.00032211 RMS(Int)=  0.28586980
 Iteration 82 RMS(Cart)=  0.00015895 RMS(Int)=  0.27235001
 Iteration 83 RMS(Cart)=  0.00005183 RMS(Int)=  0.27062090
 Iteration 84 RMS(Cart)=  0.00005255 RMS(Int)=  0.26890317
 Iteration 85 RMS(Cart)=  0.00005372 RMS(Int)=  0.26716461
 Iteration 86 RMS(Cart)=  0.00005529 RMS(Int)=  0.26536768
 Iteration 87 RMS(Cart)=  0.00005727 RMS(Int)=  0.26344541
 Iteration 88 RMS(Cart)=  0.00005985 RMS(Int)=  0.26121606
 Iteration 89 RMS(Cart)=  0.00006512 RMS(Int)=  0.25750259
 Iteration 90 RMS(Cart)=  0.00007272 RMS(Int)=  0.08572825
 Iteration 91 RMS(Cart)=  0.00022463 RMS(Int)=  0.25889059
 Iteration 92 RMS(Cart)=  0.00007742 RMS(Int)=  0.25650860
 Iteration 93 RMS(Cart)=  0.00008125 RMS(Int)=  0.25145960
 Iteration 94 RMS(Cart)=  0.00009594 RMS(Int)=  0.09269530
 Iteration 95 RMS(Cart)=  0.00021493 RMS(Int)=  0.25153167
 Iteration 96 RMS(Cart)=  0.00010314 RMS(Int)=  0.24701463
 Iteration 97 RMS(Cart)=  0.00011578 RMS(Int)=  0.09685697
 Iteration 98 RMS(Cart)=  0.00020761 RMS(Int)=  0.24725377
 Iteration 99 RMS(Cart)=  0.00012049 RMS(Int)=  0.23614508
 Iteration100 RMS(Cart)=  0.00016573 RMS(Int)=  0.10846304
 New curvilinear step not converged.
 ITry= 1 IFail=1 DXMaxC= 9.80D-01 DCOld= 1.00D+10 DXMaxT= 2.40D+00 DXLimC= 3.00D+00 Rises=F
 Iteration  1 RMS(Cart)=  0.00843168 RMS(Int)=  0.23910042
 Iteration  2 RMS(Cart)=  0.13815917 RMS(Int)=  0.22702797
 Iteration  3 RMS(Cart)=  0.02805681 RMS(Int)=  0.20549524
 Iteration  4 RMS(Cart)=  0.00082185 RMS(Int)=  0.18421771
 Iteration  5 RMS(Cart)=  0.00087985 RMS(Int)=  0.16658494
 Iteration  6 RMS(Cart)=  0.00056033 RMS(Int)=  0.15814948
 Iteration  7 RMS(Cart)=  0.00024464 RMS(Int)=  0.15493543
 Iteration  8 RMS(Cart)=  0.00017341 RMS(Int)=  0.15268118
 Iteration  9 RMS(Cart)=  0.00014901 RMS(Int)=  0.15072299
 Iteration 10 RMS(Cart)=  0.00013671 RMS(Int)=  0.14889563
 Iteration 11 RMS(Cart)=  0.00012905 RMS(Int)=  0.14713532
 Iteration 12 RMS(Cart)=  0.00012364 RMS(Int)=  0.14540945
 Iteration 13 RMS(Cart)=  0.00011950 RMS(Int)=  0.14369706
 Iteration 14 RMS(Cart)=  0.00011614 RMS(Int)=  0.14198111
 Iteration 15 RMS(Cart)=  0.00011334 RMS(Int)=  0.14024373
 Iteration 16 RMS(Cart)=  0.00011098 RMS(Int)=  0.13846086
 Iteration 17 RMS(Cart)=  0.00010901 RMS(Int)=  0.13659137
 Iteration 18 RMS(Cart)=  0.00010746 RMS(Int)=  0.13454397
 Iteration 19 RMS(Cart)=  0.00010648 RMS(Int)=  0.13201130
 Iteration 20 RMS(Cart)=  0.00010655 RMS(Int)=  0.12482230
 Iteration 21 RMS(Cart)=  0.00012226 RMS(Int)=  0.21942385
 Iteration 22 RMS(Cart)=  0.00023468 RMS(Int)=  0.12422294
 Iteration 23 RMS(Cart)=  0.00013203 RMS(Int)=  0.09158026
 Iteration 24 RMS(Cart)=  0.00020153 RMS(Int)=  0.25308107
 Iteration 25 RMS(Cart)=  0.00008712 RMS(Int)=  0.25042844
 Iteration 26 RMS(Cart)=  0.00009127 RMS(Int)=  0.23260314
 Iteration 27 RMS(Cart)=  0.00015948 RMS(Int)=  0.11197401
 Iteration 28 RMS(Cart)=  0.00016447 RMS(Int)=  0.21793127
 Iteration 29 RMS(Cart)=  0.00023764 RMS(Int)=  0.12659797
 Iteration 30 RMS(Cart)=  0.00013109 RMS(Int)=  0.12318652
 Iteration 31 RMS(Cart)=  0.00013134 RMS(Int)=  0.21824077
 Iteration 32 RMS(Cart)=  0.00023795 RMS(Int)=  0.12609485
 Iteration 33 RMS(Cart)=  0.00013076 RMS(Int)=  0.12192459
 Iteration 34 RMS(Cart)=  0.00013306 RMS(Int)=  0.22132416
 Iteration 35 RMS(Cart)=  0.00022231 RMS(Int)=  0.12269314
 Iteration 36 RMS(Cart)=  0.00013772 RMS(Int)=  0.10981309
 Iteration 37 RMS(Cart)=  0.00015970 RMS(Int)=  0.23467557
 Iteration 38 RMS(Cart)=  0.00015880 RMS(Int)=  0.09680948
 Iteration 39 RMS(Cart)=  0.00018434 RMS(Int)=  0.24775449
 Iteration 40 RMS(Cart)=  0.00010500 RMS(Int)=  0.24409012
 Iteration 41 RMS(Cart)=  0.00011289 RMS(Int)=  0.09866407
 Iteration 42 RMS(Cart)=  0.00018400 RMS(Int)=  0.24553521
 Iteration 43 RMS(Cart)=  0.00011173 RMS(Int)=  0.23802895
 Iteration 44 RMS(Cart)=  0.00013606 RMS(Int)=  0.10630799
 Iteration 45 RMS(Cart)=  0.00017424 RMS(Int)=  0.23594445
 Iteration 46 RMS(Cart)=  0.00014774 RMS(Int)=  0.10763834
 Iteration 47 RMS(Cart)=  0.00016954 RMS(Int)=  0.23566230
 Iteration 48 RMS(Cart)=  0.00015054 RMS(Int)=  0.10711655
 Iteration 49 RMS(Cart)=  0.00016921 RMS(Int)=  0.23668896
 Iteration 50 RMS(Cart)=  0.00014699 RMS(Int)=  0.10444134
 Iteration 51 RMS(Cart)=  0.00017299 RMS(Int)=  0.23978166
 Iteration 52 RMS(Cart)=  0.00013495 RMS(Int)=  0.05405271
 Iteration 53 RMS(Cart)=  0.00023863 RMS(Int)=  0.29090105
 Iteration 54 RMS(Cart)=  0.00017571 RMS(Int)=  0.27820897
 Iteration 55 RMS(Cart)=  0.00004954 RMS(Int)=  0.27526974
 Iteration 56 RMS(Cart)=  0.00003677 RMS(Int)=  0.27340655
 Iteration 57 RMS(Cart)=  0.00003663 RMS(Int)=  0.27166057
 Iteration 58 RMS(Cart)=  0.00003768 RMS(Int)=  0.26994158
 Iteration 59 RMS(Cart)=  0.00003919 RMS(Int)=  0.26820637
 Iteration 60 RMS(Cart)=  0.00004103 RMS(Int)=  0.26641276
 Iteration 61 RMS(Cart)=  0.00004318 RMS(Int)=  0.26448917
 Iteration 62 RMS(Cart)=  0.00004581 RMS(Int)=  0.26223783
 Iteration 63 RMS(Cart)=  0.00004953 RMS(Int)=  0.25833118
 Iteration 64 RMS(Cart)=  0.00005871 RMS(Int)=  0.08513545
 Iteration 65 RMS(Cart)=  0.00020389 RMS(Int)=  0.25935175
 Iteration 66 RMS(Cart)=  0.00006456 RMS(Int)=  0.25709644
 Iteration 67 RMS(Cart)=  0.00006766 RMS(Int)=  0.25335459
 Iteration 68 RMS(Cart)=  0.00007604 RMS(Int)=  0.08974586
 Iteration 69 RMS(Cart)=  0.00019775 RMS(Int)=  0.25466511
 Iteration 70 RMS(Cart)=  0.00007927 RMS(Int)=  0.25191054
 Iteration 71 RMS(Cart)=  0.00008382 RMS(Int)=  0.01042038
 New curvilinear step failed, DQL= 5.44D+00 SP=-6.52D-01.
 ITry= 2 IFail=1 DXMaxC= 9.61D-01 DCOld= 1.00D+10 DXMaxT= 2.40D+00 DXLimC= 3.00D+00 Rises=F
slurmstepd: error: *** JOB 27446933 ON lewis4-r630-hpc4-node672 CANCELLED AT 2023-05-17T00:30:17 DUE TO TIME LIMIT ***
