### Starting Gaussian ###
 Entering Gaussian System, Link 0=g16
 Initial command:
 /cluster/software/gaussian/gaussian-16-A.03/avx2/g16/l1.exe "/local/scratch/cz9n3/Gau-9166.inp" -scrdir="/local/scratch/cz9n3/"
 Entering Link 1 = /cluster/software/gaussian/gaussian-16-A.03/avx2/g16/l1.exe PID=      9167.
  
 Copyright (c) 1988,1990,1992,1993,1995,1998,2003,2009,2016,
            Gaussian, Inc.  All Rights Reserved.
  
 This is part of the Gaussian(R) 16 program.  It is based on
 the Gaussian(R) 09 system (copyright 2009, Gaussian, Inc.),
 the Gaussian(R) 03 system (copyright 2003, Gaussian, Inc.),
 the Gaussian(R) 98 system (copyright 1998, Gaussian, Inc.),
 the Gaussian(R) 94 system (copyright 1995, Gaussian, Inc.),
 the Gaussian 92(TM) system (copyright 1992, Gaussian, Inc.),
 the Gaussian 90(TM) system (copyright 1990, Gaussian, Inc.),
 the Gaussian 88(TM) system (copyright 1988, Gaussian, Inc.),
 the Gaussian 86(TM) system (copyright 1986, Carnegie Mellon
 University), and the Gaussian 82(TM) system (copyright 1983,
 Carnegie Mellon University). Gaussian is a federally registered
 trademark of Gaussian, Inc.
  
 This software contains proprietary and confidential information,
 including trade secrets, belonging to Gaussian, Inc.
  
 This software is provided under written license and may be
 used, copied, transmitted, or stored only in accord with that
 written license.
  
 The following legend is applicable only to US Government
 contracts under FAR:
  
                    RESTRICTED RIGHTS LEGEND
  
 Use, reproduction and disclosure by the US Government is
 subject to restrictions as set forth in subparagraphs (a)
 and (c) of the Commercial Computer Software - Restricted
 Rights clause in FAR 52.227-19.
  
 Gaussian, Inc.
 340 Quinnipiac St., Bldg. 40, Wallingford CT 06492
  
  
 ---------------------------------------------------------------
 Warning -- This program may not be used in any manner that
 competes with the business of Gaussian, Inc. or will provide
 assistance to any competitor of Gaussian, Inc.  The licensee
 of this program is prohibited from giving any competitor of
 Gaussian, Inc. access to this program.  By using this program,
 the user acknowledges that Gaussian, Inc. is engaged in the
 business of creating and licensing software in the field of
 computational chemistry and represents and warrants to the
 licensee that it is not a competitor of Gaussian, Inc. and that
 it will not use this program in any manner prohibited above.
 ---------------------------------------------------------------
  

 Cite this work as:
 Gaussian 16, Revision A.03,
 M. J. Frisch, G. W. Trucks, H. B. Schlegel, G. E. Scuseria, 
 M. A. Robb, J. R. Cheeseman, G. Scalmani, V. Barone, 
 G. A. Petersson, H. Nakatsuji, X. Li, M. Caricato, A. V. Marenich, 
 J. Bloino, B. G. Janesko, R. Gomperts, B. Mennucci, H. P. Hratchian, 
 J. V. Ortiz, A. F. Izmaylov, J. L. Sonnenberg, D. Williams-Young, 
 F. Ding, F. Lipparini, F. Egidi, J. Goings, B. Peng, A. Petrone, 
 T. Henderson, D. Ranasinghe, V. G. Zakrzewski, J. Gao, N. Rega, 
 G. Zheng, W. Liang, M. Hada, M. Ehara, K. Toyota, R. Fukuda, 
 J. Hasegawa, M. Ishida, T. Nakajima, Y. Honda, O. Kitao, H. Nakai, 
 T. Vreven, K. Throssell, J. A. Montgomery, Jr., J. E. Peralta, 
 F. Ogliaro, M. J. Bearpark, J. J. Heyd, E. N. Brothers, K. N. Kudin, 
 V. N. Staroverov, T. A. Keith, R. Kobayashi, J. Normand, 
 K. Raghavachari, A. P. Rendell, J. C. Burant, S. S. Iyengar, 
 J. Tomasi, M. Cossi, J. M. Millam, M. Klene, C. Adamo, R. Cammi, 
 J. W. Ochterski, R. L. Martin, K. Morokuma, O. Farkas, 
 J. B. Foresman, and D. J. Fox, Gaussian, Inc., Wallingford CT, 2016.
 
 ******************************************
 Gaussian 16:  ES64L-G16RevA.03 25-Dec-2016
                17-May-2023 
 ******************************************
 %chk=Sdc1ccccccc2nccccc-2c1.chk
 %NProcShared=20
 Will use up to   20 processors via shared memory.
 -----------------------------
 # opt freq b3lyp/6-31g(2df,p)
 -----------------------------
 1/18=20,19=15,26=3,38=1/1,3;
 2/9=110,12=2,17=6,18=5,40=1/2;
 3/5=1,6=6,7=104,11=2,25=1,30=1,71=1,74=-5/1,2,3;
 4//1;
 5/5=2,38=5/2;
 6/7=2,8=2,9=2,10=2,28=1/1;
 7//1,2,3,16;
 1/18=20,19=15,26=3/3(2);
 2/9=110/2;
 99//99;
 2/9=110/2;
 3/5=1,6=6,7=104,11=2,25=1,30=1,71=1,74=-5/1,2,3;
 4/5=5,16=3,69=1/1;
 5/5=2,38=5/2;
 7//1,2,3,16;
 1/18=20,19=15,26=3/3(-5);
 2/9=110/2;
 6/7=2,8=2,9=2,10=2,19=2,28=1/1;
 99/9=1/99;
 -------------------
 Title Card Required
 -------------------
 Symbolic Z-matrix:
 Charge =  0 Multiplicity = 1
 S                     2.79596  -0.18417   0.35539 
 C                     4.79349  -1.0951    0.66423 
 C                     3.59453  -1.4729   -0.58178 
 C                     4.80437  -1.38143  -1.0224 
 C                     5.41093  -2.61139  -1.22158 
 C                     6.71318  -2.5338   -1.49727 
 C                     7.45137  -3.69301  -1.70751 
 C                     8.7836   -3.38733  -1.66065 
 C                     8.88146  -4.64235  -1.01226 
 N                     9.0945   -5.38965  -2.31683 
 C                     9.71768  -6.73135  -2.82477 
 C                     10.72177  -7.28324  -2.17069 
 C                     10.64635  -6.13463  -0.75917 
 C                     9.7175   -4.77413   0.07062 
 C                     8.24828  -3.35598   0.35798 
 C                     6.64418  -2.13643   0.62611 
 H                     2.86138  -2.28766  -0.57736 
 H                     5.28466  -0.36792  -1.09671 
 H                     4.8847   -3.5249   -0.99941 
 H                     7.45875  -1.62537  -1.04945 
 H                     7.01823  -4.71044  -1.36734 
 H                     9.5341   -2.7013   -1.09749 
 H                     9.3971   -7.30288  -3.75747 
 H                     11.1987  -8.37409  -2.7237 
 H                     11.78802  -7.04444  -0.80276 
 H                     11.00826  -5.18099   0.31509 
 H                     6.22265  -0.70276   0.63495 
 
 Add virtual bond connecting atoms H24        and C12        Dist= 2.48D+00.
 Add virtual bond connecting atoms H26        and C13        Dist= 2.80D+00.
 Add virtual bond connecting atoms H26        and C14        Dist= 2.60D+00.
 Add virtual bond connecting atoms H25        and C13        Dist= 2.76D+00.
 Add virtual bond connecting atoms H27        and C2         Dist= 2.80D+00.
 Add virtual bond connecting atoms H27        and C16        Dist= 2.82D+00.
 Add virtual bond connecting atoms C15        and C8         Dist= 3.95D+00.
 Add virtual bond connecting atoms C15        and C9         Dist= 3.75D+00.
 Add virtual bond connecting atoms C15        and C14        Dist= 3.90D+00.
 Add virtual bond connecting atoms C15        and C16        Dist= 3.84D+00.
 Add virtual bond connecting atoms C15        and H22        Dist= 3.87D+00.

 GradGradGradGradGradGradGradGradGradGradGradGradGradGradGradGradGradGrad
 Berny optimization.
 Initialization pass.
                           ----------------------------
                           !    Initial Parameters    !
                           ! (Angstroms and Degrees)  !
 --------------------------                            --------------------------
 ! Name  Definition              Value          Derivative Info.                !
 --------------------------------------------------------------------------------
 ! R1    R(1,3)                  1.7824         estimate D2E/DX2                !
 ! R2    R(2,3)                  1.77           estimate D2E/DX2                !
 ! R3    R(2,4)                  1.7108         estimate D2E/DX2                !
 ! R4    R(2,27)                 1.4823         estimate D2E/DX2                !
 ! R5    R(3,4)                  1.2908         estimate D2E/DX2                !
 ! R6    R(3,17)                 1.0961         estimate D2E/DX2                !
 ! R7    R(4,5)                  1.3858         estimate D2E/DX2                !
 ! R8    R(4,18)                 1.124          estimate D2E/DX2                !
 ! R9    R(5,6)                  1.3334         estimate D2E/DX2                !
 ! R10   R(5,19)                 1.0774         estimate D2E/DX2                !
 ! R11   R(6,7)                  1.3903         estimate D2E/DX2                !
 ! R12   R(6,20)                 1.2576         estimate D2E/DX2                !
 ! R13   R(7,8)                  1.3677         estimate D2E/DX2                !
 ! R14   R(7,21)                 1.1569         estimate D2E/DX2                !
 ! R15   R(8,9)                  1.416          estimate D2E/DX2                !
 ! R16   R(8,15)                 2.0886         estimate D2E/DX2                !
 ! R17   R(8,22)                 1.1623         estimate D2E/DX2                !
 ! R18   R(9,10)                 1.5185         estimate D2E/DX2                !
 ! R19   R(9,14)                 1.3744         estimate D2E/DX2                !
 ! R20   R(9,15)                 1.9832         estimate D2E/DX2                !
 ! R21   R(10,11)                1.5641         estimate D2E/DX2                !
 ! R22   R(11,12)                1.3193         estimate D2E/DX2                !
 ! R23   R(11,23)                1.1399         estimate D2E/DX2                !
 ! R24   R(12,13)                1.8214         estimate D2E/DX2                !
 ! R25   R(12,24)                1.3127         estimate D2E/DX2                !
 ! R26   R(13,25)                1.4605         estimate D2E/DX2                !
 ! R27   R(13,26)                1.4814         estimate D2E/DX2                !
 ! R28   R(14,15)                2.0621         estimate D2E/DX2                !
 ! R29   R(14,26)                1.3753         estimate D2E/DX2                !
 ! R30   R(15,16)                2.0328         estimate D2E/DX2                !
 ! R31   R(15,22)                2.0495         estimate D2E/DX2                !
 ! R32   R(16,27)                1.4944         estimate D2E/DX2                !
 ! A1    A(3,2,27)             134.082          estimate D2E/DX2                !
 ! A2    A(4,2,27)              91.0711         estimate D2E/DX2                !
 ! A3    A(1,3,2)               77.233          estimate D2E/DX2                !
 ! A4    A(1,3,4)              123.2419         estimate D2E/DX2                !
 ! A5    A(1,3,17)             103.6308         estimate D2E/DX2                !
 ! A6    A(2,3,17)             127.5122         estimate D2E/DX2                !
 ! A7    A(4,3,17)             132.9201         estimate D2E/DX2                !
 ! A8    A(2,4,5)              107.0396         estimate D2E/DX2                !
 ! A9    A(2,4,18)              85.238          estimate D2E/DX2                !
 ! A10   A(3,4,5)              113.354          estimate D2E/DX2                !
 ! A11   A(3,4,18)             119.1406         estimate D2E/DX2                !
 ! A12   A(5,4,18)             127.1403         estimate D2E/DX2                !
 ! A13   A(4,5,6)              113.926          estimate D2E/DX2                !
 ! A14   A(4,5,19)             120.6055         estimate D2E/DX2                !
 ! A15   A(6,5,19)             124.6808         estimate D2E/DX2                !
 ! A16   A(5,6,7)              120.0872         estimate D2E/DX2                !
 ! A17   A(5,6,20)             123.1891         estimate D2E/DX2                !
 ! A18   A(7,6,20)             109.959          estimate D2E/DX2                !
 ! A19   A(6,7,8)              109.0062         estimate D2E/DX2                !
 ! A20   A(6,7,21)             119.341          estimate D2E/DX2                !
 ! A21   A(8,7,21)             123.4475         estimate D2E/DX2                !
 ! A22   A(7,8,9)               83.3913         estimate D2E/DX2                !
 ! A23   A(7,8,15)              77.6905         estimate D2E/DX2                !
 ! A24   A(7,8,22)             141.0299         estimate D2E/DX2                !
 ! A25   A(9,8,22)             104.8705         estimate D2E/DX2                !
 ! A26   A(8,9,10)              93.0086         estimate D2E/DX2                !
 ! A27   A(8,9,14)             119.1961         estimate D2E/DX2                !
 ! A28   A(10,9,14)            122.9822         estimate D2E/DX2                !
 ! A29   A(10,9,15)            163.2542         estimate D2E/DX2                !
 ! A30   A(9,10,11)            139.2047         estimate D2E/DX2                !
 ! A31   A(10,11,12)           120.0696         estimate D2E/DX2                !
 ! A32   A(10,11,23)           125.715          estimate D2E/DX2                !
 ! A33   A(12,11,23)           114.2024         estimate D2E/DX2                !
 ! A34   A(11,12,13)            95.1001         estimate D2E/DX2                !
 ! A35   A(11,12,24)           114.536          estimate D2E/DX2                !
 ! A36   A(13,12,24)           149.9471         estimate D2E/DX2                !
 ! A37   A(12,13,25)            63.3624         estimate D2E/DX2                !
 ! A38   A(12,13,26)           163.3069         estimate D2E/DX2                !
 ! A39   A(25,13,26)           103.3968         estimate D2E/DX2                !
 ! A40   A(9,14,26)            137.6754         estimate D2E/DX2                !
 ! A41   A(15,14,26)           147.9281         estimate D2E/DX2                !
 ! A42   A(8,15,14)             70.8761         estimate D2E/DX2                !
 ! A43   A(8,15,16)            109.7997         estimate D2E/DX2                !
 ! A44   A(9,15,16)            137.0707         estimate D2E/DX2                !
 ! A45   A(9,15,22)             61.0678         estimate D2E/DX2                !
 ! A46   A(14,15,22)            70.9566         estimate D2E/DX2                !
 ! A47   A(16,15,22)           113.3974         estimate D2E/DX2                !
 ! A48   A(15,16,27)           143.0277         estimate D2E/DX2                !
 ! A49   A(13,26,14)            80.3426         estimate D2E/DX2                !
 ! A50   A(2,27,16)             91.04           estimate D2E/DX2                !
 ! A51   L(14,15,16,22,-1)     184.354          estimate D2E/DX2                !
 ! A52   L(14,15,16,22,-2)     174.5441         estimate D2E/DX2                !
 ! D1    D(27,2,3,1)          -125.288          estimate D2E/DX2                !
 ! D2    D(27,2,3,17)          137.2029         estimate D2E/DX2                !
 ! D3    D(27,2,4,5)            78.205          estimate D2E/DX2                !
 ! D4    D(27,2,4,18)          -49.2505         estimate D2E/DX2                !
 ! D5    D(3,2,27,16)          -87.5666         estimate D2E/DX2                !
 ! D6    D(4,2,27,16)          -80.2942         estimate D2E/DX2                !
 ! D7    D(1,3,4,5)            155.0391         estimate D2E/DX2                !
 ! D8    D(1,3,4,18)           -18.5157         estimate D2E/DX2                !
 ! D9    D(17,3,4,5)           -18.8221         estimate D2E/DX2                !
 ! D10   D(17,3,4,18)          167.6231         estimate D2E/DX2                !
 ! D11   D(2,4,5,6)            -95.3491         estimate D2E/DX2                !
 ! D12   D(2,4,5,19)            74.9495         estimate D2E/DX2                !
 ! D13   D(3,4,5,6)           -171.2068         estimate D2E/DX2                !
 ! D14   D(3,4,5,19)            -0.9083         estimate D2E/DX2                !
 ! D15   D(18,4,5,6)             1.7283         estimate D2E/DX2                !
 ! D16   D(18,4,5,19)          172.0269         estimate D2E/DX2                !
 ! D17   D(4,5,6,7)            179.3821         estimate D2E/DX2                !
 ! D18   D(4,5,6,20)            31.129          estimate D2E/DX2                !
 ! D19   D(19,5,6,7)             9.5407         estimate D2E/DX2                !
 ! D20   D(19,5,6,20)         -138.7123         estimate D2E/DX2                !
 ! D21   D(5,6,7,8)           -166.0667         estimate D2E/DX2                !
 ! D22   D(5,6,7,21)           -16.484          estimate D2E/DX2                !
 ! D23   D(20,6,7,8)           -14.0018         estimate D2E/DX2                !
 ! D24   D(20,6,7,21)          135.5809         estimate D2E/DX2                !
 ! D25   D(6,7,8,9)            142.3813         estimate D2E/DX2                !
 ! D26   D(6,7,8,15)            75.8818         estimate D2E/DX2                !
 ! D27   D(6,7,8,22)            36.8619         estimate D2E/DX2                !
 ! D28   D(21,7,8,9)            -5.6845         estimate D2E/DX2                !
 ! D29   D(21,7,8,15)          -72.184          estimate D2E/DX2                !
 ! D30   D(21,7,8,22)         -111.204          estimate D2E/DX2                !
 ! D31   D(7,8,9,10)            90.189          estimate D2E/DX2                !
 ! D32   D(7,8,9,14)          -138.9796         estimate D2E/DX2                !
 ! D33   D(22,8,9,10)         -128.6389         estimate D2E/DX2                !
 ! D34   D(22,8,9,14)            2.1925         estimate D2E/DX2                !
 ! D35   D(7,8,15,14)          120.2981         estimate D2E/DX2                !
 ! D36   D(7,8,15,16)          -52.6384         estimate D2E/DX2                !
 ! D37   D(8,9,10,11)          156.7274         estimate D2E/DX2                !
 ! D38   D(14,9,10,11)          28.6715         estimate D2E/DX2                !
 ! D39   D(15,9,10,11)        -166.4468         estimate D2E/DX2                !
 ! D40   D(8,9,14,26)          -94.6662         estimate D2E/DX2                !
 ! D41   D(10,9,14,26)          21.0755         estimate D2E/DX2                !
 ! D42   D(10,9,15,16)          22.0696         estimate D2E/DX2                !
 ! D43   D(10,9,15,22)         -72.0565         estimate D2E/DX2                !
 ! D44   D(9,10,11,12)         -29.3998         estimate D2E/DX2                !
 ! D45   D(9,10,11,23)         151.99           estimate D2E/DX2                !
 ! D46   D(10,11,12,13)          7.9742         estimate D2E/DX2                !
 ! D47   D(10,11,12,24)       -177.1494         estimate D2E/DX2                !
 ! D48   D(23,11,12,13)       -173.2629         estimate D2E/DX2                !
 ! D49   D(23,11,12,24)          1.6134         estimate D2E/DX2                !
 ! D50   D(11,12,13,25)       -171.5122         estimate D2E/DX2                !
 ! D51   D(11,12,13,26)       -131.8853         estimate D2E/DX2                !
 ! D52   D(24,12,13,25)         17.8238         estimate D2E/DX2                !
 ! D53   D(24,12,13,26)         57.4507         estimate D2E/DX2                !
 ! D54   D(12,13,26,14)        151.2871         estimate D2E/DX2                !
 ! D55   D(25,13,26,14)       -172.8366         estimate D2E/DX2                !
 ! D56   D(26,14,15,8)         114.0467         estimate D2E/DX2                !
 ! D57   D(26,14,15,22)         79.4839         estimate D2E/DX2                !
 ! D58   D(26,14,16,27)         48.9497         estimate D2E/DX2                !
 ! D59   D(9,14,26,13)         -36.4076         estimate D2E/DX2                !
 ! D60   D(15,14,26,13)       -167.9196         estimate D2E/DX2                !
 ! D61   D(8,15,16,27)         -71.6436         estimate D2E/DX2                !
 ! D62   D(9,15,16,27)        -108.7166         estimate D2E/DX2                !
 ! D63   D(22,15,16,27)        -36.7022         estimate D2E/DX2                !
 ! D64   D(15,16,27,2)         168.918          estimate D2E/DX2                !
 --------------------------------------------------------------------------------
 Trust Radius=3.00D-01 FncErr=1.00D-07 GrdErr=1.00D-06 EigMax=2.50D+02 EigMin=1.00D-04
 Number of steps in this run=    158 maximum allowed number of steps=    162.
 GradGradGradGradGradGradGradGradGradGradGradGradGradGradGradGradGradGrad

                          Input orientation:                          
 ---------------------------------------------------------------------
 Center     Atomic      Atomic             Coordinates (Angstroms)
 Number     Number       Type             X           Y           Z
 ---------------------------------------------------------------------
      1         16           0        2.795960   -0.184170    0.355390
      2          6           0        4.793490   -1.095100    0.664230
      3          6           0        3.594530   -1.472900   -0.581780
      4          6           0        4.804370   -1.381430   -1.022400
      5          6           0        5.410930   -2.611390   -1.221580
      6          6           0        6.713180   -2.533800   -1.497270
      7          6           0        7.451370   -3.693010   -1.707510
      8          6           0        8.783600   -3.387330   -1.660650
      9          6           0        8.881460   -4.642350   -1.012260
     10          7           0        9.094500   -5.389650   -2.316830
     11          6           0        9.717680   -6.731350   -2.824770
     12          6           0       10.721770   -7.283240   -2.170690
     13          6           0       10.646350   -6.134630   -0.759170
     14          6           0        9.717500   -4.774130    0.070620
     15          6           0        8.248280   -3.355980    0.357980
     16          6           0        6.644180   -2.136430    0.626110
     17          1           0        2.861380   -2.287660   -0.577360
     18          1           0        5.284660   -0.367920   -1.096710
     19          1           0        4.884700   -3.524900   -0.999410
     20          1           0        7.458750   -1.625370   -1.049450
     21          1           0        7.018230   -4.710440   -1.367340
     22          1           0        9.534100   -2.701300   -1.097490
     23          1           0        9.397100   -7.302880   -3.757470
     24          1           0       11.198700   -8.374090   -2.723700
     25          1           0       11.788020   -7.044440   -0.802760
     26          1           0       11.008260   -5.180990    0.315090
     27          1           0        6.222650   -0.702760    0.634950
 ---------------------------------------------------------------------
                    Distance matrix (angstroms):
                    1          2          3          4          5
     1  S    0.000000
     2  C    2.217048   0.000000
     3  C    1.782365   1.769966   0.000000
     4  C    2.713936   1.710796   1.290824   0.000000
     5  C    3.900808   2.497328   2.237144   1.385781   0.000000
     6  C    4.929272   3.229110   3.419007   2.279696   1.333372
     7  C    6.183879   4.408924   4.590356   3.580417   2.359963
     8  C    7.083536   5.155615   5.635197   4.501696   3.488519
     9  C    7.666756   5.666136   6.179187   5.220763   4.026561
    10  N    8.597057   6.769680   6.971442   6.012204   4.742045
    11  C   10.044361   8.257608   8.377068   7.484036   6.171903
    12  C   10.936011   9.026314   9.331786   8.435968   7.136667
    13  C    9.913569   7.853592   8.455256   7.535976   6.327453
    14  C    8.310027   6.175234   6.986738   6.069922   4.989366
    15  C    6.307787   4.140162   5.107497   4.202953   3.331663
    16  C    4.323587   2.123882   3.346586   2.583120   2.271663
    17  H    2.301950   2.587816   1.096067   2.189640   2.649533
    18  H    2.887211   1.967473   2.083908   1.124012   2.250488
    19  H    4.166389   2.946175   2.459605   2.145098   1.077394
    20  H    5.078606   3.212709   3.895402   2.665703   2.279349
    21  H    6.425145   4.706105   4.777080   4.012788   2.647767
    22  H    7.338211   5.306309   6.087152   4.911012   4.126017
    23  H   10.543562   8.903998   8.817227   7.977302   6.658105
    24  H   12.131019  10.270759  10.489883   9.627002   8.304418
    25  H   11.369334   9.298933   9.910811   8.993847   7.777829
    26  H    9.613101   7.445788   8.337727   7.396877   6.347779
    27  H    3.476966   1.482325   2.996759   2.284496   2.783606
                    6          7          8          9         10
     6  C    0.000000
     7  C    1.390285   0.000000
     8  C    2.245405   1.367652   0.000000
     9  C    3.063112   1.851966   1.416002   0.000000
    10  N    3.807656   2.439208   2.129910   1.518468   0.000000
    11  C    5.329981   3.951701   3.661987   2.889356   1.564134
    12  C    6.251357   4.878504   4.381182   3.420965   2.501009
    13  C    5.383363   4.131435   3.439500   2.325036   2.321538
    14  C    4.062425   3.076672   2.406799   1.374394   2.543012
    15  C    2.544497   2.239398   2.088640   1.983235   3.465041
    16  C    2.161344   2.918952   3.372112   3.737554   5.024779
    17  H    3.967768   4.931557   6.120088   6.478817   7.176342
    18  H    2.625291   4.015462   4.655904   5.587025   6.420385
    19  H    2.138570   2.667857   3.956967   4.150054   4.789082
    20  H    1.257642   2.169846   2.287640   3.335814   4.295548
    21  H    2.201749   1.156931   2.225575   1.897984   2.381964
    22  H    2.854027   2.386080   1.162341   2.049604   2.984504
    23  H    5.920815   4.584688   4.483812   3.857523   2.414013
    24  H    7.465454   6.081746   5.641858   4.714288   3.674246
    25  H    6.825117   5.554925   4.810090   3.776509   3.505109
    26  H    5.360968   4.353902   3.474173   2.564229   3.260831
    27  H    2.853014   3.992301   4.362930   5.030203   6.239188
                   11         12         13         14         15
    11  C    0.000000
    12  C    1.319318   0.000000
    13  C    2.342052   1.821368   0.000000
    14  C    3.494852   3.511077   1.844525   0.000000
    15  C    4.866432   5.285423   3.836621   2.062118   0.000000
    16  C    6.516768   7.137120   5.824257   4.087949   2.032814
    17  H    8.473847   9.448823   8.685505   7.321803   5.570894
    18  H    7.945508   8.862124   7.881408   6.358256   4.452827
    19  H    6.080375   7.040483   6.329693   5.105046   3.631076
    20  H    5.858802   6.626913   5.529781   4.033757   2.366269
    21  H    3.673583   4.580489   3.944799   3.059059   2.514819
    22  H    4.388451   4.853503   3.624819   2.386366   2.049471
    23  H    1.139889   2.067125   3.451845   4.599077   5.816763
    24  H    2.214098   1.312721   3.029794   4.791857   6.586589
    25  H    2.910817   1.750756   1.460502   3.194394   5.242310
    26  H    3.732015   3.268124   1.481365   1.375268   3.309077
    27  H    7.780025   8.450823   7.142682   5.395229   3.349547
                   16         17         18         19         20
    16  C    0.000000
    17  H    3.972504   0.000000
    18  H    2.818516   3.134870   0.000000
    19  H    2.768742   2.408882   3.183702   0.000000
    20  H    1.931892   4.668759   2.511988   3.199446   0.000000
    21  H    3.277085   4.875791   4.683587   2.468365   3.132534
    22  H    3.411966   6.705731   4.847928   4.722802   2.338164
    23  H    7.313450   8.830695   8.490317   6.499368   6.582150
    24  H    8.418627  10.543354  10.085719   8.145822   7.895287
    25  H    7.251850  10.117443   9.325021   7.751236   6.940443
    26  H    5.330223   8.691345   7.610415   6.478312   5.206095
    27  H    1.494381   3.908931   1.997646   3.525013   2.283934
                   21         22         23         24         25
    21  H    0.000000
    22  H    3.230954   0.000000
    23  H    4.253527   5.316841   0.000000
    24  H    5.721746   6.131558   2.337078   0.000000
    25  H    5.340150   4.902029   3.809672   2.409414   0.000000
    26  H    4.355724   3.212070   4.866621   4.412074   2.308692
    27  H    4.550122   4.238067   8.540028   9.741196   8.559045
                   26         27
    26  H    0.000000
    27  H    6.561929   0.000000
 Stoichiometry    C14H11NS
 Framework group  C1[X(C14H11NS)]
 Deg. of freedom    75
 Full point group                 C1      NOp   1
 Largest Abelian subgroup         C1      NOp   1
 Largest concise Abelian subgroup C1      NOp   1
                         Standard orientation:                         
 ---------------------------------------------------------------------
 Center     Atomic      Atomic             Coordinates (Angstroms)
 Number     Number       Type             X           Y           Z
 ---------------------------------------------------------------------
      1         16           0        5.409942   -0.063950   -0.311415
      2          6           0        3.395981    0.858211   -0.217178
      3          6           0        3.813716   -0.853702   -0.383397
      4          6           0        2.869551   -0.619673    0.465136
      5          6           0        1.603361   -0.871326   -0.038674
      6          6           0        0.613991   -0.461363    0.755654
      7          6           0       -0.709514   -0.638584    0.368588
      8          6           0       -1.514090    0.121713    1.171756
      9          6           0       -2.241675    0.323970   -0.026064
     10          7           0       -3.131787   -0.882050    0.216753
     11          6           0       -4.542450   -1.415338   -0.198155
     12          6           0       -5.513180   -0.567378   -0.479665
     13          6           0       -4.454610    0.913851   -0.427000
     14          6           0       -2.736860    1.574993   -0.306584
     15          6           0       -0.684567    1.549558   -0.107138
     16          6           0        1.341513    1.384306   -0.102032
     17          1           0        3.858574   -1.443204   -1.306347
     18          1           0        3.125574   -0.147088    1.452313
     19          1           0        1.474225   -1.212865   -1.052308
     20          1           0        0.709273    0.536771    1.514806
     21          1           0       -0.950072   -0.870028   -0.739138
     22          1           0       -1.538290    1.150195    1.712752
     23          1           0       -4.845369   -2.512076   -0.267097
     24          1           0       -6.665838   -1.130916   -0.757225
     25          1           0       -5.893128    1.140662   -0.537844
     26          1           0       -3.915629    2.263176   -0.138445
     27          1           0        2.557116    1.627515    0.732434
 ---------------------------------------------------------------------
 Rotational constants (GHZ):           2.0525190           0.1811638           0.1724069
 Standard basis: 6-31G(2df,p) (6D, 7F)
 There are   555 symmetry adapted cartesian basis functions of A   symmetry.
 There are   507 symmetry adapted basis functions of A   symmetry.
   507 basis functions,   805 primitive gaussians,   555 cartesian basis functions
    59 alpha electrons       59 beta electrons
       nuclear repulsion energy      1017.0562830053 Hartrees.
 NAtoms=   27 NActive=   27 NUniq=   27 SFac= 1.00D+00 NAtFMM=   60 NAOKFM=F Big=F
 Integral buffers will be    131072 words long.
 Raffenetti 2 integral format.
 Two-electron integral symmetry is turned on.
 One-electron integrals computed using PRISM.
 PrsmSu:  requested number of processors reduced to:  12 ShMem   1 Linda.
 NBasis=   507 RedAO= T EigKep=  2.57D-04  NBF=   507
 NBsUse=   507 1.00D-06 EigRej= -1.00D+00 NBFU=   507
 ExpMin= 1.17D-01 ExpMax= 2.19D+04 ExpMxC= 3.30D+03 IAcc=3 IRadAn=         5 AccDes= 0.00D+00
 Harris functional with IExCor=  402 and IRadAn=       5 diagonalized for initial guess.
 HarFok:  IExCor=  402 AccDes= 0.00D+00 IRadAn=         5 IDoV= 1 UseB2=F ITyADJ=14
 ICtDFT=  3500011 ScaDFX=  1.000000  1.000000  1.000000  1.000000
 FoFCou: FMM=F IPFlag=           0 FMFlag=      100000 FMFlg1=           0
         NFxFlg=           0 DoJE=T BraDBF=F KetDBF=T FulRan=T
         wScrn=  0.000000 ICntrl=       500 IOpCl=  0 I1Cent=   200000004 NGrid=           0
         NMat0=    1 NMatS0=      1 NMatT0=    0 NMatD0=    1 NMtDS0=    0 NMtDT0=    0
 Petite list used in FoFCou.
 Requested convergence on RMS density matrix=1.00D-08 within 128 cycles.
 Requested convergence on MAX density matrix=1.00D-06.
 Requested convergence on             energy=1.00D-06.
 No special actions if energy rises.
 Integral accuracy reduced to 1.0D-05 until final iterations.
 EnCoef did     6 forward-backward iterations
 EnCoef did   100 forward-backward iterations
 EnCoef did     5 forward-backward iterations
 EnCoef did     6 forward-backward iterations
 EnCoef did     7 forward-backward iterations
 EnCoef did     4 forward-backward iterations
 EnCoef did     4 forward-backward iterations
 Initial convergence to 1.0D-05 achieved.  Increase integral accuracy.
 SCF Done:  E(RB3LYP) =  -991.522685244     A.U. after   30 cycles
            NFock= 30  Conv=0.34D-08     -V/T= 2.0060

 **********************************************************************

            Population analysis using the SCF density.

 **********************************************************************

 Orbital symmetries:
       Occupied  (A) (A) (A) (A) (A) (A) (A) (A) (A) (A) (A) (A)
                 (A) (A) (A) (A) (A) (A) (A) (A) (A) (A) (A) (A)
                 (A) (A) (A) (A) (A) (A) (A) (A) (A) (A) (A) (A)
                 (A) (A) (A) (A) (A) (A) (A) (A) (A) (A) (A) (A)
                 (A) (A) (A) (A) (A) (A) (A) (A) (A) (A) (A)
       Virtual   (A) (A) (A) (A) (A) (A) (A) (A) (A) (A) (A) (A)
                 (A) (A) (A) (A) (A) (A) (A) (A) (A) (A) (A) (A)
                 (A) (A) (A) (A) (A) (A) (A) (A) (A) (A) (A) (A)
                 (A) (A) (A) (A) (A) (A) (A) (A) (A) (A) (A) (A)
                 (A) (A) (A) (A) (A) (A) (A) (A) (A) (A) (A) (A)
                 (A) (A) (A) (A) (A) (A) (A) (A) (A) (A) (A) (A)
                 (A) (A) (A) (A) (A) (A) (A) (A) (A) (A) (A) (A)
                 (A) (A) (A) (A) (A) (A) (A) (A) (A) (A) (A) (A)
                 (A) (A) (A) (A) (A) (A) (A) (A) (A) (A) (A) (A)
                 (A) (A) (A) (A) (A) (A) (A) (A) (A) (A) (A) (A)
                 (A) (A) (A) (A) (A) (A) (A) (A) (A) (A) (A) (A)
                 (A) (A) (A) (A) (A) (A) (A) (A) (A) (A) (A) (A)
                 (A) (A) (A) (A) (A) (A) (A) (A) (A) (A) (A) (A)
                 (A) (A) (A) (A) (A) (A) (A) (A) (A) (A) (A) (A)
                 (A) (A) (A) (A) (A) (A) (A) (A) (A) (A) (A) (A)
                 (A) (A) (A) (A) (A) (A) (A) (A) (A) (A) (A) (A)
                 (A) (A) (A) (A) (A) (A) (A) (A) (A) (A) (A) (A)
                 (A) (A) (A) (A) (A) (A) (A) (A) (A) (A) (A) (A)
                 (A) (A) (A) (A) (A) (A) (A) (A) (A) (A) (A) (A)
                 (A) (A) (A) (A) (A) (A) (A) (A) (A) (A) (A) (A)
                 (A) (A) (A) (A) (A) (A) (A) (A) (A) (A) (A) (A)
                 (A) (A) (A) (A) (A) (A) (A) (A) (A) (A) (A) (A)
                 (A) (A) (A) (A) (A) (A) (A) (A) (A) (A) (A) (A)
                 (A) (A) (A) (A) (A) (A) (A) (A) (A) (A) (A) (A)
                 (A) (A) (A) (A) (A) (A) (A) (A) (A) (A) (A) (A)
                 (A) (A) (A) (A) (A) (A) (A) (A) (A) (A) (A) (A)
                 (A) (A) (A) (A) (A) (A) (A) (A) (A) (A) (A) (A)
                 (A) (A) (A) (A) (A) (A) (A) (A) (A) (A) (A) (A)
                 (A) (A) (A) (A) (A) (A) (A) (A) (A) (A) (A) (A)
                 (A) (A) (A) (A) (A) (A) (A) (A) (A) (A) (A) (A)
                 (A) (A) (A) (A) (A) (A) (A) (A) (A) (A) (A) (A)
                 (A) (A) (A) (A) (A) (A) (A) (A) (A) (A) (A) (A)
                 (A) (A) (A) (A) (A) (A) (A) (A) (A) (A) (A) (A)
                 (A) (A) (A) (A) (A) (A) (A) (A) (A) (A) (A) (A)
                 (A) (A) (A) (A) (A) (A) (A) (A) (A) (A) (A) (A)
                 (A) (A) (A) (A) (A) (A) (A) (A) (A) (A) (A) (A)
                 (A) (A) (A) (A) (A) (A) (A) (A) (A) (A) (A) (A)
                 (A) (A) (A) (A)
 The electronic state is 1-A.
 Alpha  occ. eigenvalues --  -88.88083 -14.32402 -10.31989 -10.28801 -10.28001
 Alpha  occ. eigenvalues --  -10.27514 -10.26711 -10.25967 -10.24857 -10.24473
 Alpha  occ. eigenvalues --  -10.24236 -10.24006 -10.23959 -10.23104 -10.23072
 Alpha  occ. eigenvalues --  -10.22816  -7.94364  -5.90735  -5.90515  -5.89970
 Alpha  occ. eigenvalues --   -0.95442  -0.94194  -0.85897  -0.81708  -0.77041
 Alpha  occ. eigenvalues --   -0.73204  -0.71765  -0.68489  -0.65669  -0.62301
 Alpha  occ. eigenvalues --   -0.60810  -0.60038  -0.56710  -0.55438  -0.54371
 Alpha  occ. eigenvalues --   -0.50981  -0.50314  -0.49241  -0.45775  -0.45317
 Alpha  occ. eigenvalues --   -0.43691  -0.43369  -0.41056  -0.40048  -0.39259
 Alpha  occ. eigenvalues --   -0.36849  -0.35930  -0.34297  -0.31437  -0.30364
 Alpha  occ. eigenvalues --   -0.28953  -0.26816  -0.25323  -0.24365  -0.23461
 Alpha  occ. eigenvalues --   -0.21600  -0.20680  -0.19139  -0.18224
 Alpha virt. eigenvalues --   -0.13490  -0.11481  -0.09823  -0.08270  -0.06636
 Alpha virt. eigenvalues --   -0.04259  -0.03929  -0.02831  -0.01695   0.00595
 Alpha virt. eigenvalues --    0.02336   0.04063   0.05154   0.05602   0.05967
 Alpha virt. eigenvalues --    0.07496   0.08309   0.09363   0.09909   0.10792
 Alpha virt. eigenvalues --    0.11525   0.12224   0.13450   0.14295   0.15621
 Alpha virt. eigenvalues --    0.18223   0.21834   0.22943   0.23724   0.25319
 Alpha virt. eigenvalues --    0.28512   0.31168   0.32243   0.32429   0.33815
 Alpha virt. eigenvalues --    0.34054   0.35725   0.37356   0.38671   0.39118
 Alpha virt. eigenvalues --    0.39599   0.41105   0.41334   0.42353   0.43426
 Alpha virt. eigenvalues --    0.44459   0.45282   0.46350   0.46633   0.48122
 Alpha virt. eigenvalues --    0.48551   0.49092   0.49790   0.50321   0.51149
 Alpha virt. eigenvalues --    0.52336   0.52967   0.54152   0.54460   0.55230
 Alpha virt. eigenvalues --    0.56031   0.56597   0.56878   0.58539   0.59070
 Alpha virt. eigenvalues --    0.60477   0.60879   0.61360   0.61878   0.62759
 Alpha virt. eigenvalues --    0.63783   0.64563   0.65520   0.66636   0.66955
 Alpha virt. eigenvalues --    0.67276   0.68660   0.69098   0.69649   0.70420
 Alpha virt. eigenvalues --    0.71624   0.72149   0.72557   0.72984   0.73998
 Alpha virt. eigenvalues --    0.74724   0.75451   0.75579   0.76278   0.77253
 Alpha virt. eigenvalues --    0.78140   0.78371   0.79371   0.79807   0.81144
 Alpha virt. eigenvalues --    0.81461   0.81899   0.83275   0.83884   0.85464
 Alpha virt. eigenvalues --    0.86128   0.87476   0.88917   0.89703   0.90994
 Alpha virt. eigenvalues --    0.91932   0.92533   0.93943   0.95058   0.96230
 Alpha virt. eigenvalues --    0.97373   0.97984   0.99023   1.00086   1.02352
 Alpha virt. eigenvalues --    1.03321   1.03652   1.04726   1.05516   1.06251
 Alpha virt. eigenvalues --    1.07266   1.09291   1.10775   1.12145   1.13618
 Alpha virt. eigenvalues --    1.16123   1.17291   1.19123   1.19675   1.20981
 Alpha virt. eigenvalues --    1.21864   1.24595   1.25064   1.25484   1.26788
 Alpha virt. eigenvalues --    1.29357   1.30909   1.31754   1.33129   1.33411
 Alpha virt. eigenvalues --    1.35222   1.37153   1.37996   1.39105   1.39667
 Alpha virt. eigenvalues --    1.41864   1.42722   1.43120   1.45008   1.46425
 Alpha virt. eigenvalues --    1.46732   1.47791   1.48940   1.49719   1.50606
 Alpha virt. eigenvalues --    1.52568   1.54264   1.55511   1.56744   1.57660
 Alpha virt. eigenvalues --    1.58398   1.58883   1.60651   1.62366   1.63410
 Alpha virt. eigenvalues --    1.65025   1.66428   1.66661   1.67951   1.68393
 Alpha virt. eigenvalues --    1.69904   1.70287   1.71245   1.73326   1.74077
 Alpha virt. eigenvalues --    1.75200   1.75853   1.77249   1.79338   1.81053
 Alpha virt. eigenvalues --    1.82600   1.84321   1.86023   1.86620   1.89735
 Alpha virt. eigenvalues --    1.90854   1.92062   1.94557   1.96792   1.96885
 Alpha virt. eigenvalues --    1.98853   2.00646   2.02948   2.04012   2.06229
 Alpha virt. eigenvalues --    2.08497   2.09437   2.10429   2.12615   2.13804
 Alpha virt. eigenvalues --    2.13989   2.15835   2.18047   2.19010   2.20926
 Alpha virt. eigenvalues --    2.21876   2.23290   2.27004   2.29087   2.31371
 Alpha virt. eigenvalues --    2.32028   2.33290   2.34208   2.35585   2.37595
 Alpha virt. eigenvalues --    2.38527   2.40183   2.42589   2.44298   2.45579
 Alpha virt. eigenvalues --    2.48041   2.48659   2.50400   2.52982   2.53817
 Alpha virt. eigenvalues --    2.55620   2.59225   2.60219   2.61087   2.61864
 Alpha virt. eigenvalues --    2.65905   2.66769   2.66921   2.68222   2.69825
 Alpha virt. eigenvalues --    2.71002   2.72432   2.73652   2.74691   2.75100
 Alpha virt. eigenvalues --    2.75392   2.76609   2.78533   2.78892   2.79609
 Alpha virt. eigenvalues --    2.81172   2.82722   2.83132   2.83564   2.84551
 Alpha virt. eigenvalues --    2.85663   2.87585   2.89137   2.90088   2.92083
 Alpha virt. eigenvalues --    2.93046   2.93968   2.95225   2.95272   2.97277
 Alpha virt. eigenvalues --    2.97991   2.98600   3.00277   3.01972   3.02763
 Alpha virt. eigenvalues --    3.04097   3.05516   3.06502   3.07386   3.08990
 Alpha virt. eigenvalues --    3.09765   3.10241   3.12574   3.13640   3.15916
 Alpha virt. eigenvalues --    3.16499   3.17689   3.18029   3.21593   3.22408
 Alpha virt. eigenvalues --    3.23636   3.25271   3.25989   3.26539   3.27693
 Alpha virt. eigenvalues --    3.28800   3.31852   3.32881   3.34569   3.35152
 Alpha virt. eigenvalues --    3.37056   3.39084   3.39885   3.41985   3.43834
 Alpha virt. eigenvalues --    3.44126   3.44889   3.46814   3.48900   3.49224
 Alpha virt. eigenvalues --    3.50328   3.52927   3.53402   3.55193   3.55595
 Alpha virt. eigenvalues --    3.56666   3.59563   3.59807   3.60452   3.62634
 Alpha virt. eigenvalues --    3.63661   3.63968   3.65973   3.67982   3.70530
 Alpha virt. eigenvalues --    3.72817   3.74525   3.74871   3.77095   3.77988
 Alpha virt. eigenvalues --    3.79459   3.81451   3.82222   3.85070   3.85286
 Alpha virt. eigenvalues --    3.88573   3.91389   3.91681   3.94336   3.95468
 Alpha virt. eigenvalues --    3.97122   3.99176   4.01877   4.03967   4.05395
 Alpha virt. eigenvalues --    4.08301   4.09940   4.13131   4.14893   4.17434
 Alpha virt. eigenvalues --    4.19307   4.21710   4.22267   4.24650   4.26374
 Alpha virt. eigenvalues --    4.27327   4.28646   4.31880   4.32798   4.33630
 Alpha virt. eigenvalues --    4.36616   4.38235   4.39928   4.40827   4.42232
 Alpha virt. eigenvalues --    4.43764   4.45740   4.46397   4.47118   4.49122
 Alpha virt. eigenvalues --    4.50037   4.52485   4.53180   4.54755   4.56033
 Alpha virt. eigenvalues --    4.57975   4.59215   4.60450   4.61887   4.62132
 Alpha virt. eigenvalues --    4.63335   4.65459   4.66274   4.68198   4.68298
 Alpha virt. eigenvalues --    4.69332   4.69776   4.71398   4.72280   4.73444
 Alpha virt. eigenvalues --    4.75330   4.75551   4.77521   4.78742   4.79229
 Alpha virt. eigenvalues --    4.80779   4.82884   4.84203   4.85241   4.87242
 Alpha virt. eigenvalues --    4.89676   4.92211   4.92664   4.94671   4.96300
 Alpha virt. eigenvalues --    4.97926   4.98757   4.99461   5.01376   5.02638
 Alpha virt. eigenvalues --    5.04412   5.07732   5.10017   5.11846   5.12887
 Alpha virt. eigenvalues --    5.15019   5.16545   5.20151   5.21947   5.23221
 Alpha virt. eigenvalues --    5.24526   5.26533   5.27956   5.32808   5.35992
 Alpha virt. eigenvalues --    5.38493   5.39833   5.42716   5.43266   5.49541
 Alpha virt. eigenvalues --    5.53799   5.56220   5.66526   5.68550   5.74100
 Alpha virt. eigenvalues --    5.79289   5.82717   5.95109   6.12557   6.24279
 Alpha virt. eigenvalues --    6.64463   6.79817   9.83594  10.17430  10.27305
 Alpha virt. eigenvalues --   10.54735  10.66957  10.92878  11.01749  11.12403
 Alpha virt. eigenvalues --   11.40209  11.48324  11.71758  11.86135  12.23932
 Alpha virt. eigenvalues --   12.26550  12.37443  14.05654
          Condensed to atoms (all electrons):
               1          2          3          4          5          6
     1  S   15.935490   0.054748   0.323003  -0.024202   0.007833  -0.000076
     2  C    0.054748   6.080041   0.032883   0.027114  -0.014388  -0.002002
     3  C    0.323003   0.032883   4.923990   0.435918  -0.022358  -0.001448
     4  C   -0.024202   0.027114   0.435918   4.970210   0.390606  -0.007414
     5  C    0.007833  -0.014388  -0.022358   0.390606   4.900473   0.464423
     6  C   -0.000076  -0.002002  -0.001448  -0.007414   0.464423   5.166048
     7  C    0.000014  -0.000208  -0.000394   0.001324  -0.016380   0.262635
     8  C   -0.000001   0.000053   0.000042  -0.000750  -0.000162   0.007599
     9  C    0.000000  -0.000015  -0.000002   0.000018  -0.000749  -0.011484
    10  N    0.000000   0.000000  -0.000000   0.000001  -0.000169   0.006895
    11  C    0.000000  -0.000000  -0.000000  -0.000000  -0.000000  -0.000048
    12  C    0.000000   0.000000   0.000000   0.000000  -0.000000   0.000007
    13  C    0.000000   0.000000   0.000000  -0.000000   0.000001  -0.000051
    14  C    0.000000  -0.000002   0.000000  -0.000001   0.000103   0.001325
    15  C   -0.000031   0.001003  -0.000195   0.001618  -0.003033   0.000651
    16  C    0.004054  -0.091033   0.015622  -0.042943   0.090078  -0.000676
    17  H   -0.069517   0.001163   0.391397  -0.058660  -0.008512   0.000692
    18  H   -0.000913  -0.019271  -0.015959   0.358772  -0.036924  -0.001004
    19  H   -0.000285   0.004489   0.001953  -0.046089   0.378436  -0.039516
    20  H   -0.000124  -0.000833   0.000904  -0.004751  -0.041358   0.322173
    21  H   -0.000001   0.000025  -0.000006   0.000415   0.003679  -0.075868
    22  H    0.000000  -0.000004   0.000001  -0.000004  -0.000011   0.000361
    23  H   -0.000000   0.000000   0.000000   0.000000   0.000000  -0.000002
    24  H    0.000000  -0.000000   0.000000  -0.000000   0.000000  -0.000000
    25  H   -0.000000  -0.000000  -0.000000  -0.000000   0.000000  -0.000000
    26  H   -0.000000  -0.000000  -0.000000   0.000000   0.000000  -0.000014
    27  H    0.001106   0.071822  -0.007387   0.017153  -0.022649  -0.000900
               7          8          9         10         11         12
     1  S    0.000014  -0.000001   0.000000   0.000000   0.000000   0.000000
     2  C   -0.000208   0.000053  -0.000015   0.000000  -0.000000   0.000000
     3  C   -0.000394   0.000042  -0.000002  -0.000000  -0.000000   0.000000
     4  C    0.001324  -0.000750   0.000018   0.000001  -0.000000   0.000000
     5  C   -0.016380  -0.000162  -0.000749  -0.000169  -0.000000  -0.000000
     6  C    0.262635   0.007599  -0.011484   0.006895  -0.000048   0.000007
     7  C    5.169584   0.376740  -0.033216   0.002699   0.000101   0.000244
     8  C    0.376740   5.289202   0.344113  -0.009085   0.006963  -0.000015
     9  C   -0.033216   0.344113   4.633805   0.396966  -0.041143  -0.001524
    10  N    0.002699  -0.009085   0.396966   6.796608   0.359031  -0.033119
    11  C    0.000101   0.006963  -0.041143   0.359031   4.798552   0.542802
    12  C    0.000244  -0.000015  -0.001524  -0.033119   0.542802   5.293240
    13  C   -0.000264   0.000352  -0.029568  -0.068621  -0.036723   0.250018
    14  C   -0.010621  -0.110674   0.416579  -0.055591  -0.006541   0.006128
    15  C   -0.003129  -0.026732  -0.009898   0.001313  -0.000459  -0.000004
    16  C   -0.016238  -0.001038   0.002564  -0.000012   0.000002   0.000000
    17  H   -0.000040   0.000000   0.000000   0.000000   0.000000   0.000000
    18  H    0.000335  -0.000026   0.000000  -0.000000  -0.000000  -0.000000
    19  H   -0.000357   0.000045   0.000051  -0.000034  -0.000000  -0.000000
    20  H   -0.027486  -0.007589   0.001292  -0.000007  -0.000000  -0.000000
    21  H    0.397243  -0.055577   0.002105  -0.012127   0.000487  -0.000056
    22  H   -0.036071   0.341344  -0.035910  -0.002691  -0.000114   0.000047
    23  H   -0.000093  -0.000111   0.001068  -0.028062   0.357811  -0.075723
    24  H   -0.000002   0.000005  -0.000049   0.002317  -0.021021   0.296148
    25  H   -0.000008  -0.000129   0.000696   0.006462   0.007472  -0.072122
    26  H    0.000229  -0.001136  -0.022512   0.002908   0.000515  -0.007336
    27  H    0.001471  -0.000443   0.000032   0.000000  -0.000000  -0.000000
              13         14         15         16         17         18
     1  S    0.000000   0.000000  -0.000031   0.004054  -0.069517  -0.000913
     2  C    0.000000  -0.000002   0.001003  -0.091033   0.001163  -0.019271
     3  C    0.000000   0.000000  -0.000195   0.015622   0.391397  -0.015959
     4  C   -0.000000  -0.000001   0.001618  -0.042943  -0.058660   0.358772
     5  C    0.000001   0.000103  -0.003033   0.090078  -0.008512  -0.036924
     6  C   -0.000051   0.001325   0.000651  -0.000676   0.000692  -0.001004
     7  C   -0.000264  -0.010621  -0.003129  -0.016238  -0.000040   0.000335
     8  C    0.000352  -0.110674  -0.026732  -0.001038   0.000000  -0.000026
     9  C   -0.029568   0.416579  -0.009898   0.002564   0.000000   0.000000
    10  N   -0.068621  -0.055591   0.001313  -0.000012   0.000000  -0.000000
    11  C   -0.036723  -0.006541  -0.000459   0.000002   0.000000  -0.000000
    12  C    0.250018   0.006128  -0.000004   0.000000   0.000000  -0.000000
    13  C    5.819321   0.081620   0.005535  -0.000025  -0.000000   0.000000
    14  C    0.081620   5.818282   0.038470  -0.001155  -0.000000  -0.000000
    15  C    0.005535   0.038470   6.042691   0.133203   0.000003  -0.000145
    16  C   -0.000025  -0.001155   0.133203   5.893512  -0.000270   0.003010
    17  H   -0.000000  -0.000000   0.000003  -0.000270   0.565974   0.004252
    18  H    0.000000  -0.000000  -0.000145   0.003010   0.004252   0.510840
    19  H    0.000000   0.000004  -0.000120   0.003318   0.003266   0.003237
    20  H   -0.000001  -0.000266   0.003547   0.007129  -0.000002   0.002621
    21  H   -0.000168   0.001469   0.009019  -0.000032  -0.000001   0.000003
    22  H   -0.000642  -0.000518   0.029360   0.000155   0.000000  -0.000002
    23  H    0.007871  -0.000192   0.000004  -0.000000   0.000000   0.000000
    24  H   -0.012454  -0.000047   0.000000  -0.000000  -0.000000   0.000000
    25  H    0.149080  -0.017220  -0.000080   0.000000  -0.000000   0.000000
    26  H    0.058635   0.169063  -0.004073   0.000009   0.000000  -0.000000
    27  H    0.000000  -0.000003  -0.001227   0.114156  -0.000127  -0.010833
              19         20         21         22         23         24
     1  S   -0.000285  -0.000124  -0.000001   0.000000  -0.000000   0.000000
     2  C    0.004489  -0.000833   0.000025  -0.000004   0.000000  -0.000000
     3  C    0.001953   0.000904  -0.000006   0.000001   0.000000   0.000000
     4  C   -0.046089  -0.004751   0.000415  -0.000004   0.000000  -0.000000
     5  C    0.378436  -0.041358   0.003679  -0.000011   0.000000   0.000000
     6  C   -0.039516   0.322173  -0.075868   0.000361  -0.000002  -0.000000
     7  C   -0.000357  -0.027486   0.397243  -0.036071  -0.000093  -0.000002
     8  C    0.000045  -0.007589  -0.055577   0.341344  -0.000111   0.000005
     9  C    0.000051   0.001292   0.002105  -0.035910   0.001068  -0.000049
    10  N   -0.000034  -0.000007  -0.012127  -0.002691  -0.028062   0.002317
    11  C   -0.000000  -0.000000   0.000487  -0.000114   0.357811  -0.021021
    12  C   -0.000000  -0.000000  -0.000056   0.000047  -0.075723   0.296148
    13  C    0.000000  -0.000001  -0.000168  -0.000642   0.007871  -0.012454
    14  C    0.000004  -0.000266   0.001469  -0.000518  -0.000192  -0.000047
    15  C   -0.000120   0.003547   0.009019   0.029360   0.000004   0.000000
    16  C    0.003318   0.007129  -0.000032   0.000155  -0.000000  -0.000000
    17  H    0.003266  -0.000002  -0.000001   0.000000   0.000000  -0.000000
    18  H    0.003237   0.002621   0.000003  -0.000002   0.000000   0.000000
    19  H    0.535680   0.003576   0.004616  -0.000007   0.000000   0.000000
    20  H    0.003576   0.558682   0.003731   0.002529  -0.000000   0.000000
    21  H    0.004616   0.003731   0.528317   0.002135   0.000053   0.000000
    22  H   -0.000007   0.002529   0.002135   0.474258   0.000002  -0.000000
    23  H    0.000000  -0.000000   0.000053   0.000002   0.629249  -0.003318
    24  H    0.000000   0.000000   0.000000  -0.000000  -0.003318   0.624922
    25  H   -0.000000   0.000000   0.000002  -0.000004  -0.000802  -0.002259
    26  H    0.000000  -0.000005   0.000071  -0.000099  -0.000057  -0.000050
    27  H   -0.000677   0.002615   0.000013  -0.000122   0.000000   0.000000
              25         26         27
     1  S   -0.000000  -0.000000   0.001106
     2  C   -0.000000  -0.000000   0.071822
     3  C   -0.000000  -0.000000  -0.007387
     4  C   -0.000000   0.000000   0.017153
     5  C    0.000000   0.000000  -0.022649
     6  C   -0.000000  -0.000014  -0.000900
     7  C   -0.000008   0.000229   0.001471
     8  C   -0.000129  -0.001136  -0.000443
     9  C    0.000696  -0.022512   0.000032
    10  N    0.006462   0.002908   0.000000
    11  C    0.007472   0.000515  -0.000000
    12  C   -0.072122  -0.007336  -0.000000
    13  C    0.149080   0.058635   0.000000
    14  C   -0.017220   0.169063  -0.000003
    15  C   -0.000080  -0.004073  -0.001227
    16  C    0.000000   0.000009   0.114156
    17  H   -0.000000   0.000000  -0.000127
    18  H    0.000000  -0.000000  -0.010833
    19  H   -0.000000   0.000000  -0.000677
    20  H    0.000000  -0.000005   0.002615
    21  H    0.000002   0.000071   0.000013
    22  H   -0.000004  -0.000099  -0.000122
    23  H   -0.000802  -0.000057   0.000000
    24  H   -0.002259  -0.000050   0.000000
    25  H    0.816294   0.029174  -0.000000
    26  H    0.029174   0.494770   0.000000
    27  H   -0.000000   0.000000   0.652874
 Mulliken charges:
               1
     1  S   -0.231097
     2  C   -0.145586
     3  C   -0.077967
     4  C   -0.018335
     5  C   -0.068940
     6  C   -0.092307
     7  C   -0.068110
     8  C   -0.152991
     9  C    0.386780
    10  N   -0.365683
    11  C    0.032312
    12  C   -0.198736
    13  C   -0.223915
    14  C   -0.330215
    15  C   -0.217292
    16  C   -0.113391
    17  H    0.170383
    18  H    0.202006
    19  H    0.148414
    20  H    0.173622
    21  H    0.190450
    22  H    0.226008
    23  H    0.112303
    24  H    0.115808
    25  H    0.083444
    26  H    0.279908
    27  H    0.183127
 Sum of Mulliken charges =  -0.00000
 Mulliken charges with hydrogens summed into heavy atoms:
               1
     1  S   -0.231097
     2  C    0.037541
     3  C    0.092415
     4  C    0.183671
     5  C    0.079474
     6  C    0.081315
     7  C    0.122341
     8  C    0.073017
     9  C    0.386780
    10  N   -0.365683
    11  C    0.144614
    12  C   -0.082928
    13  C   -0.140471
    14  C   -0.050307
    15  C   -0.217292
    16  C   -0.113391
 Electronic spatial extent (au):  <R**2>=           5901.9061
 Charge=             -0.0000 electrons
 Dipole moment (field-independent basis, Debye):
    X=             -0.8073    Y=             -2.4919    Z=              0.9098  Tot=              2.7729
 Quadrupole moment (field-independent basis, Debye-Ang):
   XX=           -111.7517   YY=           -102.5270   ZZ=           -102.7085
   XY=             -1.9076   XZ=              2.9211   YZ=              7.8950
 Traceless Quadrupole moment (field-independent basis, Debye-Ang):
   XX=             -6.0893   YY=              3.1354   ZZ=              2.9539
   XY=             -1.9076   XZ=              2.9211   YZ=              7.8950
 Octapole moment (field-independent basis, Debye-Ang**2):
  XXX=           -170.9550  YYY=            -25.5885  ZZZ=              7.7562  XYY=              1.0919
  XXY=            -51.0026  XXZ=             -4.1639  XZZ=             14.9128  YZZ=             -7.1548
  YYZ=             -1.1453  XYZ=             -2.9543
 Hexadecapole moment (field-independent basis, Debye-Ang**3):
 XXXX=          -7525.5778 YYYY=           -677.5097 ZZZZ=           -271.9121 XXXY=            178.2936
 XXXZ=            112.0242 YYYX=             29.5490 YYYZ=             18.6511 ZZZX=            -16.1434
 ZZZY=             21.4646 XXYY=          -1291.2056 XXZZ=          -1355.6682 YYZZ=           -160.1864
 XXYZ=             76.1335 YYXZ=            -11.4924 ZZXY=             -5.8250
 N-N= 1.017056283005D+03 E-N=-4.355394378548D+03  KE= 9.856535453577D+02
 PrsmSu:  requested number of processors reduced to:  13 ShMem   1 Linda.
 Calling FoFJK, ICntrl=      2127 FMM=F ISym2X=0 I1Cent= 0 IOpClX= 0 NMat=1 NMatS=1 NMatT=0.
 ***** Axes restored to original set *****
 -------------------------------------------------------------------
 Center     Atomic                   Forces (Hartrees/Bohr)
 Number     Number              X              Y              Z
 -------------------------------------------------------------------
      1       16           0.026151493   -0.003441988   -0.010703139
      2        6          -0.002376754   -0.000749090    0.036797834
      3        6          -0.170939116    0.034805609    0.060304854
      4        6           0.064473786    0.063628417   -0.027644293
      5        6           0.014986751    0.009633278    0.017183378
      6        6           0.047825220    0.029681688    0.007432411
      7        6          -0.056643635    0.030237300    0.004202703
      8        6           0.046438839   -0.010357651    0.061063641
      9        6           0.144034310   -0.085138626   -0.098388267
     10        7          -0.024471371   -0.039498455   -0.038224773
     11        6          -0.056814419    0.045294359    0.008314067
     12        6           0.003375380   -0.002201846    0.005194284
     13        6           0.093074447   -0.094999112    0.016183063
     14        6           0.059746475   -0.073515651    0.031995527
     15        6          -0.043010516    0.031336834    0.007852468
     16        6           0.023758640   -0.026339550   -0.013476997
     17        1           0.024705149   -0.011127080   -0.004054216
     18        1          -0.010437294   -0.026338580   -0.026936169
     19        1          -0.002494978   -0.005083647   -0.008151692
     20        1          -0.047287509   -0.028343676   -0.043512430
     21        1           0.005923346    0.034493357   -0.024917405
     22        1          -0.031657607   -0.002021104   -0.041476386
     23        1          -0.009807183    0.033173065    0.015696048
     24        1          -0.015689060    0.063090831    0.048823621
     25        1          -0.034109058    0.052877073    0.039877638
     26        1          -0.038989800    0.011030092   -0.023366608
     27        1          -0.009765539   -0.030125847   -0.000069164
 -------------------------------------------------------------------
 Cartesian Forces:  Max     0.170939116 RMS     0.045381997

 GradGradGradGradGradGradGradGradGradGradGradGradGradGradGradGradGradGrad
 Berny optimization.
 FormGI is forming the generalized inverse of G from B-inverse, IUseBI=4.
 Internal  Forces:  Max     0.118108156 RMS     0.031724177
 Search for a local minimum.
 Step number   1 out of a maximum of  158
 All quantities printed in internal units (Hartrees-Bohrs-Radians)
 Mixed Optimization -- RFO/linear search
 Second derivative matrix not updated -- first step.
 ITU=  0
     Eigenvalues ---    0.00259   0.00349   0.00366   0.00483   0.00558
     Eigenvalues ---    0.00861   0.00937   0.00956   0.01689   0.02165
     Eigenvalues ---    0.02297   0.02592   0.02721   0.03023   0.03059
     Eigenvalues ---    0.03256   0.03801   0.04176   0.04466   0.04996
     Eigenvalues ---    0.05194   0.05579   0.06739   0.07829   0.07947
     Eigenvalues ---    0.08675   0.09042   0.09084   0.09895   0.10929
     Eigenvalues ---    0.10952   0.11301   0.12030   0.12117   0.12281
     Eigenvalues ---    0.12420   0.12936   0.13061   0.14039   0.14203
     Eigenvalues ---    0.14817   0.15050   0.15318   0.15691   0.15737
     Eigenvalues ---    0.15775   0.15968   0.16004   0.16629   0.17710
     Eigenvalues ---    0.17977   0.18861   0.19695   0.20895   0.21423
     Eigenvalues ---    0.21515   0.22190   0.22398   0.24779   0.26179
     Eigenvalues ---    0.27557   0.28096   0.29630   0.29859   0.31160
     Eigenvalues ---    0.34121   0.35706   0.36311   0.43712   0.44189
     Eigenvalues ---    0.47698   0.50456   0.57547   0.60695   0.64134
 RFO step:  Lambda=-2.92676315D-01 EMin= 2.59391566D-03
 Linear search not attempted -- first point.
 Maximum step size (   0.300) exceeded in Quadratic search.
    -- Step size scaled by   0.445
 Iteration  1 RMS(Cart)=  0.08548832 RMS(Int)=  0.00196860
 Iteration  2 RMS(Cart)=  0.00291287 RMS(Int)=  0.00030857
 Iteration  3 RMS(Cart)=  0.00000317 RMS(Int)=  0.00030856
 Iteration  4 RMS(Cart)=  0.00000000 RMS(Int)=  0.00030856
 Variable       Old X    -DE/DX   Delta X   Delta X   Delta X     New X
                                 (Linear)    (Quad)   (Total)
    R1        3.36818  -0.01983   0.00000  -0.01555  -0.01555   3.35264
    R2        3.34475   0.00706   0.00000  -0.00061  -0.00026   3.34450
    R3        3.23294   0.02010   0.00000   0.02110   0.02102   3.25396
    R4        2.80119  -0.00410   0.00000  -0.00950  -0.00932   2.79187
    R5        2.43930   0.11811   0.00000   0.05729   0.05700   2.49630
    R6        2.07127  -0.00827   0.00000  -0.00581  -0.00581   2.06546
    R7        2.61875   0.04592   0.00000   0.02995   0.02971   2.64845
    R8        2.12407  -0.02643   0.00000  -0.01948  -0.01948   2.10460
    R9        2.51971   0.05303   0.00000   0.02969   0.02950   2.54921
   R10        2.03598   0.00385   0.00000   0.00261   0.00261   2.03859
   R11        2.62726   0.04480   0.00000   0.02981   0.02955   2.65681
   R12        2.37660  -0.06400   0.00000  -0.05683  -0.05683   2.31977
   R13        2.58449   0.07850   0.00000   0.04600   0.04581   2.63030
   R14        2.18628  -0.03988   0.00000  -0.03096  -0.03096   2.15532
   R15        2.67586   0.07312   0.00000   0.04964   0.04953   2.72539
   R16        3.94696  -0.00812   0.00000  -0.01641  -0.01729   3.92967
   R17        2.19651  -0.03234   0.00000  -0.02647  -0.02648   2.17003
   R18        2.86949  -0.04540   0.00000  -0.03591  -0.03576   2.83373
   R19        2.59723   0.05595   0.00000   0.03557   0.03555   2.63278
   R20        3.74777   0.02506   0.00000   0.02653   0.02693   3.77470
   R21        2.95578  -0.09007   0.00000  -0.07290  -0.07273   2.88306
   R22        2.49315   0.05597   0.00000   0.02831   0.02831   2.52146
   R23        2.15408  -0.02672   0.00000  -0.02020  -0.02020   2.13387
   R24        3.44189  -0.05642   0.00000  -0.05617  -0.05636   3.38553
   R25        2.48068  -0.07870   0.00000  -0.07419  -0.07419   2.40649
   R26        2.75995  -0.06079   0.00000  -0.06495  -0.06495   2.69500
   R27        2.79937  -0.07000   0.00000  -0.07256  -0.07277   2.72661
   R28        3.89684   0.03121   0.00000   0.02738   0.02747   3.92431
   R29        2.59888  -0.03413   0.00000  -0.03563  -0.03561   2.56327
   R30        3.84146  -0.01735   0.00000  -0.02894  -0.02866   3.81281
   R31        3.87294  -0.01196   0.00000  -0.01257  -0.01202   3.86092
   R32        2.82397   0.01287   0.00000   0.00818   0.00842   2.83239
    A1        2.34017   0.01472   0.00000   0.00326   0.00349   2.34366
    A2        1.58949  -0.02151   0.00000  -0.01433  -0.01390   1.57559
    A3        1.34797   0.00624   0.00000   0.00236   0.00304   1.35101
    A4        2.15098  -0.02668   0.00000  -0.02398  -0.02416   2.12682
    A5        1.80870   0.02740   0.00000   0.02916   0.02934   1.83804
    A6        2.22551  -0.02040   0.00000  -0.02723  -0.02735   2.19816
    A7        2.31989  -0.00156   0.00000  -0.00574  -0.00579   2.31411
    A8        1.86819  -0.02027   0.00000  -0.02427  -0.02370   1.84449
    A9        1.48768   0.03605   0.00000   0.03555   0.03539   1.52307
   A10        1.97840   0.03745   0.00000   0.03724   0.03696   2.01536
   A11        2.07940  -0.00494   0.00000  -0.00661  -0.00641   2.07299
   A12        2.21902  -0.03357   0.00000  -0.03128  -0.03124   2.18778
   A13        1.98838   0.00690   0.00000   0.01611   0.01594   2.00432
   A14        2.10496  -0.00315   0.00000  -0.00785  -0.00783   2.09713
   A15        2.17609  -0.00540   0.00000  -0.01003  -0.00995   2.16615
   A16        2.09592   0.02047   0.00000   0.01360   0.01339   2.10931
   A17        2.15006  -0.02537   0.00000  -0.02194  -0.02184   2.12821
   A18        1.91915   0.00389   0.00000   0.00715   0.00717   1.92632
   A19        1.90252   0.02204   0.00000   0.02920   0.02898   1.93149
   A20        2.08289  -0.01177   0.00000  -0.01507  -0.01507   2.06783
   A21        2.15457  -0.01149   0.00000  -0.01368  -0.01354   2.14103
   A22        1.45545   0.05614   0.00000   0.06714   0.06723   1.52268
   A23        1.35595  -0.00021   0.00000   0.00009   0.00022   1.35618
   A24        2.46144  -0.02157   0.00000  -0.02557  -0.02637   2.43506
   A25        1.83034  -0.01766   0.00000  -0.01479  -0.01418   1.81615
   A26        1.62331   0.00197   0.00000   0.00686   0.00688   1.63019
   A27        2.08036   0.00112   0.00000   0.00839   0.00739   2.08775
   A28        2.14644   0.03112   0.00000   0.02399   0.02407   2.17051
   A29        2.84932  -0.02651   0.00000  -0.01992  -0.01991   2.82941
   A30        2.42958  -0.07050   0.00000  -0.06524  -0.06497   2.36461
   A31        2.09561   0.01131   0.00000   0.01036   0.01060   2.10621
   A32        2.19414  -0.03471   0.00000  -0.03377  -0.03389   2.16025
   A33        1.99321   0.02332   0.00000   0.02330   0.02319   2.01639
   A34        1.65981   0.04163   0.00000   0.04051   0.04038   1.70019
   A35        1.99903   0.00448   0.00000   0.00478   0.00488   2.00391
   A36        2.61707  -0.04614   0.00000  -0.04516  -0.04510   2.57197
   A37        1.10588   0.07459   0.00000   0.07359   0.07345   1.17933
   A38        2.85024   0.03732   0.00000   0.03516   0.03526   2.88551
   A39        1.80461  -0.04208   0.00000  -0.04179  -0.04203   1.76258
   A40        2.40289   0.03265   0.00000   0.03022   0.03004   2.43293
   A41        2.58183  -0.03347   0.00000  -0.03639  -0.03613   2.54570
   A42        1.23702   0.03123   0.00000   0.02463   0.02439   1.26141
   A43        1.91637   0.00371   0.00000   0.00403   0.00411   1.92047
   A44        2.39234   0.02761   0.00000   0.02670   0.02676   2.41910
   A45        1.06584   0.00165   0.00000  -0.00184  -0.00174   1.06410
   A46        1.23843   0.01571   0.00000   0.01335   0.01347   1.25189
   A47        1.97916   0.00235   0.00000   0.00172   0.00159   1.98075
   A48        2.49630  -0.01476   0.00000  -0.02092  -0.02111   2.47520
   A49        1.40224  -0.03021   0.00000  -0.02564  -0.02577   1.37647
   A50        1.58895   0.06586   0.00000   0.04612   0.04679   1.63574
   A51        3.21758   0.01806   0.00000   0.01507   0.01506   3.23264
   A52        3.04637   0.03584   0.00000   0.02927   0.02913   3.07550
    D1       -2.18669   0.02405   0.00000   0.02284   0.02291  -2.16378
    D2        2.39464  -0.01791   0.00000  -0.01933  -0.01914   2.37550
    D3        1.36493  -0.04920   0.00000  -0.05236  -0.05269   1.31224
    D4       -0.85958  -0.02279   0.00000  -0.02770  -0.02783  -0.88741
    D5       -1.52833  -0.02207   0.00000  -0.01960  -0.01965  -1.54798
    D6       -1.40140  -0.02362   0.00000  -0.02594  -0.02623  -1.42763
    D7        2.70594  -0.01707   0.00000  -0.01452  -0.01492   2.69102
    D8       -0.32316  -0.00554   0.00000  -0.00674  -0.00683  -0.32999
    D9       -0.32851  -0.00604   0.00000  -0.00775  -0.00794  -0.33645
   D10        2.92557   0.00550   0.00000   0.00003   0.00015   2.92573
   D11       -1.66415  -0.00537   0.00000  -0.00121  -0.00164  -1.66579
   D12        1.30812  -0.01591   0.00000  -0.01288  -0.01343   1.29469
   D13       -2.98812   0.02219   0.00000   0.01963   0.02001  -2.96811
   D14       -0.01585   0.01166   0.00000   0.00796   0.00822  -0.00763
   D15        0.03016   0.01235   0.00000   0.01357   0.01368   0.04384
   D16        3.00244   0.00182   0.00000   0.00190   0.00188   3.00432
   D17        3.13081  -0.01994   0.00000  -0.02456  -0.02496   3.10585
   D18        0.54330  -0.01939   0.00000  -0.02448  -0.02459   0.51871
   D19        0.16652  -0.00923   0.00000  -0.01274  -0.01302   0.15350
   D20       -2.42099  -0.00868   0.00000  -0.01266  -0.01265  -2.43364
   D21       -2.89841   0.02989   0.00000   0.03481   0.03500  -2.86341
   D22       -0.28770   0.02504   0.00000   0.03233   0.03230  -0.25540
   D23       -0.24438   0.01987   0.00000   0.02576   0.02579  -0.21859
   D24        2.36633   0.01502   0.00000   0.02327   0.02309   2.38942
   D25        2.48502   0.00739   0.00000   0.01628   0.01513   2.50015
   D26        1.32439   0.01365   0.00000   0.01889   0.01860   1.34299
   D27        0.64336  -0.02967   0.00000  -0.03824  -0.03781   0.60555
   D28       -0.09921   0.01193   0.00000   0.01857   0.01769  -0.08152
   D29       -1.25985   0.01819   0.00000   0.02117   0.02117  -1.23868
   D30       -1.94088  -0.02513   0.00000  -0.03596  -0.03525  -1.97612
   D31        1.57410   0.00868   0.00000   0.01770   0.01722   1.59132
   D32       -2.42565   0.05042   0.00000   0.05822   0.05808  -2.36757
   D33       -2.24517  -0.00072   0.00000   0.00760   0.00759  -2.23759
   D34        0.03827   0.04102   0.00000   0.04812   0.04845   0.08671
   D35        2.09960   0.05382   0.00000   0.05826   0.05844   2.15804
   D36       -0.91871   0.03512   0.00000   0.04325   0.04335  -0.87537
   D37        2.73541   0.01276   0.00000   0.01809   0.01842   2.75383
   D38        0.50041  -0.00832   0.00000  -0.01273  -0.01242   0.48799
   D39       -2.90504   0.00824   0.00000   0.01225   0.01254  -2.89251
   D40       -1.65224  -0.00182   0.00000  -0.00344  -0.00324  -1.65548
   D41        0.36784   0.03131   0.00000   0.03764   0.03838   0.40622
   D42        0.38519  -0.00873   0.00000  -0.01531  -0.01525   0.36994
   D43       -1.25762  -0.00091   0.00000  -0.00333  -0.00297  -1.26060
   D44       -0.51312   0.00042   0.00000   0.00077   0.00115  -0.51198
   D45        2.65273   0.00459   0.00000   0.00603   0.00611   2.65883
   D46        0.13918   0.00684   0.00000   0.00695   0.00675   0.14593
   D47       -3.09184   0.00282   0.00000   0.00398   0.00403  -3.08781
   D48       -3.02401   0.00236   0.00000   0.00151   0.00142  -3.02258
   D49        0.02816  -0.00166   0.00000  -0.00146  -0.00129   0.02687
   D50       -2.99345   0.00230   0.00000   0.00060   0.00018  -2.99327
   D51       -2.30183   0.00786   0.00000   0.01248   0.01247  -2.28936
   D52        0.31108  -0.00378   0.00000  -0.00715  -0.00729   0.30380
   D53        1.00270   0.00178   0.00000   0.00473   0.00501   1.00771
   D54        2.64046  -0.01086   0.00000  -0.01369  -0.01354   2.62692
   D55       -3.01657   0.01381   0.00000   0.01619   0.01563  -3.00094
   D56        1.99049   0.01430   0.00000   0.01955   0.02003   2.01052
   D57        1.38725   0.02692   0.00000   0.02878   0.02916   1.41641
   D58        0.85433  -0.00542   0.00000  -0.00381  -0.00402   0.85031
   D59       -0.63543  -0.02441   0.00000  -0.03014  -0.02984  -0.66527
   D60       -2.93075  -0.00852   0.00000  -0.01254  -0.01205  -2.94280
   D61       -1.25042   0.00162   0.00000  -0.00483  -0.00475  -1.25516
   D62       -1.89746  -0.01294   0.00000  -0.01096  -0.01068  -1.90815
   D63       -0.64057  -0.00526   0.00000  -0.00914  -0.00903  -0.64960
   D64        2.94818   0.02777   0.00000   0.03008   0.03048   2.97866
         Item               Value     Threshold  Converged?
 Maximum Force            0.118108     0.000450     NO 
 RMS     Force            0.031724     0.000300     NO 
 Maximum Displacement     0.254424     0.001800     NO 
 RMS     Displacement     0.084881     0.001200     NO 
 Predicted change in Energy=-1.193724D-01
 GradGradGradGradGradGradGradGradGradGradGradGradGradGradGradGradGradGrad

                          Input orientation:                          
 ---------------------------------------------------------------------
 Center     Atomic      Atomic             Coordinates (Angstroms)
 Number     Number       Type             X           Y           Z
 ---------------------------------------------------------------------
      1         16           0        2.863755   -0.049535    0.468964
      2          6           0        4.792162   -1.115410    0.705336
      3          6           0        3.530114   -1.371527   -0.508723
      4          6           0        4.754061   -1.324422   -1.003429
      5          6           0        5.354169   -2.567399   -1.246500
      6          6           0        6.667569   -2.512988   -1.549440
      7          6           0        7.404906   -3.688674   -1.774638
      8          6           0        8.771343   -3.430933   -1.713080
      9          6           0        8.916056   -4.722202   -1.087255
     10          7           0        9.135049   -5.429155   -2.391441
     11          6           0        9.783253   -6.741403   -2.822070
     12          6           0       10.789514   -7.266100   -2.120295
     13          6           0       10.712664   -6.140259   -0.728819
     14          6           0        9.738909   -4.858168    0.028743
     15          6           0        8.233793   -3.452501    0.295615
     16          6           0        6.636137   -2.257562    0.596493
     17          1           0        2.770239   -2.156900   -0.488438
     18          1           0        5.262864   -0.336860   -1.082028
     19          1           0        4.821879   -3.478956   -1.024034
     20          1           0        7.398009   -1.627105   -1.115160
     21          1           0        6.951216   -4.684887   -1.454370
     22          1           0        9.508896   -2.760409   -1.142931
     23          1           0        9.481688   -7.317151   -3.745466
     24          1           0       11.287114   -8.329796   -2.612891
     25          1           0       11.859741   -6.986323   -0.681491
     26          1           0       11.013534   -5.209427    0.331781
     27          1           0        6.237066   -0.813588    0.643338
 ---------------------------------------------------------------------
                    Distance matrix (angstroms):
                    1          2          3          4          5
     1  S    0.000000
     2  C    2.216014   0.000000
     3  C    1.774139   1.769831   0.000000
     4  C    2.714136   1.721922   1.320984   0.000000
     5  C    3.935050   2.496755   2.302521   1.401501   0.000000
     6  C    4.961004   3.248752   3.497092   2.317829   1.348982
     7  C    6.236918   4.427007   4.688894   3.634753   2.396187
     8  C    7.148061   5.200410   5.758656   4.591248   3.555343
     9  C    7.802947   5.764445   6.369466   5.373466   4.166002
    10  N    8.743647   6.859963   7.171072   6.161856   4.878072
    11  C   10.173076   8.306948   8.560893   7.612090   6.286614
    12  C   11.027272   9.043418   9.489049   8.542694   7.237699
    13  C   10.006847   7.896724   8.624284   7.666332   6.461175
    14  C    8.401458   6.239897   7.141055   6.196890   5.108797
    15  C    6.359838   4.180274   5.205959   4.280744   3.384340
    16  C    4.372930   2.171774   3.413787   2.640589   2.266288
    17  H    2.316539   2.568652   1.092992   2.212190   2.723943
    18  H    2.871211   2.005585   2.098008   1.113704   2.238457
    19  H    4.221875   2.928815   2.524968   2.155700   1.078777
    20  H    5.055456   3.219701   3.923480   2.663562   2.253593
    21  H    6.472484   4.697554   4.855568   4.040243   2.660362
    22  H    7.355607   5.326321   6.170661   4.968901   4.160497
    23  H   10.694705   8.958956   9.013777   8.110612   6.770627
    24  H   12.207110  10.258772  10.630902   9.713208   8.382844
    25  H   11.417983   9.292017  10.046814   9.091285   7.884706
    26  H    9.646875   7.456942   8.452070   7.487126   6.442025
    27  H    3.463150   1.477392   2.994349   2.274224   2.725224
                    6          7          8          9         10
     6  C    0.000000
     7  C    1.405922   0.000000
     8  C    2.301145   1.391894   0.000000
     9  C    3.185896   1.955569   1.442212   0.000000
    10  N    3.911707   2.530438   2.141342   1.499547   0.000000
    11  C    5.404310   4.009090   3.634974   2.799784   1.525649
    12  C    6.317308   4.936904   4.352855   3.323919   2.486994
    13  C    5.494844   4.247972   3.475334   2.316714   2.399761
    14  C    4.174165   3.172927   2.450945   1.393207   2.558899
    15  C    2.596145   2.242493   2.079491   1.997486   3.455386
    16  C    2.161309   2.874256   3.357087   3.755994   5.023078
    17  H    4.054838   5.047849   6.255890   6.686585   7.405395
    18  H    2.631958   4.037662   4.720270   5.707632   6.529920
    19  H    2.148422   2.698039   4.009408   4.279245   4.927119
    20  H    1.227571   2.164492   2.344643   3.447444   4.370559
    21  H    2.192405   1.140547   2.225353   1.999190   2.490213
    22  H    2.880904   2.384849   1.148328   2.050169   2.969974
    23  H    5.985130   4.622016   4.442733   3.757631   2.349058
    24  H    7.503758   6.108537   5.580109   4.578670   3.618583
    25  H    6.908163   5.649337   4.821118   3.735796   3.573884
    26  H    5.449512   4.446558   3.517374   2.578849   3.315558
    27  H    2.807413   3.934028   4.338867   5.044720   6.237920
                   11         12         13         14         15
    11  C    0.000000
    12  C    1.334300   0.000000
    13  C    2.367885   1.791544   0.000000
    14  C    3.416970   3.394153   1.779286   0.000000
    15  C    4.789328   5.187665   3.797145   2.076654   0.000000
    16  C    6.457224   7.051024   5.783586   4.088115   2.017650
    17  H    8.697464   9.647573   8.888591   7.491775   5.669546
    18  H    8.029934   8.923913   7.968972   6.458407   4.520126
    19  H    6.204170   7.152406   6.470783   5.214187   3.658323
    20  H    5.895674   6.656641   5.612910   4.150674   2.453750
    21  H    3.757698   4.673184   4.097929   3.162417   2.495241
    22  H    4.329330   4.785026   3.611638   2.413777   2.043109
    23  H    1.129198   2.086671   3.464179   4.511920   5.729145
    24  H    2.197350   1.273462   2.945131   4.628971   6.447494
    25  H    2.992302   1.814889   1.426131   3.087298   5.156562
    26  H    3.715820   3.208234   1.442859   1.356423   3.288625
    27  H    7.728098   8.366443   7.091348   5.385096   3.327415
                   16         17         18         19         20
    16  C    0.000000
    17  H    4.016513   0.000000
    18  H    2.896965   3.142940   0.000000
    19  H    2.722030   2.498785   3.173421   0.000000
    20  H    1.976785   4.699970   2.494930   3.173972   0.000000
    21  H    3.193309   4.980393   4.679157   2.484660   3.108813
    22  H    3.395762   6.797212   4.889386   4.743266   2.396037
    23  H    7.249084   9.070831   8.580026   6.622065   6.605819
    24  H    8.294803  10.731035  10.125323   8.237376   7.892680
    25  H    7.161038  10.294642   9.375211   7.870861   6.986869
    26  H    5.286320   8.828510   7.668831   6.570338   5.291379
    27  H    1.498837   3.886424   2.037947   3.447763   2.258742
                   21         22         23         24         25
    21  H    0.000000
    22  H    3.215951   0.000000
    23  H    4.310594   5.247650   0.000000
    24  H    5.781655   6.028343   2.359606   0.000000
    25  H    5.476090   4.857751   3.892625   2.421390   0.000000
    26  H    4.468546   3.230542   4.838698   4.299145   2.213627
    27  H    4.460644   4.205442   8.490318   9.622858   8.454129
                   26         27
    26  H    0.000000
    27  H    6.498855   0.000000
 Stoichiometry    C14H11NS
 Framework group  C1[X(C14H11NS)]
 Deg. of freedom    75
 Full point group                 C1      NOp   1
 Largest Abelian subgroup         C1      NOp   1
 Largest concise Abelian subgroup C1      NOp   1
                         Standard orientation:                         
[...]
   A26        2.01608  -0.00181  -0.00067  -0.00380  -0.00500   2.01109
   A27        2.12879  -0.00118  -0.00272   0.00700   0.00487   2.13366
   A28        2.13830   0.00299   0.00338  -0.00315   0.00013   2.13843
   A29        2.38773  -0.00100   0.00051  -0.00543  -0.00504   2.38269
   A30        2.07318  -0.00701  -0.00393  -0.00019  -0.00410   2.06908
   A31        2.15451   0.00066   0.00013   0.00790   0.00811   2.16263
   A32        2.02799  -0.00156  -0.00039  -0.00840  -0.00889   2.01911
   A33        2.10066   0.00090   0.00025   0.00038   0.00052   2.10119
   A34        2.04408   0.00577   0.00351  -0.00165   0.00207   2.04615
   A35        2.11354  -0.00263  -0.00265   0.00333   0.00057   2.11411
   A36        2.12519  -0.00311  -0.00081  -0.00244  -0.00336   2.12182
   A37        2.12382  -0.00280  -0.00239   0.00009  -0.00266   2.12116
   A38        2.52253   0.00058  -0.00057  -0.00106  -0.00171   2.52082
   A39        1.63627   0.00225   0.00290   0.00238   0.00492   1.64119
   A40        2.08624  -0.00151   0.00126   0.00782   0.00873   2.09497
   A41        1.15943  -0.00196   0.00034   0.01317   0.01333   1.17276
   A42        0.95939   0.00110   0.00148  -0.00005   0.00197   0.96137
   A43        2.64867   0.00052  -0.01294   0.06389   0.04983   2.69850
   A44        2.58211  -0.00015  -0.00089  -0.00094  -0.00298   2.57913
   A45        0.94011  -0.00128  -0.00095  -0.00144  -0.00255   0.93755
   A46        1.24693  -0.00021   0.00010  -0.00219  -0.00198   1.24495
   A47        2.60805   0.00149  -0.01172   0.06317   0.04992   2.65797
   A48        2.41816  -0.00523   0.01177  -0.07055  -0.05811   2.36004
   A49        0.58026  -0.00461  -0.00168   0.00651   0.00495   0.58521
   A50        2.56369   0.00201  -0.00092  -0.00515  -0.00654   2.55715
   A51        3.85498   0.00128  -0.01162   0.06098   0.04794   3.90292
   A52        2.93829   0.00048  -0.01353   0.07049   0.06003   2.99832
    D1       -2.88769   0.00301   0.03140  -0.13182  -0.10000  -2.98769
    D2        1.62697  -0.00351   0.02659  -0.14539  -0.11936   1.50762
    D3        0.61521  -0.00239   0.01006  -0.05834  -0.04774   0.56746
    D4       -1.63947  -0.00106   0.01051  -0.06380  -0.05266  -1.69213
    D5        0.09112   0.00199  -0.03874   0.22852   0.19068   0.28180
    D6       -0.55082  -0.00024  -0.01941   0.12424   0.10516  -0.44567
    D7        2.47187   0.00440   0.00800  -0.00938  -0.00198   2.46989
    D8       -0.38828   0.00217   0.00792  -0.02563  -0.01800  -0.40628
    D9       -1.09823   0.00047   0.00193  -0.00299  -0.00156  -1.09979
   D10        2.32481  -0.00175   0.00184  -0.01925  -0.01759   2.30722
   D11       -1.83678   0.00002   0.00028  -0.01310  -0.01300  -1.84978
   D12        0.99438   0.00106   0.00076   0.00329   0.00367   0.99805
   D13       -2.62996  -0.00221   0.00000  -0.01782  -0.01754  -2.64750
   D14        0.20120  -0.00118   0.00048  -0.00142  -0.00087   0.20033
   D15        0.21973   0.00018   0.00006  -0.00118  -0.00127   0.21847
   D16        3.05089   0.00122   0.00054   0.01522   0.01540   3.06630
   D17        2.50929   0.00248  -0.00288   0.03807   0.03453   2.54381
   D18       -0.23176   0.00116  -0.00162   0.02390   0.02184  -0.20992
   D19       -0.32062   0.00155  -0.00314   0.02147   0.01789  -0.30273
   D20       -3.06166   0.00023  -0.00188   0.00729   0.00520  -3.05646
   D21       -2.56977  -0.00106  -0.00431   0.01517   0.01063  -2.55914
   D22        0.69488  -0.00071  -0.00074  -0.00680  -0.00769   0.68719
   D23        0.17956   0.00016  -0.00540   0.02838   0.02262   0.20218
   D24       -2.83896   0.00050  -0.00183   0.00641   0.00430  -2.83467
   D25       -2.59646   0.00011   0.00020  -0.01998  -0.01992  -2.61638
   D26        1.64989   0.00121   0.00171  -0.00886  -0.00665   1.64325
   D27       -0.28584   0.00083  -0.00057  -0.00317  -0.00438  -0.29022
   D28        0.42656  -0.00025  -0.00341   0.00146  -0.00215   0.42440
   D29       -1.61028   0.00085  -0.00190   0.01258   0.01113  -1.59915
   D30        2.73718   0.00046  -0.00418   0.01827   0.01339   2.75056
   D31        0.92894   0.00090   0.00164  -0.00769  -0.00612   0.92282
   D32       -2.21761   0.00030   0.00151   0.00290   0.00425  -2.21336
   D33       -1.38679  -0.00015   0.00133  -0.02188  -0.02010  -1.40689
   D34        1.74984  -0.00076   0.00120  -0.01129  -0.00973   1.74011
   D35        2.29077   0.00112  -0.00145   0.00056  -0.00110   2.28967
   D36        0.05024   0.00133  -0.01432   0.06886   0.05553   0.10577
   D37       -3.14042  -0.00033  -0.00108   0.00166   0.00056  -3.13986
   D38        0.00616   0.00029  -0.00092  -0.00903  -0.00986  -0.00370
   D39       -2.69304   0.00007  -0.00019   0.01522   0.01513  -2.67791
   D40       -0.05512   0.00177  -0.00563  -0.00993  -0.01570  -0.07082
   D41        3.08116   0.00111  -0.00579   0.00141  -0.00459   3.07657
   D42        1.24962   0.00124  -0.02608   0.11350   0.08577   1.33539
   D43       -1.32346   0.00046   0.00090  -0.02204  -0.02025  -1.34371
   D44       -0.01241   0.00038   0.00476   0.00172   0.00646  -0.00596
   D45        3.13526  -0.00005   0.00094   0.02438   0.02523  -3.12270
   D46       -0.01720   0.00024   0.00140  -0.00062   0.00072  -0.01648
   D47       -3.12983  -0.00084  -0.00735   0.02881   0.02148  -3.10835
   D48        3.11807   0.00068   0.00537  -0.02421  -0.01892   3.09915
   D49        0.00544  -0.00040  -0.00337   0.00522   0.00184   0.00728
   D50       -3.06525  -0.00241  -0.01767  -0.05319  -0.07073  -3.13599
   D51        0.02838  -0.00124  -0.01973   0.00619  -0.01351   0.01486
   D52        0.04717  -0.00132  -0.00885  -0.08273  -0.09152  -0.04435
   D53        3.14080  -0.00014  -0.01091  -0.02334  -0.03430   3.10650
   D54        0.04965  -0.00031   0.01758  -0.00046   0.01729   0.06694
   D55       -3.13284   0.00061   0.01573   0.05016   0.06610  -3.06674
   D56        2.47031   0.00033  -0.00530  -0.01341  -0.01869   2.45163
   D57        2.03407   0.00078  -0.00426  -0.01223  -0.01590   2.01818
   D58        1.97774  -0.00039  -0.02006   0.08792   0.06820   2.04594
   D59       -3.04873  -0.00245  -0.00293   0.01304   0.01018  -3.03855
   D60        2.90965  -0.00191  -0.00885   0.00071  -0.00822   2.90143
   D61       -1.24450   0.00180  -0.00098   0.01217   0.00871  -1.23579
   D62       -2.34939   0.00223   0.01036  -0.04316  -0.03228  -2.38166
   D63       -0.23319   0.00162  -0.02491   0.13194   0.10879  -0.12440
   D64        1.23972  -0.00171   0.03359  -0.19718  -0.16208   1.07764
         Item               Value     Threshold  Converged?
 Maximum Force            0.016630     0.000450     NO 
 RMS     Force            0.003176     0.000300     NO 
 Maximum Displacement     0.112936     0.001800     NO 
 RMS     Displacement     0.023925     0.001200     NO 
 Predicted change in Energy=-2.701913D-03
 GradGradGradGradGradGradGradGradGradGradGradGradGradGradGradGradGradGrad

                          Input orientation:                          
 ---------------------------------------------------------------------
 Center     Atomic      Atomic             Coordinates (Angstroms)
 Number     Number       Type             X           Y           Z
 ---------------------------------------------------------------------
      1         16           0        3.596641    0.389142    0.870882
      2          6           0        4.503380   -1.089682    0.849140
      3          6           0        3.511657   -1.192870   -0.158857
      4          6           0        4.578716   -1.148659   -1.176905
      5          6           0        5.259753   -2.350083   -1.473107
      6          6           0        6.544714   -2.477426   -1.920297
      7          6           0        7.277284   -3.618266   -1.473638
      8          6           0        8.737788   -3.604432   -1.225215
      9          6           0        9.511706   -4.891684   -1.436353
     10          7           0        9.340188   -5.469497   -2.626325
     11          6           0        9.989481   -6.608502   -2.882510
     12          6           0       10.846762   -7.233212   -1.981329
     13          6           0       11.042970   -6.608752   -0.748421
     14          6           0       10.334635   -5.431423   -0.455495
     15          6           0        8.149269   -3.326833    0.100110
     16          6           0        7.198035   -3.198451    0.923802
     17          1           0        2.569146   -1.732980   -0.151918
     18          1           0        4.968235   -0.181939   -1.470795
     19          1           0        4.808515   -3.253999   -1.063445
     20          1           0        7.095923   -1.609024   -2.270358
     21          1           0        6.788811   -4.581031   -1.390895
     22          1           0        9.233212   -2.746761   -1.683904
     23          1           0        9.830614   -7.028606   -3.870695
     24          1           0       11.376916   -8.145263   -2.248893
     25          1           0       11.699529   -7.031434    0.002759
     26          1           0       10.492400   -4.897093    0.475270
     27          1           0        5.389420   -1.560879    1.265160
 ---------------------------------------------------------------------
                    Distance matrix (angstroms):
                    1          2          3          4          5
     1  S    0.000000
     2  C    1.734811   0.000000
     3  C    1.889536   1.417823   0.000000
     4  C    2.742761   2.028303   1.475463   0.000000
     5  C    3.970338   2.748371   2.474315   1.412433   0.000000
     6  C    4.969812   3.709806   3.735263   2.486644   1.366498
     7  C    5.924798   4.414021   4.668099   3.670052   2.383007
     8  C    6.839126   5.343887   5.853648   4.830221   3.705613
     9  C    8.258235   6.690443   7.163366   6.197736   4.953806
    10  N    8.918657   7.392993   7.638698   6.591060   5.264086
    11  C   10.194282   8.630173   8.871841   7.873712   6.518502
    12  C   10.899525   9.273242   9.675273   8.772530   7.437601
    13  C   10.346037   8.705089   9.295163   8.472473   7.218520
    14  C    9.002156   7.386225   8.037808   7.210624   6.023671
    15  C    5.926971   4.342626   5.111586   4.373106   3.431961
    16  C    5.083666   3.422520   4.334038   3.933884   3.197161
    17  H    2.570072   2.270950   1.086322   2.330323   3.060348
    18  H    2.773239   2.534203   2.205625   1.082886   2.187655
    19  H    4.299156   2.904369   2.597764   2.120882   1.090186
    20  H    5.109308   4.089286   4.180740   2.782787   2.134548
    21  H    6.325204   4.736082   4.872093   4.087968   2.705902
    22  H    6.937705   5.615473   6.121809   4.947253   3.998770
    23  H   10.787398   9.269686   9.368179   8.331429   6.966331
    24  H   11.962514  10.325916  10.703566   9.814130   8.462011
    25  H   11.021587   9.370450  10.057644   9.311531   8.097156
    26  H    8.697833   7.106654   7.928062   7.193893   6.137103
    27  H    2.678077   1.086354   2.385215   2.605925   2.852676
                    6          7          8          9         10
     6  C    0.000000
     7  C    1.427473   0.000000
     8  C    2.561807   1.481545   0.000000
     9  C    3.855630   2.572086   1.516755   0.000000
    10  N    4.155194   3.001885   2.409245   1.333911   0.000000
    11  C    5.464253   4.275797   3.652095   2.295017   1.335869
    12  C    6.413177   5.105561   4.264683   2.749932   2.407587
    13  C    6.218959   4.863058   3.816692   2.401321   2.779189
    14  C    5.023469   3.697505   2.545640   1.389465   2.388069
    15  C    2.716272   1.822628   1.476449   2.581804   3.666435
    16  C    3.005928   2.435209   2.674684   3.713549   4.727565
    17  H    4.414352   5.240975   6.535017   7.734748   8.119807
    18  H    2.820744   4.140055   5.097381   6.544158   6.957549
    19  H    2.086060   2.528986   3.948184   4.994104   5.280822
    20  H    1.086507   2.169035   2.787418   4.160220   4.479586
    21  H    2.182888   1.082759   2.186254   2.740937   2.970721
    22  H    2.712277   2.151602   1.091532   2.177047   2.883209
    23  H    5.942595   4.888332   4.462937   3.254867   2.054215
    24  H    7.455369   6.156436   5.350893   3.837318   3.383850
    25  H    7.142076   5.778037   4.692991   3.381737   3.862411
    26  H    5.213229   3.971223   2.764287   2.148509   3.357846
    27  H    3.510256   3.911251   4.646466   5.948586   6.784505
                   11         12         13         14         15
    11  C    0.000000
    12  C    1.391877   0.000000
    13  C    2.379953   1.395890   0.000000
    14  C    2.719384   2.415965   1.404866   0.000000
    15  C    4.801224   5.183498   4.456961   3.084448   0.000000
    16  C    5.823112   6.167032   5.404629   4.089851   1.264831
    17  H    9.289145  10.105356   9.794625   8.606594   5.808758
    18  H    8.276869   9.194464   8.872888   7.575365   4.740999
    19  H    6.434601   7.289518   7.086751   5.970659   3.538333
    20  H    5.808803   6.766374   6.549256   5.328575   3.111193
    21  H    4.071835   4.883610   4.756290   3.764440   2.376333
    22  H    4.113593   4.777054   4.366386   3.151116   2.166592
    23  H    1.085466   2.155023   3.375601   3.803764   5.683075
    24  H    2.165198   1.088344   2.173431   3.415781   6.257219
    25  H    3.380520   2.168993   1.083513   2.152433   5.132045
    26  H    3.802175   3.408504   2.174931   1.084768   2.845475
    27  H    7.990133   8.514554   7.842076   6.511291   3.477456
                   16         17         18         19         20
    16  C    0.000000
    17  H    4.973067   0.000000
    18  H    4.450330   3.146553   0.000000
    19  H    3.108382   2.856424   3.103063   0.000000
    20  H    3.569225   4.999487   2.683827   3.065097   0.000000
    21  H    2.727052   5.239469   4.761605   2.406202   3.114579
    22  H    3.338578   6.912635   4.981340   4.496688   2.491261
    23  H    6.677407   9.726350   8.733790   6.881118   6.277857
    24  H    7.211102  11.094661  10.251397   8.274880   7.813436
    25  H    5.983605  10.557530   9.715825   7.930439   7.467448
    26  H    3.733552   8.554703   7.519059   6.113424   5.466803
    27  H    2.463586   3.160961   3.092623   2.937091   3.926112
                   21         22         23         24         25
    21  H    0.000000
    22  H    3.070098   0.000000
    23  H    4.625213   4.844910   0.000000
    24  H    5.872872   5.835967   2.503640   0.000000
    25  H    5.662323   5.223598   4.300756   2.532712   0.000000
    26  H    4.159212   3.297198   4.885563   4.330593   2.497166
    27  H    4.258431   4.987788   8.717640   9.568322   8.446188
                   26         27
    26  H    0.000000
    27  H    6.147736   0.000000
 Stoichiometry    C14H11NS
 Framework group  C1[X(C14H11NS)]
 Deg. of freedom    75
 Full point group                 C1      NOp   1
 Largest Abelian subgroup         C1      NOp   1
 Largest concise Abelian subgroup C1      NOp   1
                         Standard orientation:                         
 ---------------------------------------------------------------------
 Center     Atomic      Atomic             Coordinates (Angstroms)
 Number     Number       Type             X           Y           Z
 ---------------------------------------------------------------------
      1         16           0        5.417075    0.561260    0.185512
      2          6           0        3.790968    0.756931   -0.386374
      3          6           0        4.219161   -0.536357   -0.779155
      4          6           0        3.247901   -1.117162    0.167583
      5          6           0        1.905294   -1.238128   -0.254010
      6          6           0        0.790993   -1.220594    0.536777
      7          6           0       -0.384522   -0.624460   -0.011373
      8          6           0       -1.379657    0.114170    0.800482
      9          6           0       -2.826665    0.099281    0.346068
     10          7           0       -3.343064   -1.111940    0.132538
     11          6           0       -4.613086   -1.202313   -0.271717
     12          6           0       -5.441791   -0.103559   -0.479823
     13          6           0       -4.903369    1.159467   -0.228082
     14          6           0       -3.557390    1.266334    0.159951
     15          6           0       -0.477550    1.169346    0.297783
     16          6           0        0.478994    1.619705   -0.396478
     17          1           0        4.552381   -0.891547   -1.750185
     18          1           0        3.530021   -1.193662    1.210271
     19          1           0        1.734576   -1.070474   -1.317613
     20          1           0        0.879297   -1.300228    1.616758
     21          1           0       -0.639189   -0.779549   -1.052267
     22          1           0       -1.282010   -0.087138    1.868837
     23          1           0       -4.991079   -2.209885   -0.413685
     24          1           0       -6.480043   -0.230810   -0.780375
     25          1           0       -5.488161    2.061734   -0.361996
     26          1           0       -3.116921    2.227325    0.403273
     27          1           0        2.933675    1.421685   -0.328770
 ---------------------------------------------------------------------
 Rotational constants (GHZ):           1.9214422           0.1663925           0.1575637
 Standard basis: 6-31G(2df,p) (6D, 7F)
 There are   555 symmetry adapted cartesian basis functions of A   symmetry.
 There are   507 symmetry adapted basis functions of A   symmetry.
   507 basis functions,   805 primitive gaussians,   555 cartesian basis functions
    59 alpha electrons       59 beta electrons
       nuclear repulsion energy      1000.5161765046 Hartrees.
 NAtoms=   27 NActive=   27 NUniq=   27 SFac= 1.00D+00 NAtFMM=   60 NAOKFM=F Big=F
 Integral buffers will be    131072 words long.
 Raffenetti 2 integral format.
 Two-electron integral symmetry is turned on.
 One-electron integrals computed using PRISM.
 PrsmSu:  requested number of processors reduced to:  12 ShMem   1 Linda.
 NBasis=   507 RedAO= T EigKep=  1.52D-04  NBF=   507
 NBsUse=   507 1.00D-06 EigRej= -1.00D+00 NBFU=   507
 Initial guess from the checkpoint file:  "Sdc1ccccccc2nccccc-2c1.chk"
 B after Tr=    -0.000000    0.000000    0.000000
         Rot=    0.999998   -0.001947   -0.000026   -0.000540 Ang=  -0.23 deg.
 ExpMin= 1.17D-01 ExpMax= 2.19D+04 ExpMxC= 3.30D+03 IAcc=2 IRadAn=         4 AccDes= 0.00D+00
 Harris functional with IExCor=  402 and IRadAn=       4 diagonalized for initial guess.
 HarFok:  IExCor=  402 AccDes= 0.00D+00 IRadAn=         4 IDoV= 1 UseB2=F ITyADJ=14
 ICtDFT=  3500011 ScaDFX=  1.000000  1.000000  1.000000  1.000000
 FoFCou: FMM=F IPFlag=           0 FMFlag=      100000 FMFlg1=           0
         NFxFlg=           0 DoJE=T BraDBF=F KetDBF=T FulRan=T
         wScrn=  0.000000 ICntrl=       500 IOpCl=  0 I1Cent=   200000004 NGrid=           0
         NMat0=    1 NMatS0=      1 NMatT0=    0 NMatD0=    1 NMtDS0=    0 NMtDT0=    0
 Petite list used in FoFCou.
 Requested convergence on RMS density matrix=1.00D-08 within 128 cycles.
 Requested convergence on MAX density matrix=1.00D-06.
 Requested convergence on             energy=1.00D-06.
 No special actions if energy rises.
 Integral accuracy reduced to 1.0D-05 until final iterations.
 Initial convergence to 1.0D-05 achieved.  Increase integral accuracy.
 SCF Done:  E(RB3LYP) =  -992.759105989     A.U. after   14 cycles
            NFock= 14  Conv=0.28D-08     -V/T= 2.0061
 PrsmSu:  requested number of processors reduced to:  13 ShMem   1 Linda.
 Calling FoFJK, ICntrl=      2127 FMM=F ISym2X=0 I1Cent= 0 IOpClX= 0 NMat=1 NMatS=1 NMatT=0.
slurmstepd: error: *** JOB 27447234 ON lewis4-r630-hpc4-node229 CANCELLED AT 2023-05-17T23:34:34 DUE TO TIME LIMIT ***
