### Starting Gaussian ###
 Entering Gaussian System, Link 0=g16
 Initial command:
 /cluster/software/gaussian/gaussian-16-A.03/avx2/g16/l1.exe "/local/scratch/yxie/Gau-21326.inp" -scrdir="/local/scratch/yxie/"
 Entering Link 1 = /cluster/software/gaussian/gaussian-16-A.03/avx2/g16/l1.exe PID=     21328.
  
 Copyright (c) 1988,1990,1992,1993,1995,1998,2003,2009,2016,
            Gaussian, Inc.  All Rights Reserved.
  
 This is part of the Gaussian(R) 16 program.  It is based on
 the Gaussian(R) 09 system (copyright 2009, Gaussian, Inc.),
 the Gaussian(R) 03 system (copyright 2003, Gaussian, Inc.),
 the Gaussian(R) 98 system (copyright 1998, Gaussian, Inc.),
 the Gaussian(R) 94 system (copyright 1995, Gaussian, Inc.),
 the Gaussian 92(TM) system (copyright 1992, Gaussian, Inc.),
 the Gaussian 90(TM) system (copyright 1990, Gaussian, Inc.),
 the Gaussian 88(TM) system (copyright 1988, Gaussian, Inc.),
 the Gaussian 86(TM) system (copyright 1986, Carnegie Mellon
 University), and the Gaussian 82(TM) system (copyright 1983,
 Carnegie Mellon University). Gaussian is a federally registered
 trademark of Gaussian, Inc.
  
 This software contains proprietary and confidential information,
 including trade secrets, belonging to Gaussian, Inc.
  
 This software is provided under written license and may be
 used, copied, transmitted, or stored only in accord with that
 written license.
  
 The following legend is applicable only to US Government
 contracts under FAR:
  
                    RESTRICTED RIGHTS LEGEND
  
 Use, reproduction and disclosure by the US Government is
 subject to restrictions as set forth in subparagraphs (a)
 and (c) of the Commercial Computer Software - Restricted
 Rights clause in FAR 52.227-19.
  
 Gaussian, Inc.
 340 Quinnipiac St., Bldg. 40, Wallingford CT 06492
  
  
 ---------------------------------------------------------------
 Warning -- This program may not be used in any manner that
 competes with the business of Gaussian, Inc. or will provide
 assistance to any competitor of Gaussian, Inc.  The licensee
 of this program is prohibited from giving any competitor of
 Gaussian, Inc. access to this program.  By using this program,
 the user acknowledges that Gaussian, Inc. is engaged in the
 business of creating and licensing software in the field of
 computational chemistry and represents and warrants to the
 licensee that it is not a competitor of Gaussian, Inc. and that
 it will not use this program in any manner prohibited above.
 ---------------------------------------------------------------
  

 Cite this work as:
 Gaussian 16, Revision A.03,
 M. J. Frisch, G. W. Trucks, H. B. Schlegel, G. E. Scuseria, 
 M. A. Robb, J. R. Cheeseman, G. Scalmani, V. Barone, 
 G. A. Petersson, H. Nakatsuji, X. Li, M. Caricato, A. V. Marenich, 
 J. Bloino, B. G. Janesko, R. Gomperts, B. Mennucci, H. P. Hratchian, 
 J. V. Ortiz, A. F. Izmaylov, J. L. Sonnenberg, D. Williams-Young, 
 F. Ding, F. Lipparini, F. Egidi, J. Goings, B. Peng, A. Petrone, 
 T. Henderson, D. Ranasinghe, V. G. Zakrzewski, J. Gao, N. Rega, 
 G. Zheng, W. Liang, M. Hada, M. Ehara, K. Toyota, R. Fukuda, 
 J. Hasegawa, M. Ishida, T. Nakajima, Y. Honda, O. Kitao, H. Nakai, 
 T. Vreven, K. Throssell, J. A. Montgomery, Jr., J. E. Peralta, 
 F. Ogliaro, M. J. Bearpark, J. J. Heyd, E. N. Brothers, K. N. Kudin, 
 V. N. Staroverov, T. A. Keith, R. Kobayashi, J. Normand, 
 K. Raghavachari, A. P. Rendell, J. C. Burant, S. S. Iyengar, 
 J. Tomasi, M. Cossi, J. M. Millam, M. Klene, C. Adamo, R. Cammi, 
 J. W. Ochterski, R. L. Martin, K. Morokuma, O. Farkas, 
 J. B. Foresman, and D. J. Fox, Gaussian, Inc., Wallingford CT, 2016.
 
 ******************************************
 Gaussian 16:  ES64L-G16RevA.03 25-Dec-2016
                15-May-2023 
 ******************************************
 %chk=SdC1CdCCdCCdCC2dCCdCC12S.chk
 %NProcShared=20
 Will use up to   20 processors via shared memory.
 -----------------------------
 # opt freq b3lyp/6-31g(2df,p)
 -----------------------------
 1/18=20,19=15,26=3,38=1/1,3;
 2/9=110,12=2,17=6,18=5,40=1/2;
 3/5=1,6=6,7=104,11=2,25=1,30=1,71=1,74=-5/1,2,3;
 4//1;
 5/5=2,38=5/2;
 6/7=2,8=2,9=2,10=2,28=1/1;
 7//1,2,3,16;
 1/18=20,19=15,26=3/3(2);
 2/9=110/2;
 99//99;
 2/9=110/2;
 3/5=1,6=6,7=104,11=2,25=1,30=1,71=1,74=-5/1,2,3;
 4/5=5,16=3,69=1/1;
 5/5=2,38=5/2;
 7//1,2,3,16;
 1/18=20,19=15,26=3/3(-5);
 2/9=110/2;
 6/7=2,8=2,9=2,10=2,19=2,28=1/1;
 99/9=1/99;
 -------------------
 Title Card Required
 -------------------
 Symbolic Z-matrix:
 Charge =  0 Multiplicity = 1
 S                     5.07026  -1.89475  -2.31408 
 C                     6.02896  -0.66644  -3.54644 
 C                     4.6616    0.12697  -2.44732 
 C                     4.96711   1.00279  -1.44657 
 C                     5.61375   1.65338  -2.5159 
 C                     6.89963   1.41952  -2.38555 
 C                     7.48183   1.81726  -3.54242 
 C                     8.76993   1.56447  -3.37189 
 C                     8.95126   1.14454  -4.61121 
 C                     9.14932   2.10388  -5.57645 
 C                     9.51069   1.3277   -6.65151 
 C                     9.04423   0.07783  -6.15734 
 C                     7.92747  -0.30752  -4.64589 
 S                     9.27042  -2.03775  -4.95588 
 H                     3.4895    0.44464  -2.61329 
 H                     5.51206   0.56843  -0.56654 
 H                     5.1563    1.46997  -3.63058 
 H                     7.35786   0.68304  -1.69554 
 H                     6.91011   1.63122  -4.55817 
 H                     9.32226   0.90049  -2.70642 
 H                     8.53764   2.93972  -5.92233 
 H                     10.12905   1.88653  -7.44893 
 H                     10.25683  -0.10741  -6.02932 
 H                     10.52485  -1.76836  -5.84322 
 
 Add virtual bond connecting atoms H24        and H23        Dist= 3.20D+00.

 GradGradGradGradGradGradGradGradGradGradGradGradGradGradGradGradGradGrad
 Berny optimization.
 Initialization pass.
                           ----------------------------
                           !    Initial Parameters    !
                           ! (Angstroms and Degrees)  !
 --------------------------                            --------------------------
 ! Name  Definition              Value          Derivative Info.                !
 --------------------------------------------------------------------------------
 ! R1    R(1,2)                  1.9866         estimate D2E/DX2                !
 ! R2    R(1,3)                  2.0669         estimate D2E/DX2                !
 ! R3    R(3,4)                  1.3645         estimate D2E/DX2                !
 ! R4    R(3,5)                  1.8003         estimate D2E/DX2                !
 ! R5    R(3,15)                 1.2257         estimate D2E/DX2                !
 ! R6    R(4,5)                  1.4089         estimate D2E/DX2                !
 ! R7    R(4,16)                 1.1225         estimate D2E/DX2                !
 ! R8    R(5,6)                  1.3135         estimate D2E/DX2                !
 ! R9    R(5,17)                 1.2188         estimate D2E/DX2                !
 ! R10   R(6,7)                  1.3548         estimate D2E/DX2                !
 ! R11   R(6,18)                 1.1084         estimate D2E/DX2                !
 ! R12   R(7,8)                  1.3237         estimate D2E/DX2                !
 ! R13   R(7,19)                 1.1803         estimate D2E/DX2                !
 ! R14   R(8,9)                  1.321          estimate D2E/DX2                !
 ! R15   R(8,20)                 1.0903         estimate D2E/DX2                !
 ! R16   R(9,10)                 1.3752         estimate D2E/DX2                !
 ! R17   R(9,13)                 1.777          estimate D2E/DX2                !
 ! R18   R(10,11)                1.3743         estimate D2E/DX2                !
 ! R19   R(10,21)                1.092          estimate D2E/DX2                !
 ! R20   R(11,12)                1.4227         estimate D2E/DX2                !
 ! R21   R(11,22)                1.1535         estimate D2E/DX2                !
 ! R22   R(12,23)                1.2333         estimate D2E/DX2                !
 ! R23   R(14,24)                1.56           estimate D2E/DX2                !
 ! R24   R(23,24)                1.6927         estimate D2E/DX2                !
 ! A1    A(2,1,3)               56.6772         estimate D2E/DX2                !
 ! A2    A(1,3,4)              122.4305         estimate D2E/DX2                !
 ! A3    A(1,3,5)              136.6521         estimate D2E/DX2                !
 ! A4    A(1,3,15)             116.8281         estimate D2E/DX2                !
 ! A5    A(4,3,15)              98.457          estimate D2E/DX2                !
 ! A6    A(5,3,15)             106.3111         estimate D2E/DX2                !
 ! A7    A(3,4,16)             115.8044         estimate D2E/DX2                !
 ! A8    A(5,4,16)             123.4288         estimate D2E/DX2                !
 ! A9    A(3,5,6)              111.2864         estimate D2E/DX2                !
 ! A10   A(3,5,17)              73.0669         estimate D2E/DX2                !
 ! A11   A(4,5,6)              106.9657         estimate D2E/DX2                !
 ! A12   A(4,5,17)             116.8987         estimate D2E/DX2                !
 ! A13   A(6,5,17)             115.5582         estimate D2E/DX2                !
 ! A14   A(5,6,7)              106.4807         estimate D2E/DX2                !
 ! A15   A(5,6,18)             125.7914         estimate D2E/DX2                !
 ! A16   A(7,6,18)             123.2985         estimate D2E/DX2                !
 ! A17   A(6,7,8)              104.6018         estimate D2E/DX2                !
 ! A18   A(6,7,19)             118.712          estimate D2E/DX2                !
 ! A19   A(8,7,19)             123.5113         estimate D2E/DX2                !
 ! A20   A(7,8,9)               94.2104         estimate D2E/DX2                !
 ! A21   A(7,8,20)             133.4626         estimate D2E/DX2                !
 ! A22   A(9,8,20)             108.0276         estimate D2E/DX2                !
 ! A23   A(8,9,10)             117.1603         estimate D2E/DX2                !
 ! A24   A(8,9,13)             101.4771         estimate D2E/DX2                !
 ! A25   A(10,9,13)            129.7392         estimate D2E/DX2                !
 ! A26   A(9,10,11)            101.1239         estimate D2E/DX2                !
 ! A27   A(9,10,21)            132.5009         estimate D2E/DX2                !
 ! A28   A(11,10,21)           109.3787         estimate D2E/DX2                !
 ! A29   A(10,11,12)            97.9463         estimate D2E/DX2                !
 ! A30   A(10,11,22)           114.0865         estimate D2E/DX2                !
 ! A31   A(12,11,22)           147.3017         estimate D2E/DX2                !
 ! A32   A(11,12,23)            81.1204         estimate D2E/DX2                !
 ! A33   A(12,23,24)           108.3287         estimate D2E/DX2                !
 ! A34   A(14,24,23)            96.0076         estimate D2E/DX2                !
 ! D1    D(2,1,3,4)           -110.2981         estimate D2E/DX2                !
 ! D2    D(2,1,3,5)            -45.2802         estimate D2E/DX2                !
 ! D3    D(2,1,3,15)           128.5977         estimate D2E/DX2                !
 ! D4    D(1,3,4,16)             3.5192         estimate D2E/DX2                !
 ! D5    D(15,3,4,16)          132.9431         estimate D2E/DX2                !
 ! D6    D(1,3,5,6)             -3.9028         estimate D2E/DX2                !
 ! D7    D(1,3,5,17)           107.5281         estimate D2E/DX2                !
 ! D8    D(15,3,5,6)          -178.2121         estimate D2E/DX2                !
 ! D9    D(15,3,5,17)          -66.7811         estimate D2E/DX2                !
 ! D10   D(16,4,5,6)            11.3205         estimate D2E/DX2                !
 ! D11   D(16,4,5,17)          142.6619         estimate D2E/DX2                !
 ! D12   D(3,5,6,7)            117.0057         estimate D2E/DX2                !
 ! D13   D(3,5,6,18)           -39.7921         estimate D2E/DX2                !
 ! D14   D(4,5,6,7)            168.3046         estimate D2E/DX2                !
 ! D15   D(4,5,6,18)            11.5068         estimate D2E/DX2                !
 ! D16   D(17,5,6,7)            36.2222         estimate D2E/DX2                !
 ! D17   D(17,5,6,18)         -120.5756         estimate D2E/DX2                !
 ! D18   D(5,6,7,8)           -179.919          estimate D2E/DX2                !
 ! D19   D(5,6,7,19)           -37.4324         estimate D2E/DX2                !
 ! D20   D(18,6,7,8)           -22.3982         estimate D2E/DX2                !
 ! D21   D(18,6,7,19)          120.0883         estimate D2E/DX2                !
 ! D22   D(6,7,8,9)            140.8324         estimate D2E/DX2                !
 ! D23   D(6,7,8,20)            21.0108         estimate D2E/DX2                !
 ! D24   D(19,7,8,9)             0.6652         estimate D2E/DX2                !
 ! D25   D(19,7,8,20)         -119.1564         estimate D2E/DX2                !
 ! D26   D(7,8,9,10)            82.4226         estimate D2E/DX2                !
 ! D27   D(7,8,9,13)           -64.4389         estimate D2E/DX2                !
 ! D28   D(20,8,9,10)         -139.0467         estimate D2E/DX2                !
 ! D29   D(20,8,9,13)           74.0918         estimate D2E/DX2                !
 ! D30   D(8,9,10,11)          170.6439         estimate D2E/DX2                !
 ! D31   D(8,9,10,21)          -59.6497         estimate D2E/DX2                !
 ! D32   D(13,9,10,11)         -53.5186         estimate D2E/DX2                !
 ! D33   D(13,9,10,21)          76.1877         estimate D2E/DX2                !
 ! D34   D(9,10,11,12)          16.751          estimate D2E/DX2                !
 ! D35   D(9,10,11,22)        -156.5256         estimate D2E/DX2                !
 ! D36   D(21,10,11,12)       -126.2885         estimate D2E/DX2                !
 ! D37   D(21,10,11,22)         60.435          estimate D2E/DX2                !
 ! D38   D(10,11,12,23)       -106.8406         estimate D2E/DX2                !
 ! D39   D(22,11,12,23)         61.748          estimate D2E/DX2                !
 ! D40   D(11,12,23,24)       -162.994          estimate D2E/DX2                !
 ! D41   D(12,23,24,14)        -38.5269         estimate D2E/DX2                !
 --------------------------------------------------------------------------------
 Trust Radius=3.00D-01 FncErr=1.00D-07 GrdErr=1.00D-06 EigMax=2.50D+02 EigMin=1.00D-04
 Number of steps in this run=    109 maximum allowed number of steps=    144.
 GradGradGradGradGradGradGradGradGradGradGradGradGradGradGradGradGradGrad

                          Input orientation:                          
 ---------------------------------------------------------------------
 Center     Atomic      Atomic             Coordinates (Angstroms)
 Number     Number       Type             X           Y           Z
 ---------------------------------------------------------------------
      1         16           0        5.070260   -1.894750   -2.314080
      2          6           0        6.028960   -0.666440   -3.546440
      3          6           0        4.661600    0.126970   -2.447320
      4          6           0        4.967110    1.002790   -1.446570
      5          6           0        5.613750    1.653380   -2.515900
      6          6           0        6.899630    1.419520   -2.385550
      7          6           0        7.481830    1.817260   -3.542420
      8          6           0        8.769930    1.564470   -3.371890
      9          6           0        8.951260    1.144540   -4.611210
     10          6           0        9.149320    2.103880   -5.576450
     11          6           0        9.510690    1.327700   -6.651510
     12          6           0        9.044230    0.077830   -6.157340
     13          6           0        7.927470   -0.307520   -4.645890
     14         16           0        9.270420   -2.037750   -4.955880
     15          1           0        3.489500    0.444640   -2.613290
     16          1           0        5.512060    0.568430   -0.566540
     17          1           0        5.156300    1.469970   -3.630580
     18          1           0        7.357860    0.683040   -1.695540
     19          1           0        6.910110    1.631220   -4.558170
     20          1           0        9.322260    0.900490   -2.706420
     21          1           0        8.537640    2.939720   -5.922330
     22          1           0       10.129050    1.886530   -7.448930
     23          1           0       10.256830   -0.107410   -6.029320
     24          1           0       10.524850   -1.768360   -5.843220
 ---------------------------------------------------------------------
                    Distance matrix (angstroms):
                    1          2          3          4          5
     1  S    0.000000
     2  C    1.986596   0.000000
     3  C    2.066908   1.925419   0.000000
     4  C    3.026376   2.885014   1.364514   0.000000
     5  C    3.595183   2.572154   1.800339   1.408857   0.000000
     6  C    3.786303   2.541055   2.585204   2.188602   1.313457
     7  C    4.593855   2.877432   3.465548   3.373391   2.137831
     8  C    5.174236   3.538410   4.449675   4.299277   3.271406
     9  C    5.438405   3.599058   4.911115   5.090038   3.973439
    10  C    6.578057   4.640287   5.817152   5.979899   4.697890
    11  C    6.993919   5.073509   6.529214   6.916725   5.691703
    12  C    5.869766   4.057412   5.742309   6.298398   5.245058
    13  C    4.015008   2.223051   3.960858   4.551515   3.706115
    14  S    4.963960   3.791316   5.676276   6.330767   5.740138
    15  H    2.839203   2.924744   1.225675   1.963695   2.446012
    16  H    3.052268   3.266786   2.110806   1.122538   2.233263
    17  H    3.614127   2.309299   1.857009   2.241417   1.218774
    18  H    3.501529   2.648188   2.853805   2.424853   2.157886
    19  H    4.566558   2.660689   3.431363   3.721858   2.419072
    20  H    5.103607   3.742556   4.731513   4.534867   3.788956
    21  H    6.958038   4.994269   5.917005   6.044238   4.669857
    22  H    8.139786   6.209495   7.616112   7.965861   6.691568
    23  H    6.625564   4.934784   6.647726   7.086274   6.082984
    24  H    6.497950   5.167442   7.035774   7.609092   6.848231
                    6          7          8          9         10
     6  C    0.000000
     7  C    1.354807   0.000000
     8  C    2.119410   1.323701   0.000000
     9  C    3.039467   1.937547   1.321036   0.000000
    10  C    3.963748   2.645742   2.301083   1.375227   0.000000
    11  C    5.002447   3.744647   3.370563   2.123519   1.374335
    12  C    4.541568   3.507780   3.169238   1.880700   2.110298
    13  C    3.024609   2.435350   2.416022   1.777028   2.858970
    14  S    4.917312   4.478619   3.966800   3.216773   4.189615
    15  H    3.554046   4.322738   5.450911   5.857676   6.600527
    16  H    2.441004   3.780930   4.413140   5.340352   6.378594
    17  H    2.142859   2.352971   3.624110   3.933098   4.486921
    18  H    1.108373   2.170896   2.362416   3.354555   4.504395
    19  H    2.182935   1.180349   2.206954   2.099039   2.504868
    20  H    2.498297   2.219582   1.090316   1.955870   3.116910
    21  H    4.183646   2.835247   2.906891   2.261148   1.091977
    22  H    6.023709   4.719470   4.309662   3.160758   2.124451
    23  H    5.184532   4.194002   3.473901   2.298462   2.514254
    24  H    5.938037   5.235487   4.504994   3.532566   4.117948
                   11         12         13         14         15
    11  C    0.000000
    12  C    1.422661   0.000000
    13  C    3.033652   1.918366   0.000000
    14  S    3.776128   2.443429   2.212081   0.000000
    15  H    7.303543   6.599232   4.938905   6.713347   0.000000
    16  H    7.320683   6.631286   4.821057   6.339065   2.880149
    17  H    5.301601   4.841340   3.445244   5.566552   2.205539
    18  H    5.441682   4.808095   3.163895   4.657295   3.982877
    19  H    3.352195   3.086233   2.191216   4.380705   4.109879
    20  H    3.972625   3.558500   2.676989   3.700812   5.851287
    21  H    2.019192   2.915867   3.542058   5.123105   6.531377
    22  H    1.153490   2.473143   4.185432   4.727845   8.339430
    23  H    1.733028   1.233330   2.716586   2.418985   7.600709
    24  H    3.356701   2.387326   3.211547   1.559980   8.051457
                   16         17         18         19         20
    16  H    0.000000
    17  H    3.213671   0.000000
    18  H    2.166738   3.034881   0.000000
    19  H    4.360869   1.990546   3.048635   0.000000
    20  H    4.382576   4.305067   2.219917   3.127525   0.000000
    21  H    6.592544   4.341168   4.934596   2.494385   3.887951
    22  H    8.391739   6.283435   6.498414   4.333965   4.910660
    23  H    7.267157   5.852990   5.273565   4.048166   3.595963
    24  H    7.644083   6.648600   5.765625   5.125899   4.290512
                   21         22         23         24
    21  H    0.000000
    22  H    2.443829   0.000000
    23  H    3.500295   2.451003   0.000000
    24  H    5.110898   4.011631   1.692697   0.000000
 Stoichiometry    C12H10S2
 Framework group  C1[X(C12H10S2)]
 Deg. of freedom    66
 Full point group                 C1      NOp   1
 Largest Abelian subgroup         C1      NOp   1
 Largest concise Abelian subgroup C1      NOp   1
                         Standard orientation:                         
 ---------------------------------------------------------------------
 Center     Atomic      Atomic             Coordinates (Angstroms)
 Number     Number       Type             X           Y           Z
 ---------------------------------------------------------------------
      1         16           0        2.953025    1.720581   -0.170173
      2          6           0        1.311642    0.678455   -0.578089
      3          6           0        2.972610   -0.293905   -0.632309
      4          6           0        3.270005   -1.253614    0.290952
      5          6           0        2.032727   -1.754800   -0.159419
      6          6           0        1.144725   -1.471554    0.765996
      7          6           0       -0.070837   -1.715650    0.219801
      8          6           0       -0.933432   -1.417716    1.178629
      9          6           0       -1.804468   -0.861213    0.355990
     10          6           0       -2.662364   -1.702555   -0.312895
     11          6           0       -3.532327   -0.800445   -0.876952
     12          6           0       -2.730921    0.365478   -0.727499
     13          6           0       -0.881613    0.533093   -0.245737
     14         16           0       -1.931457    2.351682    0.449870
     15          1           0        3.741536   -0.650920   -1.517505
     16          1           0        3.444838   -0.887336    1.337549
     17          1           0        1.708588   -1.478444   -1.301335
     18          1           0        1.299598   -0.789597    1.625903
     19          1           0       -0.244480   -1.452833   -0.917739
     20          1           0       -0.874299   -0.800451    2.075443
     21          1           0       -2.493844   -2.527099   -1.008698
     22          1           0       -4.568014   -1.240510   -1.130396
     23          1           0       -3.568848    0.596994    0.147361
     24          1           0       -3.484654    2.240536    0.543471
 ---------------------------------------------------------------------
 Rotational constants (GHZ):           0.8823747           0.4003007           0.3006191
 Standard basis: 6-31G(2df,p) (6D, 7F)
 There are   492 symmetry adapted cartesian basis functions of A   symmetry.
 There are   450 symmetry adapted basis functions of A   symmetry.
   450 basis functions,   734 primitive gaussians,   492 cartesian basis functions
    57 alpha electrons       57 beta electrons
       nuclear repulsion energy       995.6350002634 Hartrees.
 NAtoms=   24 NActive=   24 NUniq=   24 SFac= 1.00D+00 NAtFMM=   60 NAOKFM=F Big=F
 Integral buffers will be    131072 words long.
 Raffenetti 2 integral format.
 Two-electron integral symmetry is turned on.
 One-electron integrals computed using PRISM.
 PrsmSu:  requested number of processors reduced to:  12 ShMem   1 Linda.
 NBasis=   450 RedAO= T EigKep=  3.31D-04  NBF=   450
 NBsUse=   450 1.00D-06 EigRej= -1.00D+00 NBFU=   450
 ExpMin= 1.17D-01 ExpMax= 2.19D+04 ExpMxC= 3.30D+03 IAcc=3 IRadAn=         5 AccDes= 0.00D+00
 Harris functional with IExCor=  402 and IRadAn=       5 diagonalized for initial guess.
 HarFok:  IExCor=  402 AccDes= 0.00D+00 IRadAn=         5 IDoV= 1 UseB2=F ITyADJ=14
 ICtDFT=  3500011 ScaDFX=  1.000000  1.000000  1.000000  1.000000
 FoFCou: FMM=F IPFlag=           0 FMFlag=      100000 FMFlg1=           0
         NFxFlg=           0 DoJE=T BraDBF=F KetDBF=T FulRan=T
         wScrn=  0.000000 ICntrl=       500 IOpCl=  0 I1Cent=   200000004 NGrid=           0
         NMat0=    1 NMatS0=      1 NMatT0=    0 NMatD0=    1 NMtDS0=    0 NMtDT0=    0
 Petite list used in FoFCou.
 Requested convergence on RMS density matrix=1.00D-08 within 128 cycles.
 Requested convergence on MAX density matrix=1.00D-06.
 Requested convergence on             energy=1.00D-06.
 No special actions if energy rises.
 Integral accuracy reduced to 1.0D-05 until final iterations.
 EnCoef did     5 forward-backward iterations
 EnCoef did     5 forward-backward iterations
 EnCoef did     5 forward-backward iterations
 EnCoef did     3 forward-backward iterations
 EnCoef did     3 forward-backward iterations
 EnCoef did     2 forward-backward iterations
 Initial convergence to 1.0D-05 achieved.  Increase integral accuracy.
 SCF Done:  E(RB3LYP) =  -1258.53914245     A.U. after   31 cycles
            NFock= 31  Conv=0.80D-08     -V/T= 2.0039

 **********************************************************************

            Population analysis using the SCF density.

 **********************************************************************

 Orbital symmetries:
       Occupied  (A) (A) (A) (A) (A) (A) (A) (A) (A) (A) (A) (A)
                 (A) (A) (A) (A) (A) (A) (A) (A) (A) (A) (A) (A)
                 (A) (A) (A) (A) (A) (A) (A) (A) (A) (A) (A) (A)
                 (A) (A) (A) (A) (A) (A) (A) (A) (A) (A) (A) (A)
                 (A) (A) (A) (A) (A) (A) (A) (A) (A)
       Virtual   (A) (A) (A) (A) (A) (A) (A) (A) (A) (A) (A) (A)
                 (A) (A) (A) (A) (A) (A) (A) (A) (A) (A) (A) (A)
                 (A) (A) (A) (A) (A) (A) (A) (A) (A) (A) (A) (A)
                 (A) (A) (A) (A) (A) (A) (A) (A) (A) (A) (A) (A)
                 (A) (A) (A) (A) (A) (A) (A) (A) (A) (A) (A) (A)
                 (A) (A) (A) (A) (A) (A) (A) (A) (A) (A) (A) (A)
                 (A) (A) (A) (A) (A) (A) (A) (A) (A) (A) (A) (A)
                 (A) (A) (A) (A) (A) (A) (A) (A) (A) (A) (A) (A)
                 (A) (A) (A) (A) (A) (A) (A) (A) (A) (A) (A) (A)
                 (A) (A) (A) (A) (A) (A) (A) (A) (A) (A) (A) (A)
                 (A) (A) (A) (A) (A) (A) (A) (A) (A) (A) (A) (A)
                 (A) (A) (A) (A) (A) (A) (A) (A) (A) (A) (A) (A)
                 (A) (A) (A) (A) (A) (A) (A) (A) (A) (A) (A) (A)
                 (A) (A) (A) (A) (A) (A) (A) (A) (A) (A) (A) (A)
                 (A) (A) (A) (A) (A) (A) (A) (A) (A) (A) (A) (A)
                 (A) (A) (A) (A) (A) (A) (A) (A) (A) (A) (A) (A)
                 (A) (A) (A) (A) (A) (A) (A) (A) (A) (A) (A) (A)
                 (A) (A) (A) (A) (A) (A) (A) (A) (A) (A) (A) (A)
                 (A) (A) (A) (A) (A) (A) (A) (A) (A) (A) (A) (A)
                 (A) (A) (A) (A) (A) (A) (A) (A) (A) (A) (A) (A)
                 (A) (A) (A) (A) (A) (A) (A) (A) (A) (A) (A) (A)
                 (A) (A) (A) (A) (A) (A) (A) (A) (A) (A) (A) (A)
                 (A) (A) (A) (A) (A) (A) (A) (A) (A) (A) (A) (A)
                 (A) (A) (A) (A) (A) (A) (A) (A) (A) (A) (A) (A)
                 (A) (A) (A) (A) (A) (A) (A) (A) (A) (A) (A) (A)
                 (A) (A) (A) (A) (A) (A) (A) (A) (A) (A) (A) (A)
                 (A) (A) (A) (A) (A) (A) (A) (A) (A) (A) (A) (A)
                 (A) (A) (A) (A) (A) (A) (A) (A) (A) (A) (A) (A)
                 (A) (A) (A) (A) (A) (A) (A) (A) (A) (A) (A) (A)
                 (A) (A) (A) (A) (A) (A) (A) (A) (A) (A) (A) (A)
                 (A) (A) (A) (A) (A) (A) (A) (A) (A) (A) (A) (A)
                 (A) (A) (A) (A) (A) (A) (A) (A) (A) (A) (A) (A)
                 (A) (A) (A) (A) (A) (A) (A) (A) (A)
 The electronic state is 1-A.
 Alpha  occ. eigenvalues --  -88.89696 -88.87964 -10.31331 -10.27918 -10.27092
 Alpha  occ. eigenvalues --  -10.26972 -10.24560 -10.24416 -10.22843 -10.22796
 Alpha  occ. eigenvalues --  -10.19494 -10.18498 -10.18111 -10.17955  -7.95689
 Alpha  occ. eigenvalues --   -7.94109  -5.91962  -5.91810  -5.91489  -5.90558
 Alpha  occ. eigenvalues --   -5.90335  -5.89559  -0.94513  -0.91167  -0.87210
 Alpha  occ. eigenvalues --   -0.78121  -0.73247  -0.72719  -0.67013  -0.65040
 Alpha  occ. eigenvalues --   -0.62186  -0.59178  -0.58756  -0.56303  -0.53644
 Alpha  occ. eigenvalues --   -0.50732  -0.48174  -0.48116  -0.45987  -0.44784
 Alpha  occ. eigenvalues --   -0.42734  -0.41483  -0.40661  -0.39949  -0.38889
 Alpha  occ. eigenvalues --   -0.36020  -0.34493  -0.32188  -0.31741  -0.29035
 Alpha  occ. eigenvalues --   -0.27280  -0.26472  -0.25238  -0.23176  -0.20820
 Alpha  occ. eigenvalues --   -0.19704  -0.16872
 Alpha virt. eigenvalues --   -0.13486  -0.09716  -0.09289  -0.07659  -0.04954
 Alpha virt. eigenvalues --   -0.02551  -0.01872  -0.00712   0.00293   0.01493
 Alpha virt. eigenvalues --    0.02599   0.05992   0.08477   0.10646   0.10891
 Alpha virt. eigenvalues --    0.11867   0.12453   0.12851   0.13960   0.14889
 Alpha virt. eigenvalues --    0.15813   0.16911   0.21272   0.24415   0.25197
 Alpha virt. eigenvalues --    0.26603   0.27578   0.27813   0.29616   0.31092
 Alpha virt. eigenvalues --    0.31448   0.32444   0.33578   0.34425   0.35954
 Alpha virt. eigenvalues --    0.36719   0.37437   0.37665   0.38166   0.38438
 Alpha virt. eigenvalues --    0.39991   0.40921   0.41340   0.41895   0.42165
 Alpha virt. eigenvalues --    0.43919   0.44875   0.45932   0.48134   0.48548
 Alpha virt. eigenvalues --    0.50603   0.52004   0.53012   0.53134   0.53531
 Alpha virt. eigenvalues --    0.54443   0.55452   0.56023   0.56959   0.57326
 Alpha virt. eigenvalues --    0.58595   0.58900   0.60411   0.61759   0.62482
 Alpha virt. eigenvalues --    0.63245   0.64600   0.65252   0.65959   0.66883
 Alpha virt. eigenvalues --    0.67105   0.67896   0.68713   0.69260   0.69975
 Alpha virt. eigenvalues --    0.71392   0.72534   0.72826   0.73687   0.74272
 Alpha virt. eigenvalues --    0.75103   0.76385   0.76929   0.77982   0.78990
 Alpha virt. eigenvalues --    0.80288   0.80605   0.81465   0.82048   0.82645
 Alpha virt. eigenvalues --    0.84007   0.85533   0.85819   0.86189   0.87199
 Alpha virt. eigenvalues --    0.88149   0.89905   0.91237   0.93240   0.93922
 Alpha virt. eigenvalues --    0.94556   0.96788   0.99661   0.99856   1.02539
 Alpha virt. eigenvalues --    1.04264   1.05350   1.05625   1.09797   1.11814
 Alpha virt. eigenvalues --    1.14029   1.15417   1.16414   1.18626   1.19275
 Alpha virt. eigenvalues --    1.21367   1.22602   1.23609   1.25238   1.26967
 Alpha virt. eigenvalues --    1.28852   1.29664   1.32113   1.34129   1.36233
 Alpha virt. eigenvalues --    1.37047   1.38277   1.38920   1.39812   1.42194
 Alpha virt. eigenvalues --    1.42811   1.43526   1.44475   1.45112   1.46123
 Alpha virt. eigenvalues --    1.47118   1.49557   1.49905   1.50659   1.51807
 Alpha virt. eigenvalues --    1.53366   1.54707   1.55705   1.56613   1.58055
 Alpha virt. eigenvalues --    1.58901   1.60710   1.61548   1.62390   1.63179
 Alpha virt. eigenvalues --    1.65682   1.66574   1.67847   1.68686   1.69370
 Alpha virt. eigenvalues --    1.70958   1.71758   1.71844   1.72726   1.73144
 Alpha virt. eigenvalues --    1.75343   1.76641   1.77330   1.78659   1.79810
 Alpha virt. eigenvalues --    1.81376   1.81916   1.83445   1.84142   1.88005
 Alpha virt. eigenvalues --    1.89090   1.90248   1.91831   1.94724   1.96185
 Alpha virt. eigenvalues --    1.96991   1.99368   2.01106   2.02941   2.07113
 Alpha virt. eigenvalues --    2.07468   2.08150   2.12041   2.14050   2.15866
 Alpha virt. eigenvalues --    2.17944   2.20660   2.22347   2.23717   2.24473
 Alpha virt. eigenvalues --    2.27371   2.27903   2.30314   2.32011   2.33555
 Alpha virt. eigenvalues --    2.34294   2.34927   2.38823   2.40182   2.41769
 Alpha virt. eigenvalues --    2.42104   2.44850   2.46135   2.47831   2.49736
 Alpha virt. eigenvalues --    2.50967   2.51450   2.52449   2.55333   2.56256
 Alpha virt. eigenvalues --    2.57416   2.58323   2.59830   2.61441   2.63764
 Alpha virt. eigenvalues --    2.67436   2.69570   2.70279   2.71072   2.74356
 Alpha virt. eigenvalues --    2.74824   2.75385   2.77601   2.78674   2.78856
 Alpha virt. eigenvalues --    2.79908   2.82244   2.84587   2.86725   2.88189
 Alpha virt. eigenvalues --    2.89888   2.91019   2.93516   2.94962   2.95424
 Alpha virt. eigenvalues --    2.97697   2.98532   3.01052   3.01297   3.02153
 Alpha virt. eigenvalues --    3.04815   3.05765   3.06719   3.07835   3.08138
 Alpha virt. eigenvalues --    3.09281   3.11313   3.12873   3.14110   3.14459
 Alpha virt. eigenvalues --    3.16903   3.18364   3.19979   3.21462   3.22775
 Alpha virt. eigenvalues --    3.23635   3.25195   3.25819   3.26866   3.27615
 Alpha virt. eigenvalues --    3.29746   3.31893   3.32915   3.33457   3.34597
 Alpha virt. eigenvalues --    3.35956   3.38223   3.41058   3.41824   3.42783
 Alpha virt. eigenvalues --    3.43610   3.46226   3.47183   3.49806   3.51627
 Alpha virt. eigenvalues --    3.52942   3.55268   3.58005   3.59915   3.61551
 Alpha virt. eigenvalues --    3.63519   3.63872   3.66929   3.69488   3.70167
 Alpha virt. eigenvalues --    3.73326   3.75470   3.77659   3.80053   3.81229
 Alpha virt. eigenvalues --    3.81651   3.82967   3.85750   3.89226   3.90855
 Alpha virt. eigenvalues --    3.91766   3.95508   3.99081   4.00783   4.05208
 Alpha virt. eigenvalues --    4.06468   4.09073   4.12549   4.16176   4.20003
 Alpha virt. eigenvalues --    4.22784   4.23487   4.25641   4.28763   4.32810
 Alpha virt. eigenvalues --    4.33515   4.35713   4.38244   4.41271   4.43092
 Alpha virt. eigenvalues --    4.45801   4.46262   4.49401   4.50218   4.51021
 Alpha virt. eigenvalues --    4.52252   4.53873   4.55410   4.57261   4.57489
 Alpha virt. eigenvalues --    4.60727   4.61435   4.64830   4.65362   4.66412
 Alpha virt. eigenvalues --    4.66733   4.68454   4.69279   4.70859   4.71842
 Alpha virt. eigenvalues --    4.73219   4.74287   4.75731   4.78590   4.78860
 Alpha virt. eigenvalues --    4.81772   4.82504   4.83254   4.87352   4.87562
 Alpha virt. eigenvalues --    4.89549   4.91393   4.94004   4.96925   4.98413
 Alpha virt. eigenvalues --    5.01676   5.01864   5.04118   5.05676   5.07016
 Alpha virt. eigenvalues --    5.07835   5.08675   5.10603   5.13892   5.18454
 Alpha virt. eigenvalues --    5.20578   5.22833   5.25749   5.26488   5.32088
 Alpha virt. eigenvalues --    5.33388   5.38111   5.41167   5.43387   5.50114
 Alpha virt. eigenvalues --    5.51110   5.55513   5.58632   5.67448   5.73545
 Alpha virt. eigenvalues --    5.76832   5.83270   5.94962   6.24096   6.44995
 Alpha virt. eigenvalues --    6.60927  10.41866  10.54587  10.83485  11.02725
 Alpha virt. eigenvalues --   11.20496  11.37126  11.71293  11.91663  12.14421
 Alpha virt. eigenvalues --   12.16941  12.31582  12.43857
          Condensed to atoms (all electrons):
               1          2          3          4          5          6
     1  S   15.843967   0.142267   0.163231  -0.021737   0.001752   0.005549
     2  C    0.142267   5.893670   0.170266  -0.075908  -0.028665   0.025666
     3  C    0.163231   0.170266   5.160594   0.429120  -0.083393  -0.049589
     4  C   -0.021737  -0.075908   0.429120   5.326437   0.380305  -0.060403
     5  C    0.001752  -0.028665  -0.083393   0.380305   5.102616   0.502046
     6  C    0.005549   0.025666  -0.049589  -0.060403   0.502046   4.837113
     7  C   -0.000124  -0.004910   0.000651  -0.001668  -0.011090   0.483043
     8  C   -0.000028   0.001743  -0.000724   0.000670  -0.000765  -0.049783
     9  C   -0.000179   0.000012   0.000518  -0.000314  -0.000036  -0.006193
    10  C   -0.000001   0.000077   0.000009   0.000001   0.000001   0.003065
    11  C    0.000001  -0.000108  -0.000000  -0.000000   0.000004  -0.000235
    12  C   -0.000041   0.002889  -0.000039  -0.000003   0.000013   0.000576
    13  C    0.004083  -0.010241   0.000374   0.000946  -0.000123  -0.006959
    14  S   -0.000013   0.002877   0.000001   0.000005  -0.000041  -0.000159
    15  H   -0.010760  -0.016355   0.330578  -0.056445  -0.004741   0.002964
    16  H    0.002078  -0.005092  -0.055798   0.381211  -0.032256  -0.010614
    17  H    0.001742  -0.017068  -0.000452  -0.026849   0.344238  -0.042902
    18  H    0.003483  -0.000239   0.000323  -0.008391  -0.055022   0.413654
    19  H   -0.000187   0.002617   0.000521   0.001532  -0.008701  -0.037181
    20  H   -0.000016  -0.000433   0.000047  -0.000012   0.001215  -0.006398
    21  H   -0.000000   0.000030  -0.000004   0.000002  -0.000016   0.000382
    22  H   -0.000000   0.000001  -0.000000   0.000000   0.000000   0.000003
    23  H    0.000003  -0.000032   0.000000   0.000000  -0.000000  -0.000002
    24  H    0.000003  -0.000013   0.000000   0.000000   0.000000   0.000001
               7          8          9         10         11         12
     1  S   -0.000124  -0.000028  -0.000179  -0.000001   0.000001  -0.000041
     2  C   -0.004910   0.001743   0.000012   0.000077  -0.000108   0.002889
     3  C    0.000651  -0.000724   0.000518   0.000009  -0.000000  -0.000039
     4  C   -0.001668   0.000670  -0.000314   0.000001  -0.000000  -0.000003
     5  C   -0.011090  -0.000765  -0.000036   0.000001   0.000004   0.000013
     6  C    0.483043  -0.049783  -0.006193   0.003065  -0.000235   0.000576
     7  C    4.944090   0.458030  -0.076827  -0.021594   0.001129   0.003969
     8  C    0.458030   5.381530   0.364097  -0.057325  -0.001471  -0.015810
     9  C   -0.076827   0.364097   4.859076   0.498282  -0.015926   0.109859
    10  C   -0.021594  -0.057325   0.498282   5.170318   0.357650  -0.064739
    11  C    0.001129  -0.001471  -0.015926   0.357650   5.178724   0.359168
    12  C    0.003969  -0.015810   0.109859  -0.064739   0.359168   5.522515
    13  C   -0.019116  -0.064681   0.138501  -0.051247   0.023599   0.014945
    14  S   -0.000428   0.006150  -0.017687   0.007550  -0.005782  -0.015837
    15  H   -0.000039  -0.000001  -0.000005  -0.000000   0.000000   0.000000
    16  H    0.000938  -0.000005  -0.000005   0.000000  -0.000000  -0.000000
    17  H   -0.011960   0.003157  -0.000477  -0.000114  -0.000000   0.000005
    18  H   -0.044485  -0.005373   0.001625   0.000045   0.000001   0.000013
    19  H    0.376035  -0.047163  -0.003939  -0.001675   0.000172   0.002478
    20  H   -0.032167   0.355065  -0.033796   0.006729  -0.000320  -0.001166
    21  H    0.011826   0.002853  -0.042949   0.348782  -0.042977   0.007905
    22  H    0.000072  -0.000365   0.006036  -0.034036   0.339151  -0.026510
    23  H   -0.000285  -0.002622  -0.056010   0.008643  -0.078516   0.309830
    24  H   -0.000012  -0.000124  -0.001713   0.000667   0.000012  -0.030927
              13         14         15         16         17         18
     1  S    0.004083  -0.000013  -0.010760   0.002078   0.001742   0.003483
     2  C   -0.010241   0.002877  -0.016355  -0.005092  -0.017068  -0.000239
     3  C    0.000374   0.000001   0.330578  -0.055798  -0.000452   0.000323
     4  C    0.000946   0.000005  -0.056445   0.381211  -0.026849  -0.008391
     5  C   -0.000123  -0.000041  -0.004741  -0.032256   0.344238  -0.055022
     6  C   -0.006959  -0.000159   0.002964  -0.010614  -0.042902   0.413654
     7  C   -0.019116  -0.000428  -0.000039   0.000938  -0.011960  -0.044485
     8  C   -0.064681   0.006150  -0.000001  -0.000005   0.003157  -0.005373
     9  C    0.138501  -0.017687  -0.000005  -0.000005  -0.000477   0.001625
    10  C   -0.051247   0.007550  -0.000000   0.000000  -0.000114   0.000045
    11  C    0.023599  -0.005782   0.000000  -0.000000  -0.000000   0.000001
    12  C    0.014945  -0.015837   0.000000  -0.000000   0.000005   0.000013
    13  C    5.892408   0.102018  -0.000003   0.000051  -0.000293   0.000075
    14  S    0.102018  15.950545  -0.000000   0.000000   0.000006   0.000057
    15  H   -0.000003  -0.000000   0.594600   0.005420   0.000391  -0.000016
    16  H    0.000051   0.000000   0.005420   0.580483   0.004444   0.000202
    17  H   -0.000293   0.000006   0.000391   0.004444   0.563857   0.004525
    18  H    0.000075   0.000057  -0.000016   0.000202   0.004525   0.545760
    19  H   -0.002266  -0.000027  -0.000069  -0.000009   0.003362   0.003551
    20  H   -0.000426   0.004306  -0.000000  -0.000026   0.000008  -0.000908
    21  H   -0.001578  -0.000099   0.000000   0.000000   0.000007   0.000004
    22  H   -0.000082  -0.000122   0.000000   0.000000   0.000000  -0.000000
    23  H   -0.008741  -0.052156  -0.000000   0.000000  -0.000001  -0.000000
    24  H    0.004457   0.248135   0.000000   0.000000  -0.000000   0.000000
              19         20         21         22         23         24
     1  S   -0.000187  -0.000016  -0.000000  -0.000000   0.000003   0.000003
     2  C    0.002617  -0.000433   0.000030   0.000001  -0.000032  -0.000013
     3  C    0.000521   0.000047  -0.000004  -0.000000   0.000000   0.000000
     4  C    0.001532  -0.000012   0.000002   0.000000   0.000000   0.000000
     5  C   -0.008701   0.001215  -0.000016   0.000000  -0.000000   0.000000
     6  C   -0.037181  -0.006398   0.000382   0.000003  -0.000002   0.000001
     7  C    0.376035  -0.032167   0.011826   0.000072  -0.000285  -0.000012
     8  C   -0.047163   0.355065   0.002853  -0.000365  -0.002622  -0.000124
     9  C   -0.003939  -0.033796  -0.042949   0.006036  -0.056010  -0.001713
    10  C   -0.001675   0.006729   0.348782  -0.034036   0.008643   0.000667
    11  C    0.000172  -0.000320  -0.042977   0.339151  -0.078516   0.000012
    12  C    0.002478  -0.001166   0.007905  -0.026510   0.309830  -0.030927
    13  C   -0.002266  -0.000426  -0.001578  -0.000082  -0.008741   0.004457
    14  S   -0.000027   0.004306  -0.000099  -0.000122  -0.052156   0.248135
    15  H   -0.000069  -0.000000   0.000000   0.000000  -0.000000   0.000000
    16  H   -0.000009  -0.000026   0.000000   0.000000   0.000000   0.000000
    17  H    0.003362   0.000008   0.000007   0.000000  -0.000001  -0.000000
    18  H    0.003551  -0.000908   0.000004  -0.000000  -0.000000   0.000000
    19  H    0.525401   0.003800  -0.000942   0.000003   0.000034  -0.000006
    20  H    0.003800   0.548436  -0.000128   0.000016  -0.000053  -0.000016
    21  H   -0.000942  -0.000128   0.592289   0.001955  -0.000530  -0.000005
    22  H    0.000003   0.000016   0.001955   0.555591   0.000538  -0.000161
    23  H    0.000034  -0.000053  -0.000530   0.000538   0.732637   0.002481
    24  H   -0.000006  -0.000016  -0.000005  -0.000161   0.002481   0.663577
 Mulliken charges:
               1
     1  S   -0.135072
     2  C   -0.083052
     3  C   -0.066236
     4  C   -0.268499
     5  C   -0.107340
     6  C   -0.003644
     7  C   -0.055076
     8  C   -0.327054
     9  C    0.278053
    10  C   -0.171087
    11  C   -0.114273
    12  C   -0.179094
    13  C   -0.015701
    14  S   -0.229299
    15  H    0.154482
    16  H    0.128977
    17  H    0.174373
    18  H    0.141116
    19  H    0.182658
    20  H    0.156242
    21  H    0.123191
    22  H    0.157909
    23  H    0.144781
    24  H    0.113644
 Sum of Mulliken charges =  -0.00000
 Mulliken charges with hydrogens summed into heavy atoms:
               1
     1  S   -0.135072
     2  C   -0.083052
     3  C    0.088246
     4  C   -0.139521
     5  C    0.067033
     6  C    0.137473
     7  C    0.127582
     8  C   -0.170812
     9  C    0.278053
    10  C   -0.047897
    11  C    0.043636
    12  C   -0.034312
    13  C   -0.015701
    14  S   -0.115655
 Electronic spatial extent (au):  <R**2>=           3569.5065
 Charge=             -0.0000 electrons
 Dipole moment (field-independent basis, Debye):
    X=             -3.0165    Y=             -3.1829    Z=             -0.8513  Tot=              4.4671
 Quadrupole moment (field-independent basis, Debye-Ang):
   XX=            -88.2969   YY=           -107.7903   ZZ=            -95.5367
   XY=              2.9444   XZ=              1.7597   YZ=              3.9793
 Traceless Quadrupole moment (field-independent basis, Debye-Ang):
   XX=              8.9111   YY=            -10.5823   ZZ=              1.6713
   XY=              2.9444   XZ=              1.7597   YZ=              3.9793
 Octapole moment (field-independent basis, Debye-Ang**2):
  XXX=            -85.1446  YYY=             -0.1018  ZZZ=              4.4547  XYY=             -4.7964
  XXY=             -0.0131  XXZ=            -13.6359  XZZ=              6.7734  YZZ=             -9.5632
  YYZ=             -9.9597  XYZ=             -5.7678
 Hexadecapole moment (field-independent basis, Debye-Ang**3):
 XXXX=          -3060.8246 YYYY=          -1474.5201 ZZZZ=           -333.7985 XXXY=             44.5196
 XXXZ=             24.4940 YYYX=             41.6939 YYYZ=             24.0763 ZZZX=              2.3191
 ZZZY=              4.6216 XXYY=           -818.2439 XXZZ=           -588.8319 YYZZ=           -301.9309
 XXYZ=             48.3716 YYXZ=             10.1963 ZZXY=              6.9372
 N-N= 9.956350002634D+02 E-N=-4.955225124370D+03  KE= 1.253651720679D+03
 PrsmSu:  requested number of processors reduced to:  13 ShMem   1 Linda.
 Calling FoFJK, ICntrl=      2127 FMM=F ISym2X=0 I1Cent= 0 IOpClX= 0 NMat=1 NMatS=1 NMatT=0.
 ***** Axes restored to original set *****
 -------------------------------------------------------------------
 Center     Atomic                   Forces (Hartrees/Bohr)
 Number     Number              X              Y              Z
 -------------------------------------------------------------------
      1       16           0.026354704    0.066587218   -0.030857631
      2        6          -0.064428452   -0.029952629    0.053799436
      3        6          -0.100677042   -0.093355168   -0.035522617
      4        6          -0.003033330    0.000360151    0.060785026
      5        6          -0.087282068   -0.007988943   -0.002307000
      6        6           0.023295015   -0.004825386    0.012185021
      7        6          -0.032929420    0.004457453   -0.002144062
      8        6           0.088711093   -0.029798787    0.034225870
      9        6           0.019714399   -0.017449388   -0.071711470
     10        6          -0.005327116    0.019103339   -0.060920525
     11        6          -0.008543858    0.058112706   -0.044918420
     12        6           0.084262221   -0.009164372    0.001297860
     13        6           0.077280958   -0.026128267   -0.075994938
     14       16           0.024879875   -0.006887913    0.005736242
     15        1           0.052233724   -0.030627366   -0.024766770
     16        1          -0.003853623    0.025484760   -0.011902716
     17        1           0.011350323    0.042405460    0.054529667
     18        1          -0.004322385    0.028860741   -0.001433662
     19        1           0.021700702    0.038743108    0.043936899
     20        1          -0.013303275    0.020929686    0.029956417
     21        1           0.015850762    0.023369808    0.026569401
     22        1          -0.029393113   -0.037546165    0.004735909
     23        1          -0.041046007   -0.019935433    0.001857095
     24        1          -0.051494087   -0.014754612    0.032864969
 -------------------------------------------------------------------
 Cartesian Forces:  Max     0.100677042 RMS     0.040670187

 GradGradGradGradGradGradGradGradGradGradGradGradGradGradGradGradGradGrad
 Berny optimization.
 FormGI is forming the generalized inverse of G from B-inverse, IUseBI=4.
 Internal  Forces:  Max     0.225187940 RMS     0.067200186
 Search for a local minimum.
 Step number   1 out of a maximum of  109
 All quantities printed in internal units (Hartrees-Bohrs-Radians)
 Mixed Optimization -- RFO/linear search
 Second derivative matrix not updated -- first step.
 ITU=  0
     Eigenvalues ---    0.00230   0.00230   0.00230   0.01571   0.01789
     Eigenvalues ---    0.02137   0.02281   0.02416   0.02428   0.02687
     Eigenvalues ---    0.03098   0.03133   0.03234   0.03328   0.04039
     Eigenvalues ---    0.04063   0.04105   0.04250   0.04272   0.05434
     Eigenvalues ---    0.05972   0.06602   0.11220   0.11282   0.11671
     Eigenvalues ---    0.12459   0.12799   0.13512   0.14478   0.14646
     Eigenvalues ---    0.14764   0.14805   0.15592   0.15773   0.16000
     Eigenvalues ---    0.16000   0.16000   0.17693   0.19230   0.20837
     Eigenvalues ---    0.21651   0.21975   0.22120   0.22273   0.22304
     Eigenvalues ---    0.22384   0.22413   0.22882   0.23344   0.25000
     Eigenvalues ---    0.25000   0.26157   0.28397   0.31308   0.32773
     Eigenvalues ---    0.34585   0.34776   0.39216   0.42062   0.44935
     Eigenvalues ---    0.49985   0.50152   0.54011   0.61018   0.61674
     Eigenvalues ---    0.63590
 RFO step:  Lambda=-5.58792641D-01 EMin= 2.30000000D-03
 Linear search not attempted -- first point.
 Maximum step size (   0.300) exceeded in Quadratic search.
    -- Step size scaled by   0.402
 Iteration  1 RMS(Cart)=  0.21093083 RMS(Int)=  0.01231177
 Iteration  2 RMS(Cart)=  0.05499964 RMS(Int)=  0.00086047
 Iteration  3 RMS(Cart)=  0.00126266 RMS(Int)=  0.00039635
 Iteration  4 RMS(Cart)=  0.00000117 RMS(Int)=  0.00039635
 Iteration  5 RMS(Cart)=  0.00000000 RMS(Int)=  0.00039635
 Variable       Old X    -DE/DX   Delta X   Delta X   Delta X     New X
                                 (Linear)    (Quad)   (Total)
    R1        3.75412  -0.08299   0.00000  -0.04670  -0.04670   3.70742
    R2        3.90589  -0.04188   0.00000  -0.02453  -0.02453   3.88136
    R3        2.57856   0.03827   0.00000   0.01572   0.01565   2.59421
    R4        3.40215   0.09419   0.00000   0.05268   0.05272   3.45486
    R5        2.31619  -0.05453   0.00000  -0.02785  -0.02785   2.28834
    R6        2.66235   0.02219   0.00000   0.00881   0.00882   2.67118
    R7        2.12129  -0.02106   0.00000  -0.00972  -0.00972   2.11157
    R8        2.48207   0.15463   0.00000   0.05206   0.05206   2.53413
    R9        2.30315  -0.06052   0.00000  -0.03072  -0.03072   2.27243
   R10        2.56021   0.12914   0.00000   0.04727   0.04727   2.60748
   R11        2.09452  -0.02186   0.00000  -0.00992  -0.00992   2.08461
   R12        2.50143   0.14993   0.00000   0.05159   0.05159   2.55302
   R13        2.23054  -0.05443   0.00000  -0.02669  -0.02669   2.20385
   R14        2.49640   0.19110   0.00000   0.06538   0.06538   2.56178
   R15        2.06040  -0.00120   0.00000  -0.00053  -0.00053   2.05987
   R16        2.59880   0.03003   0.00000   0.01141   0.01141   2.61021
   R17        3.35810  -0.02169   0.00000  -0.01235  -0.01235   3.34575
   R18        2.59712   0.01020   0.00000   0.00387   0.00387   2.60099
   R19        2.06354   0.00059   0.00000   0.00026   0.00026   2.06380
   R20        2.68844   0.05364   0.00000   0.02203   0.02203   2.71047
   R21        2.17978  -0.03722   0.00000  -0.01776  -0.01776   2.16202
   R22        2.33066  -0.05608   0.00000  -0.02882  -0.02882   2.30183
   R23        2.94794  -0.01555   0.00000  -0.00889  -0.00889   2.93904
   R24        3.19873   0.02127   0.00000   0.01423   0.01423   3.21296
    A1        0.98920  -0.11484   0.00000  -0.05711  -0.05711   0.93209
    A2        2.13682   0.00219   0.00000   0.00088   0.00088   2.13769
    A3        2.38503   0.00741   0.00000   0.00412   0.00418   2.38921
    A4        2.03904  -0.01448   0.00000  -0.00771  -0.00773   2.03130
    A5        1.71840   0.02538   0.00000   0.01555   0.01555   1.73394
    A6        1.85548   0.00688   0.00000   0.00347   0.00343   1.85891
    A7        2.02117   0.01944   0.00000   0.00945   0.00955   2.03072
    A8        2.15424  -0.00966   0.00000  -0.00601  -0.00611   2.14813
    A9        1.94231   0.06601   0.00000   0.03556   0.03551   1.97782
   A10        1.27526   0.00331   0.00000   0.00481   0.00477   1.28003
   A11        1.86690   0.04072   0.00000   0.02190   0.02182   1.88873
   A12        2.04027  -0.00119   0.00000   0.00002  -0.00009   2.04018
   A13        2.01687   0.00223   0.00000   0.00174   0.00148   2.01835
   A14        1.85844   0.09445   0.00000   0.04903   0.04897   1.90741
   A15        2.19547  -0.04125   0.00000  -0.02074  -0.02080   2.17467
   A16        2.15197  -0.04100   0.00000  -0.02053  -0.02058   2.13138
   A17        1.82565   0.09798   0.00000   0.05132   0.05107   1.87672
   A18        2.07191  -0.02892   0.00000  -0.01292  -0.01317   2.05874
   A19        2.15568  -0.02760   0.00000  -0.01235  -0.01263   2.14305
   A20        1.64428   0.17391   0.00000   0.09125   0.09119   1.73547
   A21        2.32936  -0.04819   0.00000  -0.02429  -0.02517   2.30419
   A22        1.88544  -0.04695   0.00000  -0.01902  -0.01882   1.86662
   A23        2.04483   0.08874   0.00000   0.04737   0.04732   2.09215
   A24        1.77111   0.06980   0.00000   0.03932   0.03965   1.81076
   A25        2.26438  -0.11172   0.00000  -0.05560  -0.05684   2.20754
   A26        1.76494  -0.22519   0.00000  -0.11688  -0.11662   1.64832
   A27        2.31258   0.07791   0.00000   0.03998   0.03970   2.35228
   A28        1.90902   0.09296   0.00000   0.04493   0.04543   1.95445
   A29        1.70948  -0.14179   0.00000  -0.07324  -0.07324   1.63625
   A30        1.99119   0.09607   0.00000   0.05066   0.05066   2.04185
   A31        2.57090   0.04505   0.00000   0.02221   0.02223   2.59313
   A32        1.41582   0.19759   0.00000   0.11057   0.11057   1.52638
   A33        1.89069  -0.05296   0.00000  -0.02963  -0.02963   1.86106
   A34        1.67565   0.03841   0.00000   0.02149   0.02149   1.69714
    D1       -1.92506   0.00494   0.00000   0.00229   0.00228  -1.92279
    D2       -0.79029  -0.01837   0.00000  -0.01261  -0.01260  -0.80289
    D3        2.24445  -0.02096   0.00000  -0.01434  -0.01433   2.23013
    D4        0.06142   0.00046   0.00000  -0.00036  -0.00045   0.06097
    D5        2.32030   0.00597   0.00000   0.00429   0.00427   2.32456
    D6       -0.06812   0.01498   0.00000   0.00925   0.00917  -0.05895
    D7        1.87672   0.00690   0.00000   0.00639   0.00650   1.88322
    D8       -3.11039   0.01832   0.00000   0.01135   0.01126  -3.09912
    D9       -1.16555   0.01024   0.00000   0.00849   0.00860  -1.15695
   D10        0.19758  -0.01312   0.00000  -0.00589  -0.00594   0.19164
   D11        2.48992   0.02744   0.00000   0.01726   0.01722   2.50714
   D12        2.04214   0.02610   0.00000   0.01824   0.01817   2.06030
   D13       -0.69450   0.00024   0.00000   0.00112   0.00105  -0.69345
   D14        2.93747   0.03144   0.00000   0.01880   0.01891   2.95638
   D15        0.20083   0.00558   0.00000   0.00168   0.00179   0.20262
   D16        0.63220  -0.00622   0.00000  -0.00284  -0.00287   0.62932
   D17       -2.10444  -0.03208   0.00000  -0.01996  -0.01999  -2.12443
   D18       -3.14018  -0.03359   0.00000  -0.02226  -0.02234   3.12067
   D19       -0.65332   0.01024   0.00000   0.00665   0.00669  -0.64663
   D20       -0.39092  -0.00979   0.00000  -0.00634  -0.00638  -0.39731
   D21        2.09594   0.03405   0.00000   0.02257   0.02265   2.11858
   D22        2.45799   0.07810   0.00000   0.04951   0.04926   2.50725
   D23        0.36671  -0.01786   0.00000  -0.00996  -0.00966   0.35705
   D24        0.01161   0.02844   0.00000   0.01718   0.01688   0.02849
   D25       -2.07967  -0.06752   0.00000  -0.04229  -0.04204  -2.12171
   D26        1.43855  -0.02009   0.00000  -0.01008  -0.00934   1.42920
   D27       -1.12467  -0.02977   0.00000  -0.02434  -0.02616  -1.15083
   D28       -2.42682   0.00166   0.00000   0.00518   0.00700  -2.41982
   D29        1.29315  -0.00802   0.00000  -0.00908  -0.00982   1.28333
   D30        2.97830   0.01760   0.00000   0.01326   0.01447   2.99277
   D31       -1.04108  -0.05064   0.00000  -0.02824  -0.02756  -1.06864
   D32       -0.93408   0.13598   0.00000   0.08711   0.08644  -0.84764
   D33        1.32973   0.06773   0.00000   0.04562   0.04441   1.37413
   D34        0.29236   0.00003   0.00000  -0.00053  -0.00026   0.29210
   D35       -2.73189   0.00057   0.00000   0.00002   0.00033  -2.73155
   D36       -2.20415   0.01356   0.00000   0.00972   0.00941  -2.19474
   D37        1.05479   0.01410   0.00000   0.01028   0.01001   1.06480
   D38       -1.86472   0.02535   0.00000   0.01713   0.01711  -1.84762
   D39        1.07771   0.01894   0.00000   0.01376   0.01378   1.09149
   D40       -2.84478  -0.11391   0.00000  -0.08165  -0.08165  -2.92644
   D41       -0.67242  -0.04972   0.00000  -0.03564  -0.03564  -0.70806
         Item               Value     Threshold  Converged?
 Maximum Force            0.225188     0.000450     NO 
 RMS     Force            0.067200     0.000300     NO 
 Maximum Displacement     0.989596     0.001800     NO 
 RMS     Displacement     0.259429     0.001200     NO 
 Predicted change in Energy=-2.123626D-01
 GradGradGradGradGradGradGradGradGradGradGradGradGradGradGradGradGradGrad

                          Input orientation:                          
 ---------------------------------------------------------------------
 Center     Atomic      Atomic             Coordinates (Angstroms)
 Number     Number       Type             X           Y           Z
 ---------------------------------------------------------------------
      1         16           0        4.901629   -1.977425   -2.368882
      2          6           0        5.753994   -0.665458   -3.552605
      3          6           0        4.588393    0.052471   -2.374025
      4          6           0        5.019795    0.867562   -1.357122
      5          6           0        5.618394    1.561791   -2.433125
      6          6           0        6.934879    1.307116   -2.415755
      7          6           0        7.504523    1.772364   -3.583210
      8          6           0        8.830514    1.522304   -3.516759
      9          6           0        9.064685    1.217933   -4.816863
     10          6           0        9.246845    2.230550   -5.738446
     11          6           0        9.628567    1.383265   -6.753744
     12          6           0        9.109472    0.215854   -6.101856
     13          6           0        8.159694   -0.283051   -5.067223
     14         16           0        8.945365   -1.597307   -4.449093
     15          1           0        3.436437    0.419045   -2.444678
     16          1           0        5.609335    0.377036   -0.544471
     17          1           0        5.084086    1.466803   -3.506222
     18          1           0        7.414061    0.527862   -1.799285
     19          1           0        6.891102    1.669455   -4.569724
     20          1           0        9.411825    0.822104   -2.916783
     21          1           0        8.633850    3.056998   -6.104423
     22          1           0       10.263967    1.831633   -7.592894
     23          1           0       10.261856   -0.092858   -5.856053
     24          1           0       10.229653   -1.705896   -5.319548
 ---------------------------------------------------------------------
                    Distance matrix (angstroms):
                    1          2          3          4          5
     1  S    0.000000
     2  C    1.961882   0.000000
     3  C    2.053928   1.806405   0.000000
     4  C    3.021849   2.776571   1.372798   0.000000
     5  C    3.611638   2.496450   1.828235   1.413526   0.000000
     6  C    3.863225   2.564755   2.661179   2.231918   1.341005
     7  C    4.723406   3.001377   3.594993   3.456588   2.219125
     8  C    5.385338   3.775257   4.632693   4.428803   3.390212
     9  C    5.790851   4.013252   5.230961   5.334201   4.204446
    10  C    6.924011   5.036346   6.145286   6.238725   4.953589
    11  C    7.270845   5.427419   6.808546   7.115494   5.897551
    12  C    6.037508   4.305185   5.862045   6.297831   5.240110
    13  C    4.557075   2.868396   4.485542   4.994770   4.098795
    14  S    4.563285   3.443383   5.100086   5.571890   5.011264
    15  H    2.809910   2.788318   1.210937   1.972554   2.463115
    16  H    3.061505   3.186941   2.120126   1.117396   2.229516
    17  H    3.631740   2.235501   1.878276   2.232007   1.202516
    18  H    3.593497   2.693320   2.922452   2.458335   2.166837
    19  H    4.701217   2.789152   3.569062   3.803371   2.489264
    20  H    5.336613   3.999606   4.914512   4.660959   3.895021
    21  H    7.295831   5.353693   6.269671   6.355461   4.980667
    22  H    8.399637   6.549753   7.912911   8.204610   6.948193
    23  H    6.666633   5.094563   6.658366   6.974381   6.001337
    24  H    6.096557   4.923020   6.602407   7.033216   6.346095
                    6          7          8          9         10
     6  C    0.000000
     7  C    1.379819   0.000000
     8  C    2.202714   1.350999   0.000000
     9  C    3.210817   2.064801   1.355636   0.000000
    10  C    4.151891   2.809033   2.368721   1.381265   0.000000
    11  C    5.106848   3.836046   3.336809   2.024057   1.376384
    12  C    4.416678   3.367813   2.909872   1.630146   2.051814
    13  C    3.325521   2.618450   2.472499   1.770492   2.819686
    14  S    4.075806   3.765696   3.257977   2.841666   4.050409
    15  H    3.609515   4.435882   5.609153   6.159761   6.920354
    16  H    2.474635   3.843515   4.530135   5.558767   6.606389
    17  H    2.154078   2.440862   3.746854   4.198200   4.784840
    18  H    1.103126   2.177006   2.438231   3.508067   4.666395
    19  H    2.184672   1.166227   2.211720   2.233699   2.688915
    20  H    2.573233   2.232694   1.090034   1.971672   3.157961
    21  H    4.422088   3.046667   3.014957   2.285955   1.092117
    22  H    6.177436   4.867814   4.331900   3.085653   2.152359
    23  H    4.986418   4.030851   3.182733   2.057014   2.538170
    24  H    5.325954   4.747578   3.953342   3.187258   4.078847
                   11         12         13         14         15
    11  C    0.000000
    12  C    1.434318   0.000000
    13  C    2.789005   1.490452   0.000000
    14  S    3.829098   2.458883   1.651252   0.000000
    15  H    7.605277   6.752744   5.447920   6.199326   0.000000
    16  H    7.464703   6.569738   5.234055   5.502109   2.886873
    17  H    5.586204   4.950345   3.867567   5.018690   2.222481
    18  H    5.493853   4.635071   3.448619   3.725953   4.031112
    19  H    3.513625   3.062931   2.380989   3.860865   4.244297
    20  H    3.883831   3.256324   2.722792   2.901571   6.007546
    21  H    2.052428   2.880681   3.529382   4.949719   6.882269
    22  H    1.144090   2.483304   3.908820   4.835269   8.666874
    23  H    1.840066   1.218077   2.253334   2.444597   7.647606
    24  H    3.458487   2.357950   2.524457   1.555275   7.676459
                   16         17         18         19         20
    16  H    0.000000
    17  H    3.199289   0.000000
    18  H    2.203257   3.037109   0.000000
    19  H    4.417685   2.106516   3.041719   0.000000
    20  H    4.503874   4.415020   2.307909   3.131176   0.000000
    21  H    6.873351   4.677626   5.139905   2.705133   3.970018
    22  H    8.570981   6.607961   6.586934   4.532337   4.859147
    23  H    7.076699   5.896063   4.995258   4.015268   3.193590
    24  H    6.963283   6.311182   5.030854   4.806365   3.582305
                   21         22         23         24
    21  H    0.000000
    22  H    2.524747   0.000000
    23  H    3.554390   2.592352   0.000000
    24  H    5.084070   4.205162   1.700225   0.000000
 Stoichiometry    C12H10S2
 Framework group  C1[X(C12H10S2)]
 Deg. of freedom    66
 Full point group                 C1      NOp   1
 Largest Abelian subgroup         C1      NOp   1
 Largest concise Abelian subgroup C1      NOp   1
                         Standard orientation:                         
 ---------------------------------------------------------------------
 Center     Atomic      Atomic             Coordinates (Angstroms)
 Number     Number       Type             X           Y           Z
 ---------------------------------------------------------------------
      1         16           0        3.222757    1.455005   -0.282176
      2          6           0        1.557187    0.522292   -0.734840
      3          6           0        2.994024   -0.562848   -0.589692
      4          6           0        3.090556   -1.479262    0.427875
      5          6           0        1.825393   -1.868465   -0.068048
      6          6           0        0.888021   -1.431717    0.785696
      7          6           0       -0.357680   -1.585751    0.212633
      8          6           0       -1.273789   -1.161136    1.110210
      9          6           0       -2.166734   -0.591722    0.263944
     10          6           0       -3.093472   -1.379684   -0.390401
     11          6           0       -3.803130   -0.313436   -0.894318
     12          6           0       -2.745982    0.625389   -0.652836
     13          6           0       -1.282099    0.781032   -0.419876
     14         16           0       -1.208890    2.059494    0.622624
     15          1           0        3.747892   -1.074504   -1.387352
     16          1           0        3.242212   -1.065925    1.454875
     17          1           0        1.608665   -1.656673   -1.231758
     18          1           0        1.071912   -0.717755    1.606263
     19          1           0       -0.459936   -1.393762   -0.933129
     20          1           0       -1.196009   -0.506050    1.977957
     21          1           0       -3.034905   -2.205190   -1.103021
     22          1           0       -4.897321   -0.501892   -1.170309
     23          1           0       -3.407855    1.048622    0.278030
     24          1           0       -2.690300    2.512988    0.759184
 ---------------------------------------------------------------------
 Rotational constants (GHZ):           1.0184234           0.3816130           0.3066453
 Standard basis: 6-31G(2df,p) (6D, 7F)
 There are   492 symmetry adapted cartesian basis functions of A   symmetry.
 There are   450 symmetry adapted basis functions of A   symmetry.
   450 basis functions,   734 primitive gaussians,   492 cartesian basis functions
    57 alpha electrons       57 beta electrons
       nuclear repulsion energy      1011.4439023855 Hartrees.
 NAtoms=   24 NActive=   24 NUniq=   24 SFac= 1.00D+00 NAtFMM=   60 NAOKFM=F Big=F
 Integral buffers will be    131072 words long.
 Raffenetti 2 integral format.
 Two-electron integral symmetry is turned on.
 One-electron integrals computed using PRISM.
 PrsmSu:  requested number of processors reduced to:  12 ShMem   1 Linda.
 NBasis=   450 RedAO= T EigKep=  3.69D-04  NBF=   450
 NBsUse=   450 1.00D-06 EigRej= -1.00D+00 NBFU=   450
 Initial guess from the checkpoint file:  "SdC1CdCCdCCdCC2dCCdCC12S.chk"
 B after Tr=     0.000000   -0.000000   -0.000000
         Rot=    0.998049   -0.008197   -0.004451    0.061733 Ang=  -7.16 deg.
 ExpMin= 1.17D-01 ExpMax= 2.19D+04 ExpMxC= 3.30D+03 IAcc=2 IRadAn=         4 AccDes= 0.00D+00
 Harris functional with IExCor=  402 and IRadAn=       4 diagonalized for initial guess.
 HarFok:  IExCor=  402 AccDes= 0.00D+00 IRadAn=         4 IDoV= 1 UseB2=F ITyADJ=14
 ICtDFT=  3500011 ScaDFX=  1.000000  1.000000  1.000000  1.000000
 FoFCou: FMM=F IPFlag=           0 FMFlag=      100000 FMFlg1=           0
         NFxFlg=           0 DoJE=T BraDBF=F KetDBF=T FulRan=T
         wScrn=  0.000000 ICntrl=       500 IOpCl=  0 I1Cent=   200000004 NGrid=           0
         NMat0=    1 NMatS0=      1 NMatT0=    0 NMatD0=    1 NMtDS0=    0 NMtDT0=    0
 Petite list used in FoFCou.
 Requested convergence on RMS density matrix=1.00D-08 within 128 cycles.
 Requested convergence on MAX density matrix=1.00D-06.
 Requested convergence on             energy=1.00D-06.
 No special actions if energy rises.
 Integral accuracy reduced to 1.0D-05 until final iterations.
 Initial convergence to 1.0D-05 achieved.  Increase integral accuracy.
 SCF Done:  E(RB3LYP) =  -1258.74992771     A.U. after   25 cycles
            NFock= 25  Conv=0.27D-08     -V/T= 2.0040
 PrsmSu:  requested number of processors reduced to:  13 ShMem   1 Linda.
 Calling FoFJK, ICntrl=      2127 FMM=F ISym2X=0 I1Cent= 0 IOpClX= 0 NMat=1 NMatS=1 NMatT=0.
 ***** Axes restored to original set *****
 -------------------------------------------------------------------
 Center     Atomic                   Forces (Hartrees/Bohr)
 Number     Number              X              Y              Z
 -------------------------------------------------------------------
      1       16           0.023887493    0.063925085   -0.024838496
      2        6          -0.066633158   -0.033268807    0.046853429
      3        6          -0.078122026   -0.091770537   -0.043829258
      4        6           0.004452789    0.015669387    0.059103028
      5        6          -0.051603600   -0.009606552    0.002921387
      6        6           0.013709393   -0.004856755   -0.011764066
      7        6          -0.001946048   -0.015431664    0.007040169
      8        6           0.055654878   -0.021413316    0.011160548
      9        6          -0.011677549    0.048553861   -0.029434053
     10        6          -0.022838123    0.026180992   -0.062833774
     11        6          -0.019471335    0.070807886   -0.045052793
     12        6           0.123016064   -0.050288760    0.021588240
     13        6           0.020347512   -0.003309617   -0.072788238
     14       16           0.026184659   -0.052452758    0.013011081
     15        1           0.045256094   -0.029040209   -0.029124433
     16        1          -0.003359374    0.022577013   -0.009495713
     17        1           0.015994826    0.039201551    0.048357132
     18        1          -0.001468657    0.025775619    0.001995560
     19        1           0.022096056    0.030806220    0.039418477
     20        1          -0.015932433    0.013926266    0.030761776
     21        1           0.019231943    0.025338679    0.028162952
     22        1          -0.026759180   -0.037747149    0.007144409
     23        1          -0.032147095   -0.037216764   -0.018974102
     24        1          -0.037873129    0.003640326    0.030616740
 -------------------------------------------------------------------
 Cartesian Forces:  Max     0.123016064 RMS     0.038441781

 GradGradGradGradGradGradGradGradGradGradGradGradGradGradGradGradGradGrad
 Berny optimization.
 Using GEDIIS/GDIIS optimizer.
 FormGI is forming the generalized inverse of G from B-inverse, IUseBI=4.
 Internal  Forces:  Max     0.164845921 RMS     0.052143283
 Search for a local minimum.
 Step number   2 out of a maximum of  109
 All quantities printed in internal units (Hartrees-Bohrs-Radians)
 Mixed Optimization -- RFO/linear search
 Update second derivatives using D2CorX and points    1    2
 DE= -2.11D-01 DEPred=-2.12D-01 R= 9.93D-01
 TightC=F SS=  1.41D+00  RLast= 3.43D-01 DXNew= 5.0454D-01 1.0288D+00
 Trust test= 9.93D-01 RLast= 3.43D-01 DXMaxT set to 5.05D-01
 ITU=  1  0
 Use linear search instead of GDIIS.
     Eigenvalues ---    0.00224   0.00230   0.00245   0.01544   0.01719
     Eigenvalues ---    0.02116   0.02180   0.02250   0.02473   0.02687
     Eigenvalues ---    0.03096   0.03135   0.03234   0.03303   0.03896
     Eigenvalues ---    0.04064   0.04165   0.04193   0.04346   0.05247
     Eigenvalues ---    0.05781   0.06745   0.09264   0.11403   0.11755
     Eigenvalues ---    0.12012   0.12359   0.12881   0.13865   0.14484
     Eigenvalues ---    0.14712   0.14776   0.14990   0.15640   0.15756
     Eigenvalues ---    0.16000   0.16962   0.17716   0.19210   0.19316
     Eigenvalues ---    0.20869   0.22131   0.22201   0.22343   0.22382
     Eigenvalues ---    0.22398   0.22865   0.23310   0.24641   0.24999
     Eigenvalues ---    0.26102   0.28348   0.31284   0.32744   0.34585
     Eigenvalues ---    0.34776   0.39293   0.40867   0.44506   0.47891
     Eigenvalues ---    0.49488   0.50345   0.56237   0.61155   0.63059
     Eigenvalues ---    2.33076
 RFO step:  Lambda=-3.18258683D-01 EMin= 2.23993070D-03
 Quartic linear search produced a step of  0.26961.
 Maximum step size (   0.505) exceeded in Quadratic search.
    -- Step size scaled by   0.656
 Iteration  1 RMS(Cart)=  0.30000772 RMS(Int)=  0.01485430
 Iteration  2 RMS(Cart)=  0.03526489 RMS(Int)=  0.00128880
 Iteration  3 RMS(Cart)=  0.00057363 RMS(Int)=  0.00126115
 Iteration  4 RMS(Cart)=  0.00000170 RMS(Int)=  0.00126115
 Iteration  5 RMS(Cart)=  0.00000000 RMS(Int)=  0.00126115
 Variable       Old X    -DE/DX   Delta X   Delta X   Delta X     New X
                                 (Linear)    (Quad)   (Total)
    R1        3.70742  -0.07947  -0.01259  -0.08562  -0.09821   3.60921
    R2        3.88136  -0.03676  -0.00661  -0.03954  -0.04615   3.83521
    R3        2.59421   0.05028   0.00422   0.04349   0.04748   2.64169
    R4        3.45486   0.08467   0.01421   0.08965   0.10405   3.55892
    R5        2.28834  -0.05014  -0.00751  -0.05330  -0.06081   2.22753
    R6        2.67118   0.00940   0.00238   0.01225   0.01460   2.68578
    R7        2.11157  -0.01859  -0.00262  -0.01927  -0.02188   2.08969
    R8        2.53413   0.10323   0.01404   0.10128   0.11532   2.64945
    R9        2.27243  -0.05336  -0.00828  -0.05700  -0.06528   2.20714
   R10        2.60748   0.07488   0.01274   0.08201   0.09475   2.70223
   R11        2.08461  -0.01773  -0.00267  -0.01866  -0.02133   2.06327
   R12        2.55302   0.07462   0.01391   0.08583   0.09974   2.65276
   R13        2.20385  -0.04768  -0.00719  -0.05054  -0.05774   2.14611
   R14        2.56178   0.13132   0.01763   0.12833   0.14596   2.70774
   R15        2.05987  -0.00051  -0.00014  -0.00067  -0.00082   2.05905
   R16        2.61021  -0.01649   0.00308  -0.00118   0.00190   2.61211
   R17        3.34575   0.00270  -0.00333   0.00259  -0.00073   3.34501
   R18        2.60099   0.06655   0.00104   0.04328   0.04432   2.64531
   R19        2.06380  -0.00106   0.00007  -0.00065  -0.00058   2.06323
   R20        2.71047   0.10331   0.00594   0.08405   0.08999   2.80046
   R21        2.16202  -0.03489  -0.00479  -0.03616  -0.04095   2.12107
   R22        2.30183  -0.01469  -0.00777  -0.02116  -0.02893   2.27290
   R23        2.93904  -0.01800  -0.00240  -0.01939  -0.02179   2.91725
   R24        3.21296   0.06030   0.00384   0.07602   0.07985   3.29281
    A1        0.93209  -0.11332  -0.01540  -0.11815  -0.13355   0.79854
    A2        2.13769   0.01088   0.00024   0.01013   0.01030   2.14800
    A3        2.38921   0.01017   0.00113   0.01064   0.01194   2.40115
    A4        2.03130  -0.01632  -0.00209  -0.01750  -0.01966   2.01164
    A5        1.73394   0.01828   0.00419   0.01953   0.02367   1.75762
    A6        1.85891   0.00603   0.00093   0.00676   0.00759   1.86650
    A7        2.03072   0.01174   0.00258   0.01327   0.01626   2.04698
    A8        2.14813  -0.00973  -0.00165  -0.01086  -0.01286   2.13527
    A9        1.97782   0.04678   0.00957   0.05307   0.06244   2.04026
   A10        1.28003   0.00418   0.00129   0.00498   0.00619   1.28622
   A11        1.88873   0.03036   0.00588   0.03401   0.03950   1.92823
   A12        2.04018   0.00323  -0.00002   0.00148   0.00104   2.04122
   A13        2.01835   0.00134   0.00040   0.00100   0.00054   2.01889
   A14        1.90741   0.05855   0.01320   0.06620   0.07931   1.98672
   A15        2.17467  -0.02406  -0.00561  -0.02803  -0.03373   2.14094
   A16        2.13138  -0.02665  -0.00555  -0.03079  -0.03644   2.09495
   A17        1.87672   0.07566   0.01377   0.08172   0.09507   1.97179
   A18        2.05874  -0.02568  -0.00355  -0.02957  -0.03356   2.02518
   A19        2.14305  -0.02277  -0.00341  -0.02642  -0.03030   2.11275
   A20        1.73547   0.09634   0.02458   0.11043   0.13519   1.87066
   A21        2.30419  -0.03552  -0.00679  -0.04200  -0.05044   2.25375
   A22        1.86662  -0.01665  -0.00507  -0.02532  -0.02955   1.83706
   A23        2.09215   0.09205   0.01276   0.09157   0.10492   2.19706
   A24        1.81076   0.07553   0.01069   0.07443   0.08758   1.89834
   A25        2.20754  -0.14880  -0.01532  -0.15532  -0.17262   2.03492
   A26        1.64832  -0.07741  -0.03144  -0.09939  -0.13120   1.51712
   A27        2.35228  -0.01816   0.01070  -0.01584  -0.00319   2.34909
   A28        1.95445   0.06363   0.01225   0.08256   0.09320   2.04766
   A29        1.63625   0.08056  -0.01975   0.05537   0.03557   1.67182
   A30        2.04185  -0.00132   0.01366   0.01380   0.02737   2.06922
   A31        2.59313  -0.08112   0.00599  -0.07189  -0.06586   2.52726
   A32        1.52638   0.11251   0.02981   0.12418   0.15399   1.68037
   A33        1.86106   0.10409  -0.00799   0.10597   0.09798   1.95904
   A34        1.69714   0.16485   0.00579   0.17245   0.17824   1.87539
    D1       -1.92279  -0.00830   0.00061  -0.01398  -0.01356  -1.93635
    D2       -0.80289  -0.02795  -0.00340  -0.03392  -0.03720  -0.84009
    D3        2.23013  -0.02983  -0.00386  -0.03544  -0.03922   2.19091
    D4        0.06097   0.00113  -0.00012   0.00137   0.00093   0.06190
    D5        2.32456   0.00400   0.00115   0.00324   0.00432   2.32889
    D6       -0.05895   0.01077   0.00247   0.01030   0.01255  -0.04640
    D7        1.88322   0.00652   0.00175   0.00498   0.00705   1.89027
    D8       -3.09912   0.01354   0.00304   0.01281   0.01566  -3.08346
    D9       -1.15695   0.00929   0.00232   0.00750   0.01016  -1.14679
   D10        0.19164  -0.00953  -0.00160  -0.01045  -0.01236   0.17928
   D11        2.50714   0.02552   0.00464   0.02612   0.03065   2.53779
   D12        2.06030   0.01429   0.00490   0.01415   0.01878   2.07909
   D13       -0.69345  -0.00295   0.00028  -0.00128  -0.00127  -0.69472
   D14        2.95638   0.02437   0.00510   0.02148   0.02694   2.98332
   D15        0.20262   0.00713   0.00048   0.00606   0.00688   0.20951
   D16        0.62932  -0.01093  -0.00078  -0.01454  -0.01539   0.61393
   D17       -2.12443  -0.02817  -0.00539  -0.02997  -0.03545  -2.15988
   D18        3.12067  -0.02233  -0.00602  -0.01953  -0.02565   3.09502
   D19       -0.64663   0.00778   0.00180   0.00757   0.00946  -0.63717
   D20       -0.39731  -0.00560  -0.00172  -0.00461  -0.00642  -0.40373
   D21        2.11858   0.02451   0.00611   0.02249   0.02869   2.14727
   D22        2.50725   0.04455   0.01328   0.03910   0.05151   2.55875
   D23        0.35705  -0.01571  -0.00260  -0.01922  -0.02086   0.33619
   D24        0.02849   0.01121   0.00455   0.00879   0.01237   0.04086
   D25       -2.12171  -0.04904  -0.01133  -0.04953  -0.05999  -2.18170
   D26        1.42920  -0.03559  -0.00252  -0.04181  -0.04184   1.38737
   D27       -1.15083  -0.00602  -0.00705   0.00174  -0.01048  -1.16131
   D28       -2.41982  -0.02490   0.00189  -0.03494  -0.02789  -2.44772
[...]
    R3        2.73633   0.00621  -0.00009   0.00816   0.00857   2.74490
    R4        4.20168   0.03428   0.00020   0.04457   0.04426   4.24594
    R5        2.07482  -0.00399   0.00001  -0.00693  -0.00692   2.06790
    R6        2.56755  -0.00294  -0.00006  -0.00403  -0.00379   2.56376
    R7        2.05276  -0.00188   0.00002  -0.00254  -0.00253   2.05023
    R8        2.69052   0.01417  -0.00019   0.01005   0.00985   2.70037
    R9        2.06683  -0.00287   0.00012  -0.00727  -0.00714   2.05968
   R10        2.61782   0.00292  -0.00027   0.00275   0.00248   2.62030
   R11        2.05412  -0.00036   0.00005  -0.00131  -0.00126   2.05286
   R12        2.62316   0.02201  -0.00019   0.01018   0.00999   2.63314
   R13        2.06363  -0.00226   0.00010  -0.00526  -0.00516   2.05847
   R14        2.67842  -0.00364  -0.00039   0.00403   0.00364   2.68205
   R15        2.06004   0.00018  -0.00001   0.00009   0.00008   2.06012
   R16        2.77066   0.02104   0.00001   0.00949   0.00950   2.78015
   R17        3.29924   0.00064  -0.00013   0.00858   0.00845   3.30770
   R18        2.59172  -0.02773  -0.00004  -0.00687  -0.00691   2.58481
   R19        2.05403  -0.00125  -0.00003  -0.00077  -0.00080   2.05323
   R20        2.86300  -0.00590   0.00011   0.00215   0.00226   2.86526
   R21        2.05484  -0.00193   0.00005  -0.00423  -0.00418   2.05065
   R22        2.06079   0.00336   0.00002   0.00245   0.00247   2.06326
   R23        2.60843  -0.00392  -0.00030  -0.01080  -0.01110   2.59733
   R24        3.42808   0.01788  -0.00013   0.02332   0.02319   3.45127
    A1        0.80255   0.02985  -0.00088   0.00311   0.00223   0.80478
    A2        2.18617   0.00270   0.00003   0.00179   0.00192   2.18809
    A3        2.60393   0.00898   0.00008   0.00852   0.00852   2.61245
    A4        1.88368  -0.00169  -0.00002  -0.00158  -0.00168   1.88201
    A5        1.98938   0.01024   0.00010   0.01325   0.01321   2.00259
    A6        1.79553  -0.00725  -0.00006  -0.00688  -0.00680   1.78873
    A7        2.15562   0.00389   0.00000   0.00192   0.00165   2.15727
    A8        2.11577  -0.00022   0.00001  -0.00026  -0.00039   2.11537
    A9        2.45953   0.03570   0.00031   0.03482   0.03505   2.49458
   A10        1.34830   0.00239   0.00004   0.00731   0.00709   1.35539
   A11        2.05837   0.01874   0.00018   0.01575   0.01636   2.07473
   A12        2.02846  -0.00544  -0.00006  -0.00327  -0.00354   2.02491
   A13        1.99656  -0.00384  -0.00005   0.00001  -0.00060   1.99596
   A14        2.08592   0.01216  -0.00007   0.01282   0.01273   2.09864
   A15        2.08594  -0.00769   0.00001  -0.00726  -0.00728   2.07867
   A16        2.06527  -0.00250   0.00007  -0.00226  -0.00221   2.06306
   A17        2.08746   0.01207  -0.00005   0.01467   0.01452   2.10198
   A18        2.04028   0.00015   0.00007   0.00137   0.00135   2.04163
   A19        2.04350  -0.00569   0.00001  -0.00512  -0.00523   2.03828
   A20        2.04047   0.02454  -0.00008   0.02408   0.02383   2.06430
   A21        2.12228  -0.01302  -0.00004  -0.01093  -0.01125   2.11104
   A22        1.92709   0.00147   0.00013   0.00632   0.00633   1.93341
   A23        2.31504   0.00586   0.00000   0.01080   0.01073   2.32577
   A24        1.94246   0.01280   0.00007   0.01372   0.01374   1.95621
   A25        1.93592  -0.01081  -0.00003  -0.01619  -0.01633   1.91959
   A26        1.57256  -0.02641   0.00007   0.00426   0.00427   1.57683
   A27        2.28269   0.01879   0.00002  -0.00607  -0.00619   2.27650
   A28        2.17680   0.01017  -0.00012   0.01519   0.01508   2.19189
   A29        1.69751  -0.04640   0.00019  -0.00418  -0.00406   1.69344
   A30        2.22962   0.03463   0.00001   0.01693   0.01688   2.24650
   A31        2.34592   0.01486  -0.00021  -0.00976  -0.01006   2.33586
   A32        2.31166   0.00597   0.00015  -0.00100  -0.00085   2.31081
   A33        1.79487   0.00429  -0.00051   0.00293   0.00242   1.79729
   A34        1.92731   0.00496  -0.00037  -0.00100  -0.00137   1.92594
    D1       -1.86252   0.01235   0.00007   0.01373   0.01386  -1.84866
    D2       -1.12984  -0.01259  -0.00014  -0.01926  -0.01946  -1.14930
    D3        1.99895  -0.00697  -0.00010  -0.00996  -0.01006   1.98890
    D4       -0.00367  -0.01453  -0.00014  -0.01806  -0.01825  -0.02192
    D5        2.38118   0.00146  -0.00000   0.00141   0.00158   2.38276
    D6        0.04640   0.00281   0.00001   0.00194   0.00177   0.04817
    D7        2.02123   0.00962   0.00008   0.02081   0.02110   2.04233
    D8       -3.08270  -0.00268  -0.00003  -0.00714  -0.00741  -3.09012
    D9       -1.10787   0.00412   0.00003   0.01172   0.01191  -1.09596
   D10        0.13896  -0.00663  -0.00005  -0.00534  -0.00509   0.13387
   D11        2.60811   0.00560   0.00004   0.01281   0.01280   2.62090
   D12        2.20839   0.01286   0.00012   0.02065   0.02097   2.22935
   D13       -0.60665   0.00658   0.00008   0.00973   0.01002  -0.59662
   D14        2.94362   0.00083  -0.00002   0.00087   0.00065   2.94427
   D15        0.12859  -0.00545  -0.00006  -0.01005  -0.01029   0.11830
   D16        0.46261  -0.01037  -0.00010  -0.01559  -0.01571   0.44690
   D17       -2.35242  -0.01666  -0.00014  -0.02651  -0.02665  -2.37907
   D18        3.13884   0.00193   0.00004   0.00473   0.00472  -3.13963
   D19       -0.50727   0.01382   0.00009   0.02593   0.02605  -0.48122
   D20       -0.32546   0.00713   0.00007   0.01454   0.01459  -0.31088
   D21        2.31161   0.01902   0.00012   0.03574   0.03592   2.34753
   D22        2.69823   0.01522   0.00002   0.02376   0.02369   2.72192
   D23        0.24631  -0.00636  -0.00004  -0.00972  -0.00970   0.23660
   D24        0.06206   0.00166  -0.00005   0.00067   0.00056   0.06263
   D25       -2.38986  -0.01993  -0.00012  -0.03280  -0.03283  -2.42270
   D26        1.24581  -0.00977  -0.00005  -0.02453  -0.02464   1.22118
   D27       -1.40068  -0.02762  -0.00015  -0.04186  -0.04224  -1.44292
   D28       -2.51238   0.00271  -0.00005  -0.00219  -0.00202  -2.51440
   D29        1.12431  -0.01514  -0.00015  -0.01952  -0.01962   1.10469
   D30        2.72457   0.00010   0.00005  -0.01808  -0.01791   2.70665
   D31       -1.13395   0.00082  -0.00005   0.00659   0.00656  -1.12739
   D32       -0.91076   0.02279   0.00017   0.00540   0.00555  -0.90521
   D33        1.51391   0.02351   0.00008   0.03007   0.03002   1.54393
   D34        0.00682   0.01956  -0.00008   0.00516   0.00524   0.01206
   D35       -2.99914  -0.00062  -0.00004  -0.01323  -0.01328  -3.01242
   D36       -2.48467   0.01196  -0.00008  -0.00437  -0.00444  -2.48911
   D37        0.79255  -0.00821  -0.00003  -0.02276  -0.02295   0.76959
   D38       -2.09179  -0.02174   0.00004  -0.02687  -0.02668  -2.11847
   D39        0.89956   0.00249   0.00002  -0.00304  -0.00317   0.89639
   D40       -2.69626  -0.01121   0.00033   0.00624   0.00657  -2.68969
   D41       -0.52904   0.00416   0.00053   0.03373   0.03426  -0.49478
         Item               Value     Threshold  Converged?
 Maximum Force            0.046395     0.000450     NO 
 RMS     Force            0.013824     0.000300     NO 
 Maximum Displacement     0.224333     0.001800     NO 
 RMS     Displacement     0.066812     0.001200     NO 
 Predicted change in Energy=-1.431084D-02
 GradGradGradGradGradGradGradGradGradGradGradGradGradGradGradGradGradGrad

                          Input orientation:                          
 ---------------------------------------------------------------------
 Center     Atomic      Atomic             Coordinates (Angstroms)
 Number     Number       Type             X           Y           Z
 ---------------------------------------------------------------------
      1         16           0        2.886797   -1.664633   -1.095242
      2          6           0        3.652703   -1.145591   -2.533928
      3          6           0        3.695301    0.030794   -1.672955
      4          6           0        4.973819    0.550135   -1.219578
      5          6           0        5.511885    1.206507   -2.277999
      6          6           0        6.915603    1.092120   -2.519794
      7          6           0        7.458684    1.549513   -3.710811
      8          6           0        8.826549    1.437841   -3.951723
      9          6           0        9.272393    1.416340   -5.298987
     10          6           0        9.325963    2.434536   -6.359562
     11          6           0       10.347336    1.758514   -6.968434
     12          6           0       10.425778    0.611441   -5.979984
     13          6           0        9.149309   -0.179490   -6.007455
     14         16           0        9.431830   -1.685023   -5.194260
     15          1           0        2.897062    0.776040   -1.742824
     16          1           0        5.601870    0.047686   -0.491440
     17          1           0        4.901522    1.239984   -3.180384
     18          1           0        7.499776    0.398007   -1.922251
     19          1           0        6.805436    1.553355   -4.582486
     20          1           0        9.456325    0.805288   -3.325843
     21          1           0        8.525662    2.963842   -6.869350
     22          1           0       10.953394    2.063651   -7.815283
     23          1           0       11.234078    0.238144   -5.348005
     24          1           0       10.793844   -1.518851   -5.114211
 ---------------------------------------------------------------------
                    Distance matrix (angstroms):
                    1          2          3          4          5
     1  S    0.000000
     2  C    1.710506   0.000000
     3  C    1.965172   1.458414   0.000000
     4  C    3.045705   2.519594   1.452541   0.000000
     5  C    4.066134   3.009057   2.246855   1.356684   0.000000
     6  C    5.085303   3.956523   3.494839   2.398923   1.428976
     7  C    6.170420   4.809796   4.541191   3.657807   2.441440
     8  C    7.284605   5.954238   5.788114   4.805846   3.720465
     9  C    8.242554   6.766828   6.794983   5.989125   4.828231
    10  C    9.272492   7.722608   7.710163   6.993680   5.719651
    11  C   10.093163   8.539133   8.676213   7.961419   6.759177
    12  C    9.267008   7.799809   8.011677   7.238030   6.181030
    13  C    8.096575   6.573540   6.969814   6.394594   5.390796
    14  S    7.722682   6.384878   6.946322   6.377138   5.677279
    15  H    2.525143   2.211223   1.094285   2.153542   2.703520
    16  H    3.266226   3.065114   2.243049   1.084937   2.131375
    17  H    4.104111   2.769192   2.278036   2.079874   1.089937
    18  H    5.120351   4.190086   3.830277   2.626280   2.175302
    19  H    6.154026   4.628242   4.522886   3.958588   2.665378
    20  H    7.364426   6.173742   6.043284   4.959265   4.100922
    21  H    9.303757   7.709025   7.677088   7.096583   5.766419
    22  H   11.141321   9.565147   9.723200   9.030468   7.810648
    23  H    9.559479   8.204328   8.389406   7.505470   6.565527
    24  H    8.871006   7.602176   8.039462   7.302161   6.585648
                    6          7          8          9         10
     6  C    0.000000
     7  C    1.386603   0.000000
     8  C    2.412811   1.393400   0.000000
     9  C    3.658346   2.414452   1.419282   0.000000
    10  C    4.728185   3.359446   2.653395   1.471194   0.000000
    11  C    5.657850   4.358910   3.393548   2.014854   1.367821
    12  C    4.952302   3.851333   2.711884   1.562663   2.162718
    13  C    4.332460   3.335002   2.635520   1.750357   2.643543
    14  S    4.603987   4.068925   3.415047   3.107223   4.282511
    15  H    4.105151   5.027886   6.362078   7.328106   8.086758
    16  H    2.632672   4.008441   4.929974   6.201489   7.348523
    17  H    2.124798   2.629875   4.004990   4.860463   5.577617
    18  H    1.086328   2.127582   2.638245   3.947344   5.212691
    19  H    2.116501   1.089296   2.120402   2.572552   3.207419
    20  H    2.680906   2.166250   1.090169   2.073768   3.445997
    21  H    5.001427   3.621483   3.306322   2.327748   1.086522
    22  H    6.729772   5.415166   4.454459   3.094595   2.214771
    23  H    5.232330   4.318992   3.030688   2.288833   3.080307
    24  H    5.346861   4.744226   3.736798   3.311239   4.397141
                   11         12         13         14         15
    11  C    0.000000
    12  C    1.516233   0.000000
    13  C    2.472774   1.501899   0.000000
    14  S    3.980425   2.622792   1.734281   0.000000
    15  H    9.153079   8.640729   7.628284   7.789252   0.000000
    16  H    8.209619   7.328849   6.562192   6.307726   3.067971
    17  H    6.653953   6.224968   5.296313   5.756306   2.509917
    18  H    5.951768   5.007219   4.443349   4.333347   4.621697
    19  H    4.275499   3.993380   3.244539   4.214179   4.893188
    20  H    3.869239   2.832292   2.873167   3.113395   6.747647
    21  H    2.186580   3.152016   3.318485   5.023845   7.921420
    22  H    1.085158   2.399086   3.399213   4.820526  10.170408
    23  H    2.392410   1.091832   2.226107   2.640133   9.099039
    24  H    3.791917   2.328772   2.301362   1.374446   8.887742
                   16         17         18         19         20
    16  H    0.000000
    17  H    3.023654   0.000000
    18  H    2.402498   3.007116   0.000000
    19  H    4.522419   2.385158   2.982246   0.000000
    20  H    4.844030   4.577811   2.442137   3.027536   0.000000
    21  H    7.598044   5.451106   5.666546   3.190361   4.252286
    22  H    9.292019   7.667195   7.030624   5.283648   4.896914
    23  H    7.439373   6.767830   5.070144   4.682806   2.751581
    24  H    7.126055   6.787512   4.971302   5.062468   3.223172
                   21         22         23         24
    21  H    0.000000
    22  H    2.756631   0.000000
    23  H    4.132728   3.082000   0.000000
    24  H    5.321626   4.489495   1.826335   0.000000
 Stoichiometry    C12H10S2
 Framework group  C1[X(C12H10S2)]
 Deg. of freedom    66
 Full point group                 C1      NOp   1
 Largest Abelian subgroup         C1      NOp   1
 Largest concise Abelian subgroup C1      NOp   1
                         Standard orientation:                         
 ---------------------------------------------------------------------
 Center     Atomic      Atomic             Coordinates (Angstroms)
 Number     Number       Type             X           Y           Z
 ---------------------------------------------------------------------
      1         16           0        5.273372    0.880965   -0.269552
      2          6           0        3.741750    0.653464   -0.996330
      3          6           0        3.983333   -0.601308   -0.293369
      4          6           0        3.125934   -0.987578    0.813670
      5          6           0        1.968667   -1.428255    0.259476
      6          6           0        0.730304   -1.089635    0.886983
      7          6           0       -0.470120   -1.317948    0.231603
      8          6           0       -1.679847   -0.987129    0.838796
      9          6           0       -2.803560   -0.739485    0.007951
     10          6           0       -3.642035   -1.603354   -0.837686
     11          6           0       -4.681447   -0.721777   -0.722022
     12          6           0       -3.965879    0.296014    0.144594
     13          6           0       -2.815967    0.897590   -0.611388
     14         16           0       -2.297476    2.317554    0.238672
     15          1           0        4.443008   -1.436995   -0.829826
     16          1           0        3.134299   -0.494462    1.780032
     17          1           0        1.933091   -1.436861   -0.829846
     18          1           0        0.734351   -0.398440    1.725042
     19          1           0       -0.448380   -1.307185   -0.857423
     20          1           0       -1.707372   -0.353480    1.725475
     21          1           0       -3.392746   -2.173589   -1.728314
     22          1           0       -5.706896   -0.833552   -1.058965
     23          1           0       -4.180417    0.699199    1.136316
     24          1           0       -3.370075    2.335466    1.097922
 ---------------------------------------------------------------------
 Rotational constants (GHZ):           1.1413327           0.1932469           0.1745621
 Standard basis: 6-31G(2df,p) (6D, 7F)
 There are   492 symmetry adapted cartesian basis functions of A   symmetry.
 There are   450 symmetry adapted basis functions of A   symmetry.
   450 basis functions,   734 primitive gaussians,   492 cartesian basis functions
    57 alpha electrons       57 beta electrons
       nuclear repulsion energy       902.0575058808 Hartrees.
 NAtoms=   24 NActive=   24 NUniq=   24 SFac= 1.00D+00 NAtFMM=   60 NAOKFM=F Big=F
 Integral buffers will be    131072 words long.
 Raffenetti 2 integral format.
 Two-electron integral symmetry is turned on.
 One-electron integrals computed using PRISM.
 PrsmSu:  requested number of processors reduced to:  12 ShMem   1 Linda.
 NBasis=   450 RedAO= T EigKep=  3.68D-04  NBF=   450
 NBsUse=   450 1.00D-06 EigRej= -1.00D+00 NBFU=   450
 Initial guess from the checkpoint file:  "SdC1CdCCdCCdCC2dCCdCC12S.chk"
 B after Tr=    -0.000000    0.000000    0.000000
         Rot=    0.999959    0.008446    0.000947   -0.003098 Ang=   1.04 deg.
 ExpMin= 1.17D-01 ExpMax= 2.19D+04 ExpMxC= 3.30D+03 IAcc=2 IRadAn=         4 AccDes= 0.00D+00
 Harris functional with IExCor=  402 and IRadAn=       4 diagonalized for initial guess.
 HarFok:  IExCor=  402 AccDes= 0.00D+00 IRadAn=         4 IDoV= 1 UseB2=F ITyADJ=14
 ICtDFT=  3500011 ScaDFX=  1.000000  1.000000  1.000000  1.000000
 FoFCou: FMM=F IPFlag=           0 FMFlag=      100000 FMFlg1=           0
         NFxFlg=           0 DoJE=T BraDBF=F KetDBF=T FulRan=T
         wScrn=  0.000000 ICntrl=       500 IOpCl=  0 I1Cent=   200000004 NGrid=           0
         NMat0=    1 NMatS0=      1 NMatT0=    0 NMatD0=    1 NMtDS0=    0 NMtDT0=    0
 Petite list used in FoFCou.
 Requested convergence on RMS density matrix=1.00D-08 within 128 cycles.
 Requested convergence on MAX density matrix=1.00D-06.
 Requested convergence on             energy=1.00D-06.
 No special actions if energy rises.
 Integral accuracy reduced to 1.0D-05 until final iterations.
 Initial convergence to 1.0D-05 achieved.  Increase integral accuracy.
 SCF Done:  E(RB3LYP) =  -1259.25542824     A.U. after   14 cycles
            NFock= 14  Conv=0.55D-08     -V/T= 2.0047
 PrsmSu:  requested number of processors reduced to:  13 ShMem   1 Linda.
 Calling FoFJK, ICntrl=      2127 FMM=F ISym2X=0 I1Cent= 0 IOpClX= 0 NMat=1 NMatS=1 NMatT=0.
 ***** Axes restored to original set *****
 -------------------------------------------------------------------
 Center     Atomic                   Forces (Hartrees/Bohr)
 Number     Number              X              Y              Z
 -------------------------------------------------------------------
      1       16           0.008563713    0.013481475    0.005185146
      2        6          -0.000861034   -0.005941033   -0.011686932
      3        6          -0.045311511   -0.011698909    0.025159325
      4        6           0.007484509   -0.007301382   -0.016033887
      5        6           0.024417089   -0.039343981    0.000635253
      6        6          -0.003465973    0.019900681   -0.021589490
      7        6          -0.000190266   -0.014513596    0.023550491
      8        6           0.018163983   -0.034369235   -0.043234298
      9        6          -0.014833134    0.011054143    0.033329465
     10        6          -0.005249276   -0.037340525   -0.035727249
     11        6           0.009910924    0.031796577    0.007199597
slurmstepd: error: *** JOB 27446848 ON lewis4-r630-hpc4-node227 CANCELLED AT 2023-05-16T00:40:30 DUE TO TIME LIMIT ***
     12        6          -0.021338739    0.016166271    0.005626753
