### Starting Gaussian ###
 Entering Gaussian System, Link 0=g16
 Initial command:
 /cluster/software/gaussian/gaussian-16-A.03/avx2/g16/l1.exe "/local/scratch/cz9n3/Gau-17739.inp" -scrdir="/local/scratch/cz9n3/"
 Entering Link 1 = /cluster/software/gaussian/gaussian-16-A.03/avx2/g16/l1.exe PID=     17743.
  
 Copyright (c) 1988,1990,1992,1993,1995,1998,2003,2009,2016,
            Gaussian, Inc.  All Rights Reserved.
  
 This is part of the Gaussian(R) 16 program.  It is based on
 the Gaussian(R) 09 system (copyright 2009, Gaussian, Inc.),
 the Gaussian(R) 03 system (copyright 2003, Gaussian, Inc.),
 the Gaussian(R) 98 system (copyright 1998, Gaussian, Inc.),
 the Gaussian(R) 94 system (copyright 1995, Gaussian, Inc.),
 the Gaussian 92(TM) system (copyright 1992, Gaussian, Inc.),
 the Gaussian 90(TM) system (copyright 1990, Gaussian, Inc.),
 the Gaussian 88(TM) system (copyright 1988, Gaussian, Inc.),
 the Gaussian 86(TM) system (copyright 1986, Carnegie Mellon
 University), and the Gaussian 82(TM) system (copyright 1983,
 Carnegie Mellon University). Gaussian is a federally registered
 trademark of Gaussian, Inc.
  
 This software contains proprietary and confidential information,
 including trade secrets, belonging to Gaussian, Inc.
  
 This software is provided under written license and may be
 used, copied, transmitted, or stored only in accord with that
 written license.
  
 The following legend is applicable only to US Government
 contracts under FAR:
  
                    RESTRICTED RIGHTS LEGEND
  
 Use, reproduction and disclosure by the US Government is
 subject to restrictions as set forth in subparagraphs (a)
 and (c) of the Commercial Computer Software - Restricted
 Rights clause in FAR 52.227-19.
  
 Gaussian, Inc.
 340 Quinnipiac St., Bldg. 40, Wallingford CT 06492
  
  
 ---------------------------------------------------------------
 Warning -- This program may not be used in any manner that
 competes with the business of Gaussian, Inc. or will provide
 assistance to any competitor of Gaussian, Inc.  The licensee
 of this program is prohibited from giving any competitor of
 Gaussian, Inc. access to this program.  By using this program,
 the user acknowledges that Gaussian, Inc. is engaged in the
 business of creating and licensing software in the field of
 computational chemistry and represents and warrants to the
 licensee that it is not a competitor of Gaussian, Inc. and that
 it will not use this program in any manner prohibited above.
 ---------------------------------------------------------------
  

 Cite this work as:
 Gaussian 16, Revision A.03,
 M. J. Frisch, G. W. Trucks, H. B. Schlegel, G. E. Scuseria, 
 M. A. Robb, J. R. Cheeseman, G. Scalmani, V. Barone, 
 G. A. Petersson, H. Nakatsuji, X. Li, M. Caricato, A. V. Marenich, 
 J. Bloino, B. G. Janesko, R. Gomperts, B. Mennucci, H. P. Hratchian, 
 J. V. Ortiz, A. F. Izmaylov, J. L. Sonnenberg, D. Williams-Young, 
 F. Ding, F. Lipparini, F. Egidi, J. Goings, B. Peng, A. Petrone, 
 T. Henderson, D. Ranasinghe, V. G. Zakrzewski, J. Gao, N. Rega, 
 G. Zheng, W. Liang, M. Hada, M. Ehara, K. Toyota, R. Fukuda, 
 J. Hasegawa, M. Ishida, T. Nakajima, Y. Honda, O. Kitao, H. Nakai, 
 T. Vreven, K. Throssell, J. A. Montgomery, Jr., J. E. Peralta, 
 F. Ogliaro, M. J. Bearpark, J. J. Heyd, E. N. Brothers, K. N. Kudin, 
 V. N. Staroverov, T. A. Keith, R. Kobayashi, J. Normand, 
 K. Raghavachari, A. P. Rendell, J. C. Burant, S. S. Iyengar, 
 J. Tomasi, M. Cossi, J. M. Millam, M. Klene, C. Adamo, R. Cammi, 
 J. W. Ochterski, R. L. Martin, K. Morokuma, O. Farkas, 
 J. B. Foresman, and D. J. Fox, Gaussian, Inc., Wallingford CT, 2016.
 
 ******************************************
 Gaussian 16:  ES64L-G16RevA.03 25-Dec-2016
                16-May-2023 
 ******************************************
 %chk=SdC1CdCCdCC2dCCdNNCC[SH]1S2.chk
 %NProcShared=20
 Will use up to   20 processors via shared memory.
 -----------------------------
 # opt freq b3lyp/6-31g(2df,p)
 -----------------------------
 1/18=20,19=15,26=3,38=1/1,3;
 2/9=110,12=2,17=6,18=5,40=1/2;
 3/5=1,6=6,7=104,11=2,25=1,30=1,71=1,74=-5/1,2,3;
 4//1;
 5/5=2,38=5/2;
 6/7=2,8=2,9=2,10=2,28=1/1;
 7//1,2,3,16;
 1/18=20,19=15,26=3/3(2);
 2/9=110/2;
 99//99;
 2/9=110/2;
 3/5=1,6=6,7=104,11=2,25=1,30=1,71=1,74=-5/1,2,3;
 4/5=5,16=3,69=1/1;
 5/5=2,38=5/2;
 7//1,2,3,16;
 1/18=20,19=15,26=3/3(-5);
 2/9=110/2;
 6/7=2,8=2,9=2,10=2,19=2,28=1/1;
 99/9=1/99;
 -------------------
 Title Card Required
 -------------------
 Symbolic Z-matrix:
 Charge =  0 Multiplicity = 1
 S                     0.68023   0.07026   0.28039 
 C                     2.30783   0.23146  -0.02614 
 C                     3.38023  -0.6676    0.58591 
 C                     3.7856   -1.83991   0.05369 
 C                     3.33861  -2.49555  -1.13575 
 C                     3.07375  -2.00703  -2.37247 
 C                     2.90422  -0.69095  -2.86918 
 C                     1.71961  -0.44579  -3.47577 
 C                     1.52265   0.86287  -4.03775 
 N                     0.4948    1.24715  -4.7237 
 N                     0.39116   2.57232  -4.50648 
 C                     0.2141    2.87869  -3.0476 
 C                     1.46298   2.82532  -1.8046 
 S                     2.81177   1.53687  -1.15816 
 S                     4.03564   0.57759  -2.58534 
 H                     3.80961  -0.38886   1.54985 
 H                     4.53715  -2.44105   0.58512 
 H                     3.21566  -3.57131  -1.04303 
 H                     2.84965  -2.73502  -3.13946 
 H                     0.89009  -1.13304  -3.4681 
 H                     2.21726   1.6545   -3.72855 
 H                     1.12684   3.13789  -4.94302 
 H                    -0.69094   2.30612  -2.77484 
 H                    -0.17691   3.91327  -3.13125 
 H                     0.94697   3.12115  -0.87955 
 H                     2.11622   3.65859  -2.09475 
 H                     3.81561   2.09706  -0.43521 
 

 GradGradGradGradGradGradGradGradGradGradGradGradGradGradGradGradGradGrad
 Berny optimization.
 Initialization pass.
                           ----------------------------
                           !    Initial Parameters    !
                           ! (Angstroms and Degrees)  !
 --------------------------                            --------------------------
 ! Name  Definition              Value          Derivative Info.                !
 --------------------------------------------------------------------------------
 ! R1    R(1,2)                  1.664          estimate D2E/DX2                !
 ! R2    R(2,3)                  1.5274         estimate D2E/DX2                !
 ! R3    R(2,14)                 1.7999         estimate D2E/DX2                !
 ! R4    R(3,4)                  1.3498         estimate D2E/DX2                !
 ! R5    R(3,16)                 1.0914         estimate D2E/DX2                !
 ! R6    R(4,5)                  1.4298         estimate D2E/DX2                !
 ! R7    R(4,17)                 1.0994         estimate D2E/DX2                !
 ! R8    R(5,6)                  1.3558         estimate D2E/DX2                !
 ! R9    R(5,18)                 1.0867         estimate D2E/DX2                !
 ! R10   R(6,7)                  1.4169         estimate D2E/DX2                !
 ! R11   R(6,19)                 1.081          estimate D2E/DX2                !
 ! R12   R(7,8)                  1.3533         estimate D2E/DX2                !
 ! R13   R(7,15)                 1.7233         estimate D2E/DX2                !
 ! R14   R(8,9)                  1.4378         estimate D2E/DX2                !
 ! R15   R(8,20)                 1.0773         estimate D2E/DX2                !
 ! R16   R(9,10)                 1.2941         estimate D2E/DX2                !
 ! R17   R(9,21)                 1.0976         estimate D2E/DX2                !
 ! R18   R(10,11)                1.3468         estimate D2E/DX2                !
 ! R19   R(11,12)                1.5012         estimate D2E/DX2                !
 ! R20   R(11,22)                1.0255         estimate D2E/DX2                !
 ! R21   R(12,13)                1.7628         estimate D2E/DX2                !
 ! R22   R(12,23)                1.1051         estimate D2E/DX2                !
 ! R23   R(12,24)                1.1092         estimate D2E/DX2                !
 ! R24   R(13,14)                1.9741         estimate D2E/DX2                !
 ! R25   R(13,25)                1.0998         estimate D2E/DX2                !
 ! R26   R(13,26)                1.0978         estimate D2E/DX2                !
 ! R27   R(14,15)                2.1107         estimate D2E/DX2                !
 ! R28   R(14,27)                1.358          estimate D2E/DX2                !
 ! A1    A(1,2,3)              123.7725         estimate D2E/DX2                !
 ! A2    A(1,2,14)             117.3854         estimate D2E/DX2                !
 ! A3    A(3,2,14)             118.8398         estimate D2E/DX2                !
 ! A4    A(2,3,4)              124.3389         estimate D2E/DX2                !
 ! A5    A(2,3,16)             118.6717         estimate D2E/DX2                !
 ! A6    A(4,3,16)             116.8657         estimate D2E/DX2                !
 ! A7    A(3,4,5)              129.2257         estimate D2E/DX2                !
 ! A8    A(3,4,17)             119.3153         estimate D2E/DX2                !
 ! A9    A(5,4,17)             111.4138         estimate D2E/DX2                !
 ! A10   A(4,5,6)              130.8925         estimate D2E/DX2                !
 ! A11   A(4,5,18)             114.7278         estimate D2E/DX2                !
 ! A12   A(6,5,18)             114.3556         estimate D2E/DX2                !
 ! A13   A(5,6,7)              132.6737         estimate D2E/DX2                !
 ! A14   A(5,6,19)             116.4269         estimate D2E/DX2                !
 ! A15   A(7,6,19)             110.6103         estimate D2E/DX2                !
 ! A16   A(6,7,8)              115.477          estimate D2E/DX2                !
 ! A17   A(6,7,15)             123.1915         estimate D2E/DX2                !
 ! A18   A(8,7,15)             121.0094         estimate D2E/DX2                !
 ! A19   A(7,8,9)              117.3877         estimate D2E/DX2                !
 ! A20   A(7,8,20)             123.731          estimate D2E/DX2                !
 ! A21   A(9,8,20)             118.5529         estimate D2E/DX2                !
 ! A22   A(8,9,10)             125.8929         estimate D2E/DX2                !
 ! A23   A(8,9,21)             117.365          estimate D2E/DX2                !
 ! A24   A(10,9,21)            115.9629         estimate D2E/DX2                !
 ! A25   A(9,10,11)            105.5334         estimate D2E/DX2                !
 ! A26   A(10,11,12)           111.5069         estimate D2E/DX2                !
 ! A27   A(10,11,22)           114.7569         estimate D2E/DX2                !
 ! A28   A(12,11,22)           112.6901         estimate D2E/DX2                !
 ! A29   A(11,12,13)           126.5487         estimate D2E/DX2                !
 ! A30   A(11,12,23)           103.3389         estimate D2E/DX2                !
 ! A31   A(11,12,24)            99.1286         estimate D2E/DX2                !
 ! A32   A(13,12,23)           112.9832         estimate D2E/DX2                !
 ! A33   A(13,12,24)           109.3395         estimate D2E/DX2                !
 ! A34   A(23,12,24)           102.3085         estimate D2E/DX2                !
 ! A35   A(12,13,14)           137.2806         estimate D2E/DX2                !
 ! A36   A(12,13,25)           104.6282         estimate D2E/DX2                !
 ! A37   A(12,13,26)           102.2518         estimate D2E/DX2                !
 ! A38   A(14,13,25)           102.7501         estimate D2E/DX2                !
 ! A39   A(14,13,26)           100.101          estimate D2E/DX2                !
 ! A40   A(25,13,26)           107.2967         estimate D2E/DX2                !
 ! A41   A(2,14,13)            119.2106         estimate D2E/DX2                !
 ! A42   A(2,14,15)            104.9511         estimate D2E/DX2                !
 ! A43   A(2,14,27)             99.8649         estimate D2E/DX2                !
 ! A44   A(13,14,15)           118.1242         estimate D2E/DX2                !
 ! A45   A(13,14,27)           114.2136         estimate D2E/DX2                !
 ! A46   A(15,14,27)            96.8243         estimate D2E/DX2                !
 ! A47   A(7,15,14)             93.74           estimate D2E/DX2                !
 ! D1    D(1,2,3,4)             87.3839         estimate D2E/DX2                !
 ! D2    D(1,2,3,16)           -88.4387         estimate D2E/DX2                !
 ! D3    D(14,2,3,4)           -92.0399         estimate D2E/DX2                !
 ! D4    D(14,2,3,16)           92.1375         estimate D2E/DX2                !
 ! D5    D(1,2,14,13)            7.0239         estimate D2E/DX2                !
 ! D6    D(1,2,14,15)         -128.0722         estimate D2E/DX2                !
 ! D7    D(1,2,14,27)          132.066          estimate D2E/DX2                !
 ! D8    D(3,2,14,13)         -173.5155         estimate D2E/DX2                !
 ! D9    D(3,2,14,15)           51.3884         estimate D2E/DX2                !
 ! D10   D(3,2,14,27)          -48.4734         estimate D2E/DX2                !
 ! D11   D(2,3,4,5)             -0.2926         estimate D2E/DX2                !
 ! D12   D(2,3,4,17)          -177.6183         estimate D2E/DX2                !
 ! D13   D(16,3,4,5)           175.5989         estimate D2E/DX2                !
 ! D14   D(16,3,4,17)           -1.7268         estimate D2E/DX2                !
 ! D15   D(3,4,5,6)             43.3367         estimate D2E/DX2                !
 ! D16   D(3,4,5,18)          -138.5766         estimate D2E/DX2                !
 ! D17   D(17,4,5,6)          -139.1679         estimate D2E/DX2                !
 ! D18   D(17,4,5,18)           38.9188         estimate D2E/DX2                !
 ! D19   D(4,5,6,7)            -13.4147         estimate D2E/DX2                !
 ! D20   D(4,5,6,19)           173.4492         estimate D2E/DX2                !
 ! D21   D(18,5,6,7)           168.493          estimate D2E/DX2                !
 ! D22   D(18,5,6,19)           -4.6431         estimate D2E/DX2                !
 ! D23   D(5,6,7,8)           -122.1882         estimate D2E/DX2                !
 ! D24   D(5,6,7,15)            51.3433         estimate D2E/DX2                !
 ! D25   D(19,6,7,8)            51.2462         estimate D2E/DX2                !
 ! D26   D(19,6,7,15)         -135.2223         estimate D2E/DX2                !
 ! D27   D(6,7,8,9)           -177.8191         estimate D2E/DX2                !
 ! D28   D(6,7,8,20)             8.8708         estimate D2E/DX2                !
 ! D29   D(15,7,8,9)             8.496          estimate D2E/DX2                !
 ! D30   D(15,7,8,20)         -164.8141         estimate D2E/DX2                !
 ! D31   D(6,7,15,14)         -105.1887         estimate D2E/DX2                !
 ! D32   D(8,7,15,14)           67.9965         estimate D2E/DX2                !
 ! D33   D(7,8,9,10)           175.375          estimate D2E/DX2                !
 ! D34   D(7,8,9,21)           -15.1858         estimate D2E/DX2                !
 ! D35   D(20,8,9,10)          -10.9576         estimate D2E/DX2                !
 ! D36   D(20,8,9,21)          158.4816         estimate D2E/DX2                !
 ! D37   D(8,9,10,11)          151.5163         estimate D2E/DX2                !
 ! D38   D(21,9,10,11)         -18.0534         estimate D2E/DX2                !
 ! D39   D(9,10,11,12)         -59.1978         estimate D2E/DX2                !
 ! D40   D(9,10,11,22)          70.467          estimate D2E/DX2                !
 ! D41   D(10,11,12,13)         75.3603         estimate D2E/DX2                !
 ! D42   D(10,11,12,23)        -57.1154         estimate D2E/DX2                !
 ! D43   D(10,11,12,24)       -162.1853         estimate D2E/DX2                !
 ! D44   D(22,11,12,13)        -55.3793         estimate D2E/DX2                !
 ! D45   D(22,11,12,23)        172.145          estimate D2E/DX2                !
 ! D46   D(22,11,12,24)         67.0751         estimate D2E/DX2                !
 ! D47   D(11,12,13,14)        -52.3287         estimate D2E/DX2                !
 ! D48   D(11,12,13,25)        179.4373         estimate D2E/DX2                !
 ! D49   D(11,12,13,26)         67.6526         estimate D2E/DX2                !
 ! D50   D(23,12,13,14)         76.4523         estimate D2E/DX2                !
 ! D51   D(23,12,13,25)        -51.7818         estimate D2E/DX2                !
 ! D52   D(23,12,13,26)       -163.5665         estimate D2E/DX2                !
 ! D53   D(24,12,13,14)       -170.328          estimate D2E/DX2                !
 ! D54   D(24,12,13,25)         61.438          estimate D2E/DX2                !
 ! D55   D(24,12,13,26)        -50.3467         estimate D2E/DX2                !
 ! D56   D(12,13,14,2)         -81.1145         estimate D2E/DX2                !
 ! D57   D(12,13,14,15)         48.2316         estimate D2E/DX2                !
 ! D58   D(12,13,14,27)        161.0676         estimate D2E/DX2                !
 ! D59   D(25,13,14,2)          47.6942         estimate D2E/DX2                !
 ! D60   D(25,13,14,15)        177.0403         estimate D2E/DX2                !
 ! D61   D(25,13,14,27)        -70.1237         estimate D2E/DX2                !
 ! D62   D(26,13,14,2)         158.1783         estimate D2E/DX2                !
 ! D63   D(26,13,14,15)        -72.4756         estimate D2E/DX2                !
 ! D64   D(26,13,14,27)         40.3604         estimate D2E/DX2                !
 ! D65   D(2,14,15,7)           49.1229         estimate D2E/DX2                !
 ! D66   D(13,14,15,7)         -86.5592         estimate D2E/DX2                !
 ! D67   D(27,14,15,7)         151.2776         estimate D2E/DX2                !
 --------------------------------------------------------------------------------
 Trust Radius=3.00D-01 FncErr=1.00D-07 GrdErr=1.00D-06 EigMax=2.50D+02 EigMin=1.00D-04
 Number of steps in this run=    152 maximum allowed number of steps=    162.
 GradGradGradGradGradGradGradGradGradGradGradGradGradGradGradGradGradGrad

                          Input orientation:                          
 ---------------------------------------------------------------------
 Center     Atomic      Atomic             Coordinates (Angstroms)
 Number     Number       Type             X           Y           Z
 ---------------------------------------------------------------------
      1         16           0        0.680230    0.070260    0.280390
      2          6           0        2.307830    0.231460   -0.026140
      3          6           0        3.380230   -0.667600    0.585910
      4          6           0        3.785600   -1.839910    0.053690
      5          6           0        3.338610   -2.495550   -1.135750
      6          6           0        3.073750   -2.007030   -2.372470
      7          6           0        2.904220   -0.690950   -2.869180
      8          6           0        1.719610   -0.445790   -3.475770
      9          6           0        1.522650    0.862870   -4.037750
     10          7           0        0.494800    1.247150   -4.723700
     11          7           0        0.391160    2.572320   -4.506480
     12          6           0        0.214100    2.878690   -3.047600
     13          6           0        1.462980    2.825320   -1.804600
     14         16           0        2.811770    1.536870   -1.158160
     15         16           0        4.035640    0.577590   -2.585340
     16          1           0        3.809610   -0.388860    1.549850
     17          1           0        4.537150   -2.441050    0.585120
     18          1           0        3.215660   -3.571310   -1.043030
     19          1           0        2.849650   -2.735020   -3.139460
     20          1           0        0.890090   -1.133040   -3.468100
     21          1           0        2.217260    1.654500   -3.728550
     22          1           0        1.126840    3.137890   -4.943020
     23          1           0       -0.690940    2.306120   -2.774840
     24          1           0       -0.176910    3.913270   -3.131250
     25          1           0        0.946970    3.121150   -0.879550
     26          1           0        2.116220    3.658590   -2.094750
     27          1           0        3.815610    2.097060   -0.435210
 ---------------------------------------------------------------------
                    Distance matrix (angstroms):
                    1          2          3          4          5
     1  S    0.000000
     2  C    1.664040   0.000000
     3  C    2.815631   1.527402   0.000000
     4  C    3.652871   2.545732   1.349775   0.000000
     5  C    3.956743   3.119347   2.511423   1.429836   0.000000
     6  C    4.133006   3.332077   3.261904   2.533952   1.355831
     7  C    3.930059   3.047851   3.487804   3.261918   2.539696
     8  C    3.931330   3.564354   4.393643   4.320761   3.506903
     9  C    4.470373   4.136206   5.212598   5.400541   4.795654
    10  N    5.143965   5.136708   6.339080   6.571359   5.913412
    11  N    5.409066   5.406172   6.735284   7.196190   6.762587
    12  C    4.379506   4.529984   5.983556   6.681227   6.503860
    13  C    3.542631   3.256501   4.646598   5.532827   5.681286
    14  S    2.960377   1.799867   2.867859   3.717468   4.066752
    15  S    4.441685   3.107191   3.469422   3.587660   3.468624
    16  H    3.408128   2.263600   1.091441   2.084375   3.445639
    17  H    4.612523   3.533527   2.117449   1.099370   2.097823
    18  H    4.630430   4.039713   3.333476   2.127292   1.086726
    19  H    4.926596   4.334320   4.293498   3.445785   2.076363
    20  H    3.942480   3.964711   4.780421   4.613746   3.645756
    21  H    4.576448   3.967504   5.035793   5.382930   5.020254
    22  H    6.074029   5.832476   7.080154   7.537547   7.150026
    23  H    4.026612   4.566420   6.059049   6.725292   6.479192
    24  H    5.209866   5.419536   6.888751   7.677526   7.577194
    25  H    3.274834   3.306139   4.735288   5.791448   6.110065
    26  H    4.536460   4.007628   5.244004   6.134829   6.347232
    27  H    3.801396   2.433352   2.979192   3.967324   4.670155
                    6          7          8          9         10
     6  C    0.000000
     7  C    1.416873   0.000000
     8  C    2.342741   1.353276   0.000000
     9  C    3.662703   2.385089   1.437778   0.000000
    10  N    4.771682   3.605660   2.433831   1.294092   0.000000
    11  N    5.720204   4.432285   3.454871   2.102902   1.346849
    12  C    5.701198   4.473355   3.674515   2.599275   2.355849
    13  C    5.125296   3.946474   3.682231   2.973505   3.456753
    14  S    3.755317   2.810573   3.239610   3.226166   4.262084
    15  S    2.766009   1.723331   2.684058   2.916504   4.190279
    16  H    4.306339   4.520931   5.443179   6.165897   7.281615
    17  H    3.328251   4.202559   5.330143   6.432264   7.624105
    18  H    2.057795   3.424659   4.233824   5.612182   6.645899
    19  H    1.080955   2.062584   2.575009   3.938612   4.890073
    20  H    2.594732   2.147293   1.077253   2.169859   2.719943
    21  H    3.997415   2.590669   2.173194   1.097618   2.030548
    22  H    6.071934   4.703181   3.917520   2.480301   2.005611
    23  H    5.739169   4.681507   3.724925   2.928804   2.515045
    24  H    6.796506   5.546250   4.766223   3.607657   3.177308
    25  H    5.748933   4.724570   4.478883   3.924979   4.300445
    26  H    5.752673   4.487670   4.348615   3.455955   3.918600
    27  H    4.598574   3.811541   4.483783   4.445130   5.490107
                   11         12         13         14         15
    11  N    0.000000
    12  C    1.501181   0.000000
    13  C    2.917698   1.762838   0.000000
    14  S    4.259431   3.481143   1.974138   0.000000
    15  S    4.577331   4.484742   3.504344   2.110668   0.000000
    16  H    7.558672   6.688880   5.204802   3.469501   4.252636
    17  H    8.261205   7.757902   6.549499   4.673308   4.406304
    18  H    7.597202   7.391222   6.675983   5.125416   4.501606
    19  H    6.006727   6.202282   5.884054   4.709143   3.561882
    20  H    3.880317   4.089958   4.331749   4.019589   3.687818
    21  H    2.186826   2.444378   2.375151   2.640868   2.402742
    22  H    1.025506   2.119645   3.171809   4.441556   4.535957
    23  H    2.059218   1.105139   2.418741   3.933748   5.036297
    24  H    2.003025   1.109163   2.373368   4.297973   5.400959
    25  H    3.710089   2.301375   1.099772   2.462731   4.349632
    26  H    3.157888   2.265883   1.097838   2.421298   3.662979
    27  H    5.341158   4.517344   2.817882   1.358000   2.642018
                   16         17         18         19         20
    16  H    0.000000
    17  H    2.381492   0.000000
    18  H    4.147745   2.382162   0.000000
    19  H    5.330630   4.099582   2.286561   0.000000
    20  H    5.852967   5.607185   4.151434   2.552297   0.000000
    21  H    5.879830   6.384604   5.959690   4.473794   3.098321
    22  H    7.860826   8.562425   8.036570   6.380594   4.524631
    23  H    6.798589   7.820350   7.266696   6.171047   3.848128
    24  H    7.504223   8.741347   8.478746   7.304786   5.168868
    25  H    5.139734   6.780319   7.068430   6.559124   4.980157
    26  H    5.703730   7.088597   7.388257   6.519784   5.133147
    27  H    3.181241   4.707030   5.732347   5.620947   5.309485
                   21         22         23         24         25
    21  H    0.000000
    22  H    2.205538   0.000000
    23  H    3.129185   2.949096   0.000000
    24  H    3.345274   2.362941   1.724583   0.000000
    25  H    3.446955   4.067483   2.634226   2.638316   0.000000
    26  H    2.587641   3.059844   3.189333   2.529356   1.769943
    27  H    3.687366   5.350996   5.081985   5.148540   3.078197
                   26         27
    26  H    0.000000
    27  H    2.842600   0.000000
 Stoichiometry    C10H12N2S3
 Framework group  C1[X(C10H12N2S3)]
 Deg. of freedom    75
 Full point group                 C1      NOp   1
 Largest Abelian subgroup         C1      NOp   1
 Largest concise Abelian subgroup C1      NOp   1
                         Standard orientation:                         
 ---------------------------------------------------------------------
 Center     Atomic      Atomic             Coordinates (Angstroms)
 Number     Number       Type             X           Y           Z
 ---------------------------------------------------------------------
      1         16           0       -0.933423    2.077700   -1.390807
      2          6           0       -1.359459    1.292493    0.013106
      3          6           0       -2.795964    0.921440    0.376050
      4          6           0       -3.404038   -0.224192    0.002327
      5          6           0       -2.892518   -1.305479   -0.780998
      6          6           0       -1.691678   -1.934166   -0.749154
      7          6           0       -0.456523   -1.614883   -0.132730
      8          6           0        0.603002   -1.516278   -0.968816
      9          6           0        1.885997   -1.241254   -0.381030
     10          7           0        3.015414   -1.196893   -1.011207
     11          7           0        3.784302   -0.338996   -0.313479
     12          6           0        3.155798    1.021828   -0.231723
     13          6           0        1.797086    1.491048    0.788733
     14         16           0       -0.035175    0.850608    1.149120
     15         16           0       -0.312418   -1.205855    1.535143
     16          1           0       -3.403738    1.648487    0.917582
     17          1           0       -4.455628   -0.389767    0.276841
     18          1           0       -3.591958   -1.711710   -1.506762
     19          1           0       -1.587791   -2.805235   -1.380747
     20          1           0        0.520633   -1.528366   -2.042848
     21          1           0        1.899048   -0.878124    0.654698
     22          1           0        4.095558   -0.686494    0.599772
     23          1           0        3.016613    1.302480   -1.291532
     24          1           0        4.050497    1.612024    0.053628
     25          1           0        1.643052    2.558333    0.572687
     26          1           0        2.227291    1.420754    1.796320
     27          1           0       -0.565562    1.306256    2.313267
 ---------------------------------------------------------------------
 Rotational constants (GHZ):           0.6956527           0.3855825           0.3295751
 Standard basis: 6-31G(2df,p) (6D, 7F)
 There are   537 symmetry adapted cartesian basis functions of A   symmetry.
 There are   492 symmetry adapted basis functions of A   symmetry.
   492 basis functions,   816 primitive gaussians,   537 cartesian basis functions
    67 alpha electrons       67 beta electrons
       nuclear repulsion energy      1399.3857126784 Hartrees.
 NAtoms=   27 NActive=   27 NUniq=   27 SFac= 1.00D+00 NAtFMM=   60 NAOKFM=F Big=F
 Integral buffers will be    131072 words long.
 Raffenetti 2 integral format.
 Two-electron integral symmetry is turned on.
 One-electron integrals computed using PRISM.
 PrsmSu:  requested number of processors reduced to:  12 ShMem   1 Linda.
 NBasis=   492 RedAO= T EigKep=  2.38D-04  NBF=   492
 NBsUse=   492 1.00D-06 EigRej= -1.00D+00 NBFU=   492
 ExpMin= 1.17D-01 ExpMax= 2.19D+04 ExpMxC= 3.30D+03 IAcc=3 IRadAn=         5 AccDes= 0.00D+00
 Harris functional with IExCor=  402 and IRadAn=       5 diagonalized for initial guess.
 HarFok:  IExCor=  402 AccDes= 0.00D+00 IRadAn=         5 IDoV= 1 UseB2=F ITyADJ=14
 ICtDFT=  3500011 ScaDFX=  1.000000  1.000000  1.000000  1.000000
 FoFCou: FMM=F IPFlag=           0 FMFlag=      100000 FMFlg1=           0
         NFxFlg=           0 DoJE=T BraDBF=F KetDBF=T FulRan=T
         wScrn=  0.000000 ICntrl=       500 IOpCl=  0 I1Cent=   200000004 NGrid=           0
         NMat0=    1 NMatS0=      1 NMatT0=    0 NMatD0=    1 NMtDS0=    0 NMtDT0=    0
 Petite list used in FoFCou.
 Requested convergence on RMS density matrix=1.00D-08 within 128 cycles.
 Requested convergence on MAX density matrix=1.00D-06.
 Requested convergence on             energy=1.00D-06.
 No special actions if energy rises.
 Integral accuracy reduced to 1.0D-05 until final iterations.
 EnCoef did     5 forward-backward iterations
 EnCoef did     4 forward-backward iterations
 EnCoef did     6 forward-backward iterations
 EnCoef did     4 forward-backward iterations
 EnCoef did     3 forward-backward iterations
 EnCoef did     2 forward-backward iterations
 Initial convergence to 1.0D-05 achieved.  Increase integral accuracy.
 SCF Done:  E(RB3LYP) =  -1691.98733193     A.U. after   29 cycles
            NFock= 29  Conv=0.41D-08     -V/T= 2.0042

 **********************************************************************

            Population analysis using the SCF density.

 **********************************************************************

 Orbital symmetries:
       Occupied  (A) (A) (A) (A) (A) (A) (A) (A) (A) (A) (A) (A)
                 (A) (A) (A) (A) (A) (A) (A) (A) (A) (A) (A) (A)
                 (A) (A) (A) (A) (A) (A) (A) (A) (A) (A) (A) (A)
                 (A) (A) (A) (A) (A) (A) (A) (A) (A) (A) (A) (A)
                 (A) (A) (A) (A) (A) (A) (A) (A) (A) (A) (A) (A)
                 (A) (A) (A) (A) (A) (A) (A)
       Virtual   (A) (A) (A) (A) (A) (A) (A) (A) (A) (A) (A) (A)
                 (A) (A) (A) (A) (A) (A) (A) (A) (A) (A) (A) (A)
                 (A) (A) (A) (A) (A) (A) (A) (A) (A) (A) (A) (A)
                 (A) (A) (A) (A) (A) (A) (A) (A) (A) (A) (A) (A)
                 (A) (A) (A) (A) (A) (A) (A) (A) (A) (A) (A) (A)
                 (A) (A) (A) (A) (A) (A) (A) (A) (A) (A) (A) (A)
                 (A) (A) (A) (A) (A) (A) (A) (A) (A) (A) (A) (A)
                 (A) (A) (A) (A) (A) (A) (A) (A) (A) (A) (A) (A)
                 (A) (A) (A) (A) (A) (A) (A) (A) (A) (A) (A) (A)
                 (A) (A) (A) (A) (A) (A) (A) (A) (A) (A) (A) (A)
                 (A) (A) (A) (A) (A) (A) (A) (A) (A) (A) (A) (A)
                 (A) (A) (A) (A) (A) (A) (A) (A) (A) (A) (A) (A)
                 (A) (A) (A) (A) (A) (A) (A) (A) (A) (A) (A) (A)
                 (A) (A) (A) (A) (A) (A) (A) (A) (A) (A) (A) (A)
                 (A) (A) (A) (A) (A) (A) (A) (A) (A) (A) (A) (A)
                 (A) (A) (A) (A) (A) (A) (A) (A) (A) (A) (A) (A)
                 (A) (A) (A) (A) (A) (A) (A) (A) (A) (A) (A) (A)
                 (A) (A) (A) (A) (A) (A) (A) (A) (A) (A) (A) (A)
                 (A) (A) (A) (A) (A) (A) (A) (A) (A) (A) (A) (A)
                 (A) (A) (A) (A) (A) (A) (A) (A) (A) (A) (A) (A)
                 (A) (A) (A) (A) (A) (A) (A) (A) (A) (A) (A) (A)
                 (A) (A) (A) (A) (A) (A) (A) (A) (A) (A) (A) (A)
                 (A) (A) (A) (A) (A) (A) (A) (A) (A) (A) (A) (A)
                 (A) (A) (A) (A) (A) (A) (A) (A) (A) (A) (A) (A)
                 (A) (A) (A) (A) (A) (A) (A) (A) (A) (A) (A) (A)
                 (A) (A) (A) (A) (A) (A) (A) (A) (A) (A) (A) (A)
                 (A) (A) (A) (A) (A) (A) (A) (A) (A) (A) (A) (A)
                 (A) (A) (A) (A) (A) (A) (A) (A) (A) (A) (A) (A)
                 (A) (A) (A) (A) (A) (A) (A) (A) (A) (A) (A) (A)
                 (A) (A) (A) (A) (A) (A) (A) (A) (A) (A) (A) (A)
                 (A) (A) (A) (A) (A) (A) (A) (A) (A) (A) (A) (A)
                 (A) (A) (A) (A) (A) (A) (A) (A) (A) (A) (A) (A)
                 (A) (A) (A) (A) (A) (A) (A) (A) (A) (A) (A) (A)
                 (A) (A) (A) (A) (A) (A) (A) (A) (A) (A) (A) (A)
                 (A) (A) (A) (A) (A) (A) (A) (A) (A) (A) (A) (A)
                 (A) (A) (A) (A) (A)
 The electronic state is 1-A.
 Alpha  occ. eigenvalues --  -89.01401 -88.86263 -88.82656 -14.36101 -14.33202
 Alpha  occ. eigenvalues --  -10.27784 -10.26092 -10.26024 -10.22123 -10.21647
 Alpha  occ. eigenvalues --  -10.21605 -10.20562 -10.19753 -10.19669 -10.19156
 Alpha  occ. eigenvalues --   -8.06682  -7.93040  -7.89121  -6.02988  -6.02858
 Alpha  occ. eigenvalues --   -6.02647  -5.89346  -5.89111  -5.88693  -5.85530
 Alpha  occ. eigenvalues --   -5.85137  -5.84810  -1.01390  -0.89657  -0.84861
 Alpha  occ. eigenvalues --   -0.82067  -0.80449  -0.75696  -0.75053  -0.73133
 Alpha  occ. eigenvalues --   -0.68434  -0.66982  -0.64840  -0.60286  -0.56891
 Alpha  occ. eigenvalues --   -0.55307  -0.53243  -0.51606  -0.50012  -0.48938
 Alpha  occ. eigenvalues --   -0.47867  -0.47396  -0.45635  -0.45160  -0.44078
 Alpha  occ. eigenvalues --   -0.42040  -0.40879  -0.39843  -0.38674  -0.38248
 Alpha  occ. eigenvalues --   -0.37083  -0.34702  -0.32900  -0.31665  -0.30380
 Alpha  occ. eigenvalues --   -0.28257  -0.27114  -0.24826  -0.22882  -0.21246
 Alpha  occ. eigenvalues --   -0.20633  -0.14112
 Alpha virt. eigenvalues --   -0.09249  -0.08822  -0.04643  -0.02489  -0.01312
 Alpha virt. eigenvalues --    0.01223   0.03602   0.06197   0.06645   0.07719
 Alpha virt. eigenvalues --    0.09186   0.10355   0.10939   0.11467   0.12011
 Alpha virt. eigenvalues --    0.13520   0.14129   0.15062   0.15716   0.17079
 Alpha virt. eigenvalues --    0.17960   0.18746   0.19935   0.21490   0.22207
 Alpha virt. eigenvalues --    0.23645   0.24387   0.26222   0.27100   0.28424
 Alpha virt. eigenvalues --    0.28750   0.29424   0.30113   0.31988   0.33138
 Alpha virt. eigenvalues --    0.33959   0.35566   0.36061   0.36398   0.37305
 Alpha virt. eigenvalues --    0.38725   0.39616   0.40758   0.41470   0.41898
 Alpha virt. eigenvalues --    0.43636   0.44549   0.45506   0.46650   0.47152
 Alpha virt. eigenvalues --    0.47480   0.48407   0.49124   0.50502   0.50900
 Alpha virt. eigenvalues --    0.51502   0.52031   0.53117   0.53969   0.54625
 Alpha virt. eigenvalues --    0.55160   0.56167   0.56818   0.57205   0.58936
 Alpha virt. eigenvalues --    0.59611   0.60055   0.60552   0.60760   0.62024
 Alpha virt. eigenvalues --    0.63716   0.64501   0.64788   0.66366   0.66520
 Alpha virt. eigenvalues --    0.67596   0.69086   0.70135   0.70203   0.71408
 Alpha virt. eigenvalues --    0.72210   0.73142   0.73677   0.74802   0.75674
 Alpha virt. eigenvalues --    0.75782   0.76782   0.76873   0.77662   0.78285
 Alpha virt. eigenvalues --    0.78381   0.79324   0.80233   0.80388   0.81560
 Alpha virt. eigenvalues --    0.82166   0.83205   0.83980   0.86231   0.87204
 Alpha virt. eigenvalues --    0.88251   0.89349   0.89614   0.90607   0.91653
 Alpha virt. eigenvalues --    0.93042   0.93744   0.94321   0.94697   0.95592
 Alpha virt. eigenvalues --    0.97041   0.98960   0.99512   0.99695   1.01861
 Alpha virt. eigenvalues --    1.04393   1.05058   1.05924   1.08929   1.09730
 Alpha virt. eigenvalues --    1.11352   1.12646   1.13942   1.17231   1.18487
 Alpha virt. eigenvalues --    1.19678   1.21125   1.23481   1.24334   1.24642
 Alpha virt. eigenvalues --    1.25600   1.26449   1.27350   1.30597   1.31899
 Alpha virt. eigenvalues --    1.32725   1.34142   1.36457   1.36953   1.37984
 Alpha virt. eigenvalues --    1.40119   1.40788   1.42163   1.42315   1.44961
 Alpha virt. eigenvalues --    1.46763   1.47467   1.49681   1.50204   1.50763
 Alpha virt. eigenvalues --    1.51734   1.52884   1.53863   1.55374   1.55716
 Alpha virt. eigenvalues --    1.58125   1.59257   1.60693   1.61992   1.62237
 Alpha virt. eigenvalues --    1.63019   1.65083   1.66793   1.67497   1.69019
 Alpha virt. eigenvalues --    1.69433   1.69942   1.70273   1.72949   1.73277
 Alpha virt. eigenvalues --    1.74426   1.74927   1.76027   1.76572   1.78579
 Alpha virt. eigenvalues --    1.80013   1.80611   1.81743   1.84298   1.85213
 Alpha virt. eigenvalues --    1.86460   1.87321   1.88299   1.89880   1.91253
 Alpha virt. eigenvalues --    1.92533   1.94546   1.95239   1.97242   1.97347
 Alpha virt. eigenvalues --    1.98836   1.99813   2.02292   2.03818   2.05258
 Alpha virt. eigenvalues --    2.08481   2.09391   2.10775   2.13031   2.13314
 Alpha virt. eigenvalues --    2.15992   2.16276   2.17040   2.18211   2.19903
 Alpha virt. eigenvalues --    2.21365   2.22499   2.23693   2.25524   2.26489
 Alpha virt. eigenvalues --    2.28282   2.28837   2.32095   2.32356   2.35106
 Alpha virt. eigenvalues --    2.36115   2.37451   2.39851   2.41209   2.42355
 Alpha virt. eigenvalues --    2.44234   2.44941   2.45737   2.48181   2.49168
 Alpha virt. eigenvalues --    2.50669   2.53085   2.54767   2.55799   2.57225
 Alpha virt. eigenvalues --    2.59121   2.60444   2.61951   2.62148   2.64570
 Alpha virt. eigenvalues --    2.66860   2.67418   2.69294   2.70642   2.74785
 Alpha virt. eigenvalues --    2.75179   2.76704   2.78365   2.80235   2.81382
 Alpha virt. eigenvalues --    2.84322   2.84457   2.85197   2.85806   2.87175
 Alpha virt. eigenvalues --    2.87836   2.90153   2.91152   2.91290   2.93593
 Alpha virt. eigenvalues --    2.96245   2.97764   3.00090   3.01097   3.04662
 Alpha virt. eigenvalues --    3.05915   3.07232   3.08698   3.09859   3.10551
 Alpha virt. eigenvalues --    3.12986   3.14192   3.16081   3.17124   3.18081
 Alpha virt. eigenvalues --    3.19426   3.20108   3.21706   3.22871   3.24052
 Alpha virt. eigenvalues --    3.24741   3.26233   3.26764   3.28247   3.28847
 Alpha virt. eigenvalues --    3.29334   3.31558   3.34109   3.35309   3.35614
 Alpha virt. eigenvalues --    3.37130   3.39161   3.39859   3.41070   3.42817
 Alpha virt. eigenvalues --    3.43848   3.44861   3.46727   3.47357   3.48662
 Alpha virt. eigenvalues --    3.51366   3.51840   3.52914   3.53611   3.56348
 Alpha virt. eigenvalues --    3.56715   3.57276   3.61565   3.63123   3.64458
 Alpha virt. eigenvalues --    3.65646   3.68104   3.69649   3.72012   3.73876
 Alpha virt. eigenvalues --    3.74554   3.75243   3.77905   3.78502   3.81064
 Alpha virt. eigenvalues --    3.83006   3.88607   3.88802   3.91152   3.92995
 Alpha virt. eigenvalues --    3.96421   3.97856   4.01068   4.02455   4.02654
 Alpha virt. eigenvalues --    4.03243   4.05834   4.07901   4.10126   4.14881
 Alpha virt. eigenvalues --    4.19436   4.21102   4.22018   4.23842   4.25731
 Alpha virt. eigenvalues --    4.27140   4.30410   4.32354   4.33151   4.34624
 Alpha virt. eigenvalues --    4.36626   4.38827   4.39447   4.40107   4.41654
 Alpha virt. eigenvalues --    4.42176   4.43814   4.46354   4.48379   4.49437
 Alpha virt. eigenvalues --    4.51161   4.52016   4.53698   4.54372   4.56287
 Alpha virt. eigenvalues --    4.58248   4.58924   4.60302   4.61222   4.61729
 Alpha virt. eigenvalues --    4.64199   4.66666   4.66864   4.68039   4.69011
 Alpha virt. eigenvalues --    4.69523   4.73092   4.73326   4.74389   4.75565
 Alpha virt. eigenvalues --    4.79691   4.80166   4.81771   4.84120   4.86945
 Alpha virt. eigenvalues --    4.88411   4.88508   4.90248   4.91027   4.92983
 Alpha virt. eigenvalues --    4.95339   4.96407   4.97778   4.99528   5.02530
 Alpha virt. eigenvalues --    5.07712   5.10470   5.10889   5.13530   5.15831
 Alpha virt. eigenvalues --    5.19369   5.21075   5.23795   5.24879   5.32968
 Alpha virt. eigenvalues --    5.34902   5.37384   5.40400   5.43757   5.46474
 Alpha virt. eigenvalues --    5.50683   5.55331   5.59687   5.60675   5.67558
 Alpha virt. eigenvalues --    5.73108   5.80927   5.84996   5.93639   6.16379
 Alpha virt. eigenvalues --    6.62879  10.19115  10.54056  10.71797  10.83910
 Alpha virt. eigenvalues --   11.24960  11.35890  11.40391  11.64403  11.74743
 Alpha virt. eigenvalues --   11.90571  12.02903  12.28687  12.63197  15.54469
          Condensed to atoms (all electrons):
               1          2          3          4          5          6
     1  S   16.114469   0.455881  -0.031310  -0.007286  -0.000636   0.000591
     2  C    0.455881   4.859473   0.390844  -0.017507  -0.007883   0.000197
     3  C   -0.031310   0.390844   4.947492   0.612330   0.004359  -0.018352
     4  C   -0.007286  -0.017507   0.612330   4.753728   0.422563   0.002454
     5  C   -0.000636  -0.007883   0.004359   0.422563   4.777056   0.605910
     6  C    0.000591   0.000197  -0.018352   0.002454   0.605910   4.866715
     7  C    0.004446  -0.005885  -0.002210  -0.016963   0.000455   0.393348
     8  C   -0.007009   0.007130  -0.000231   0.000719  -0.001500  -0.020892
     9  C   -0.001008  -0.000274   0.000008  -0.000014  -0.000027   0.003429
    10  N    0.000141  -0.000024   0.000000  -0.000000   0.000003  -0.000173
    11  N   -0.000015  -0.000004  -0.000000   0.000000   0.000000   0.000007
    12  C   -0.000933  -0.000015  -0.000002   0.000000  -0.000000  -0.000000
    13  C    0.003120  -0.011255   0.000597   0.000026  -0.000015   0.000101
    14  S   -0.154766   0.350102  -0.045527  -0.005739   0.005086  -0.005282
    15  S    0.008686  -0.070144  -0.004357   0.009394  -0.012295  -0.045083
    16  H    0.003691  -0.053711   0.365434  -0.039069   0.005140   0.000213
    17  H   -0.000412   0.004969  -0.045275   0.365174  -0.049416   0.004204
    18  H    0.000111   0.000132   0.004980  -0.054790   0.365624  -0.035068
    19  H    0.000151  -0.000151   0.000002   0.006777  -0.042463   0.371853
    20  H    0.001111  -0.000077  -0.000028   0.000021   0.000725  -0.008310
    21  H    0.000158  -0.000388  -0.000000   0.000005   0.000007   0.000885
    22  H    0.000001  -0.000002  -0.000000   0.000000   0.000000   0.000001
    23  H    0.001625   0.000034  -0.000000   0.000000   0.000000   0.000001
    24  H    0.000074  -0.000005   0.000000  -0.000000   0.000000  -0.000000
    25  H    0.010136  -0.001048   0.000006  -0.000002   0.000001   0.000000
    26  H    0.000700   0.001049  -0.000003  -0.000001   0.000000  -0.000001
    27  H    0.006856  -0.014847   0.003328  -0.000509  -0.000011  -0.000112
               7          8          9         10         11         12
     1  S    0.004446  -0.007009  -0.001008   0.000141  -0.000015  -0.000933
     2  C   -0.005885   0.007130  -0.000274  -0.000024  -0.000004  -0.000015
     3  C   -0.002210  -0.000231   0.000008   0.000000  -0.000000  -0.000002
     4  C   -0.016963   0.000719  -0.000014  -0.000000   0.000000   0.000000
     5  C    0.000455  -0.001500  -0.000027   0.000003   0.000000  -0.000000
     6  C    0.393348  -0.020892   0.003429  -0.000173   0.000007  -0.000000
     7  C    4.713399   0.538038  -0.007110  -0.001149  -0.000089   0.000378
     8  C    0.538038   5.006113   0.438659  -0.022728   0.009502   0.001547
     9  C   -0.007110   0.438659   4.712867   0.622662  -0.152925  -0.018212
    10  N   -0.001149  -0.022728   0.622662   6.483927   0.360951  -0.093724
    11  N   -0.000089   0.009502  -0.152925   0.360951   6.409391   0.398591
    12  C    0.000378   0.001547  -0.018212  -0.093724   0.398591   5.027004
    13  C    0.000319  -0.007756   0.005836   0.007463  -0.039785   0.250065
    14  S   -0.035255   0.032598   0.014243  -0.000750   0.001258  -0.005334
    15  S    0.340928  -0.074168  -0.055334   0.000745  -0.000226   0.000051
    16  H   -0.000186   0.000006   0.000000  -0.000000   0.000000   0.000000
    17  H    0.000146  -0.000004   0.000000   0.000000   0.000000  -0.000000
    18  H    0.006166  -0.000110   0.000004  -0.000000   0.000000   0.000000
    19  H   -0.062060  -0.006881   0.000191  -0.000006   0.000000   0.000000
    20  H   -0.039677   0.361373  -0.030896  -0.002571  -0.000015   0.000002
    21  H   -0.006720  -0.062220   0.368926  -0.081163  -0.003719   0.002825
    22  H    0.000120  -0.000636  -0.000174  -0.053494   0.318725  -0.047681
    23  H    0.000016  -0.000071   0.004800  -0.000066  -0.029827   0.369203
    24  H   -0.000003  -0.000064   0.000570   0.005372  -0.025590   0.337811
    25  H   -0.000060   0.000093   0.000530  -0.000160   0.001210  -0.015914
    26  H   -0.000012   0.000307  -0.000825  -0.000296   0.001056  -0.023343
    27  H    0.001192   0.000542   0.000197  -0.000003  -0.000014   0.000165
              13         14         15         16         17         18
     1  S    0.003120  -0.154766   0.008686   0.003691  -0.000412   0.000111
     2  C   -0.011255   0.350102  -0.070144  -0.053711   0.004969   0.000132
     3  C    0.000597  -0.045527  -0.004357   0.365434  -0.045275   0.004980
     4  C    0.000026  -0.005739   0.009394  -0.039069   0.365174  -0.054790
     5  C   -0.000015   0.005086  -0.012295   0.005140  -0.049416   0.365624
     6  C    0.000101  -0.005282  -0.045083   0.000213   0.004204  -0.035068
     7  C    0.000319  -0.035255   0.340928  -0.000186   0.000146   0.006166
     8  C   -0.007756   0.032598  -0.074168   0.000006  -0.000004  -0.000110
     9  C    0.005836   0.014243  -0.055334   0.000000   0.000000   0.000004
    10  N    0.007463  -0.000750   0.000745  -0.000000   0.000000  -0.000000
    11  N   -0.039785   0.001258  -0.000226   0.000000   0.000000   0.000000
    12  C    0.250065  -0.005334   0.000051   0.000000  -0.000000   0.000000
    13  C    5.341718   0.151712   0.013302  -0.000019   0.000000  -0.000000
    14  S    0.151712  15.926682  -0.522747   0.000273   0.000016  -0.000090
    15  S    0.013302  -0.522747  16.755296  -0.001807  -0.000208  -0.000282
    16  H   -0.000019   0.000273  -0.001807   0.608399  -0.007822  -0.000229
    17  H    0.000000   0.000016  -0.000208  -0.007822   0.627955  -0.006330
    18  H   -0.000000  -0.000090  -0.000282  -0.000229  -0.006330   0.628242
    19  H    0.000002  -0.000141   0.005095   0.000005  -0.000204  -0.013439
    20  H   -0.000050  -0.001560   0.009594  -0.000000   0.000000  -0.000059
    21  H   -0.003747  -0.032097   0.028972  -0.000000  -0.000000   0.000000
    22  H   -0.005361  -0.000383  -0.000066  -0.000000   0.000000  -0.000000
    23  H   -0.035565  -0.000645   0.000030  -0.000000   0.000000  -0.000000
    24  H   -0.022191   0.000804  -0.000042  -0.000000   0.000000  -0.000000
    25  H    0.339753  -0.031033  -0.001155   0.000003   0.000000  -0.000000
    26  H    0.327931  -0.020631  -0.001702   0.000001  -0.000000  -0.000000
    27  H   -0.015413   0.259184  -0.077133   0.001939   0.000021  -0.000000
              19         20         21         22         23         24
     1  S    0.000151   0.001111   0.000158   0.000001   0.001625   0.000074
     2  C   -0.000151  -0.000077  -0.000388  -0.000002   0.000034  -0.000005
     3  C    0.000002  -0.000028  -0.000000  -0.000000  -0.000000   0.000000
     4  C    0.006777   0.000021   0.000005   0.000000   0.000000  -0.000000
     5  C   -0.042463   0.000725   0.000007   0.000000   0.000000   0.000000
     6  C    0.371853  -0.008310   0.000885   0.000001   0.000001  -0.000000
     7  C   -0.062060  -0.039677  -0.006720   0.000120   0.000016  -0.000003
     8  C   -0.006881   0.361373  -0.062220  -0.000636  -0.000071  -0.000064
     9  C    0.000191  -0.030896   0.368926  -0.000174   0.004800   0.000570
    10  N   -0.000006  -0.002571  -0.081163  -0.053494  -0.000066   0.005372
    11  N    0.000000  -0.000015  -0.003719   0.318725  -0.029827  -0.025590
    12  C    0.000000   0.000002   0.002825  -0.047681   0.369203   0.337811
    13  C    0.000002  -0.000050  -0.003747  -0.005361  -0.035565  -0.022191
    14  S   -0.000141  -0.001560  -0.032097  -0.000383  -0.000645   0.000804
    15  S    0.005095   0.009594   0.028972  -0.000066   0.000030  -0.000042
    16  H    0.000005  -0.000000  -0.000000  -0.000000  -0.000000  -0.000000
    17  H   -0.000204   0.000000  -0.000000   0.000000   0.000000   0.000000
    18  H   -0.013439  -0.000059   0.000000  -0.000000  -0.000000  -0.000000
    19  H    0.626101   0.002287  -0.000024  -0.000000  -0.000000  -0.000000
    20  H    0.002287   0.574693   0.005479   0.000033   0.000137  -0.000000
    21  H   -0.000024   0.005479   0.666680   0.017463   0.001813   0.000312
    22  H   -0.000000   0.000033   0.017463   0.536591   0.006501   0.002143
    23  H   -0.000000   0.000137   0.001813   0.006501   0.531217  -0.029589
    24  H   -0.000000  -0.000000   0.000312   0.002143  -0.029589   0.590988
    25  H   -0.000000   0.000006   0.000423   0.000065   0.000317   0.000337
    26  H   -0.000000   0.000001   0.001603   0.001440   0.002773  -0.001729
    27  H    0.000002   0.000001  -0.000473  -0.000007  -0.000009  -0.000008
              25         26         27
     1  S    0.010136   0.000700   0.006856
     2  C   -0.001048   0.001049  -0.014847
     3  C    0.000006  -0.000003   0.003328
     4  C   -0.000002  -0.000001  -0.000509
     5  C    0.000001   0.000000  -0.000011
     6  C    0.000000  -0.000001  -0.000112
     7  C   -0.000060  -0.000012   0.001192
     8  C    0.000093   0.000307   0.000542
     9  C    0.000530  -0.000825   0.000197
    10  N   -0.000160  -0.000296  -0.000003
    11  N    0.001210   0.001056  -0.000014
    12  C   -0.015914  -0.023343   0.000165
    13  C    0.339753   0.327931  -0.015413
    14  S   -0.031033  -0.020631   0.259184
    15  S   -0.001155  -0.001702  -0.077133
    16  H    0.000003   0.000001   0.001939
    17  H    0.000000  -0.000000   0.000021
    18  H   -0.000000  -0.000000  -0.000000
    19  H   -0.000000  -0.000000   0.000002
    20  H    0.000006   0.000001   0.000001
    21  H    0.000423   0.001603  -0.000473
    22  H    0.000065   0.001440  -0.000007
    23  H    0.000317   0.002773  -0.000009
    24  H    0.000337  -0.001729  -0.000008
    25  H    0.529411  -0.021497   0.001262
    26  H   -0.021497   0.574224  -0.000105
    27  H    0.001262  -0.000105   0.628932
 Mulliken charges:
               1
     1  S   -0.408574
     2  C    0.113407
     3  C   -0.182083
     4  C   -0.031309
     5  C   -0.072684
     6  C   -0.116638
     7  C    0.178428
     8  C   -0.192357
     9  C    0.093875
    10  N   -0.224958
    11  N   -0.248481
    12  C   -0.182485
    13  C   -0.300789
    14  S    0.120022
    15  S   -0.305343
    16  H    0.117738
    17  H    0.107182
    18  H    0.105138
    19  H    0.112903
    20  H    0.127777
    21  H    0.095000
    22  H    0.224720
    23  H    0.177304
    24  H    0.140810
    25  H    0.187315
    26  H    0.159060
    27  H    0.205022
 Sum of Mulliken charges =  -0.00000
 Mulliken charges with hydrogens summed into heavy atoms:
               1
     1  S   -0.408574
     2  C    0.113407
     3  C   -0.064345
     4  C    0.075873
     5  C    0.032453
     6  C   -0.003735
     7  C    0.178428
     8  C   -0.064580
     9  C    0.188875
    10  N   -0.224958
    11  N   -0.023761
    12  C    0.135630
    13  C    0.045586
    14  S    0.325044
    15  S   -0.305343
 Electronic spatial extent (au):  <R**2>=           3704.2941
 Charge=             -0.0000 electrons
 Dipole moment (field-independent basis, Debye):
    X=              0.0890    Y=              1.4208    Z=              4.8057  Tot=              5.0121
 Quadrupole moment (field-independent basis, Debye-Ang):
   XX=           -104.2307   YY=           -114.3504   ZZ=           -109.7536
   XY=             10.8093   XZ=              7.1846   YZ=             12.1028
 Traceless Quadrupole moment (field-independent basis, Debye-Ang):
   XX=              5.2142   YY=             -4.9055   ZZ=             -0.3087
   XY=             10.8093   XZ=              7.1846   YZ=             12.1028
 Octapole moment (field-independent basis, Debye-Ang**2):
  XXX=            -30.5621  YYY=             -4.8678  ZZZ=             16.9162  XYY=             10.9645
  XXY=             17.5329  XXZ=             38.5771  XZZ=              4.4414  YZZ=              9.2528
  YYZ=              8.5453  XYZ=            -24.4769
 Hexadecapole moment (field-independent basis, Debye-Ang**3):
 XXXX=          -2813.8515 YYYY=          -1411.5865 ZZZZ=           -755.4715 XXXY=             89.2580
 XXXZ=            120.8180 YYYX=             42.2244 YYYZ=             53.5336 ZZZX=              4.3351
 ZZZY=             46.7726 XXYY=           -704.6272 XXZZ=           -633.7287 YYZZ=           -362.1613
 XXYZ=              0.9152 YYXZ=              7.8209 ZZXY=             22.4037
 N-N= 1.399385712678D+03 E-N=-6.791748005662D+03  KE= 1.684904149850D+03
 PrsmSu:  requested number of processors reduced to:  13 ShMem   1 Linda.
 Calling FoFJK, ICntrl=      2127 FMM=F ISym2X=0 I1Cent= 0 IOpClX= 0 NMat=1 NMatS=1 NMatT=0.
 ***** Axes restored to original set *****
 -------------------------------------------------------------------
 Center     Atomic                   Forces (Hartrees/Bohr)
 Number     Number              X              Y              Z
 -------------------------------------------------------------------
      1       16          -0.007994621   -0.005489751    0.002893592
      2        6          -0.012989785    0.021050066    0.010551968
      3        6          -0.000473477    0.007839567   -0.019556686
      4        6           0.001121482    0.010602692    0.017089067
      5        6          -0.003243820   -0.002404550   -0.030559915
      6        6           0.006319156   -0.032642801    0.026647518
      7        6           0.008899111    0.011808910   -0.003193344
      8        6           0.000745960    0.032672515   -0.025129767
      9        6          -0.010915199   -0.023437395   -0.000292017
     10        7           0.014915720   -0.063494452    0.004543269
     11        7          -0.014862913    0.080880058    0.037175739
     12        6          -0.008884346   -0.002522570   -0.031240205
     13        6          -0.024461323    0.029603484    0.005305598
     14       16          -0.062685493   -0.013891095    0.063141809
     15       16           0.081506240   -0.040635740   -0.062821059
     16        1          -0.001397450    0.007136813   -0.003879738
     17        1          -0.007259570    0.005858117    0.005386587
     18        1           0.007477071   -0.002544831   -0.000096608
     19        1          -0.006310165   -0.007619632    0.000446840
     20        1           0.000881729   -0.007257146   -0.005723829
     21        1           0.001229931   -0.009792910   -0.004530719
     22        1          -0.001765740   -0.001169890    0.001430813
     23        1           0.016662082   -0.005345462    0.008482880
     24        1           0.017504114    0.002472471    0.019569566
     25        1          -0.000526562   -0.002348453   -0.003202119
     26        1           0.005287566   -0.004822349    0.002582895
     27        1           0.001220302    0.015494334   -0.015022136
 -------------------------------------------------------------------
 Cartesian Forces:  Max     0.081506240 RMS     0.023449907

 GradGradGradGradGradGradGradGradGradGradGradGradGradGradGradGradGradGrad
 Berny optimization.
 FormGI is forming the generalized inverse of G from B-inverse, IUseBI=4.
 Internal  Forces:  Max     0.103438550 RMS     0.016304147
 Search for a local minimum.
 Step number   1 out of a maximum of  152
 All quantities printed in internal units (Hartrees-Bohrs-Radians)
 Mixed Optimization -- RFO/linear search
 Second derivative matrix not updated -- first step.
 ITU=  0
     Eigenvalues ---    0.00301   0.00386   0.00550   0.01198   0.01441
     Eigenvalues ---    0.01640   0.01850   0.01900   0.02052   0.02096
     Eigenvalues ---    0.02187   0.02261   0.02312   0.02381   0.02492
     Eigenvalues ---    0.02624   0.02885   0.03336   0.04046   0.04217
     Eigenvalues ---    0.04631   0.04970   0.05458   0.07136   0.09151
     Eigenvalues ---    0.09943   0.10827   0.11695   0.12240   0.13097
     Eigenvalues ---    0.14338   0.15237   0.15816   0.15925   0.15932
     Eigenvalues ---    0.15956   0.15991   0.15996   0.16082   0.17568
     Eigenvalues ---    0.18139   0.18955   0.19965   0.20841   0.22264
     Eigenvalues ---    0.22392   0.23261   0.23858   0.24333   0.24999
     Eigenvalues ---    0.25033   0.25693   0.29067   0.31722   0.31934
     Eigenvalues ---    0.32689   0.33120   0.33707   0.33752   0.33922
     Eigenvalues ---    0.33947   0.34647   0.35194   0.35879   0.36328
     Eigenvalues ---    0.39153   0.39935   0.40591   0.41767   0.43471
     Eigenvalues ---    0.52315   0.53041   0.53579   0.54829   0.67388
 RFO step:  Lambda=-1.13967968D-01 EMin= 3.01012725D-03
 Linear search not attempted -- first point.
 Maximum step size (   0.300) exceeded in Quadratic search.
    -- Step size scaled by   0.589
 Iteration  1 RMS(Cart)=  0.08634264 RMS(Int)=  0.00163576
 Iteration  2 RMS(Cart)=  0.00301166 RMS(Int)=  0.00053073
 Iteration  3 RMS(Cart)=  0.00000220 RMS(Int)=  0.00053073
 Iteration  4 RMS(Cart)=  0.00000000 RMS(Int)=  0.00053073
 Variable       Old X    -DE/DX   Delta X   Delta X   Delta X     New X
                                 (Linear)    (Quad)   (Total)
    R1        3.14458   0.00888   0.00000   0.01006   0.01006   3.15464
    R2        2.88637  -0.01770   0.00000  -0.03191  -0.03217   2.85420
    R3        3.40126  -0.02424   0.00000  -0.03912  -0.03903   3.36223
    R4        2.55071   0.00120   0.00000  -0.00105  -0.00068   2.55002
    R5        2.06252  -0.00215   0.00000  -0.00275  -0.00275   2.05977
    R6        2.70200   0.02399   0.00000   0.02865   0.02934   2.73134
    R7        2.07751  -0.00556   0.00000  -0.00725  -0.00725   2.07026
    R8        2.56215  -0.01137   0.00000  -0.00802  -0.00762   2.55453
    R9        2.05361   0.00167   0.00000   0.00210   0.00210   2.05572
   R10        2.67750   0.03357   0.00000   0.03909   0.03897   2.71647
   R11        2.04271   0.00612   0.00000   0.00762   0.00762   2.05033
   R12        2.55732   0.02099   0.00000   0.02164   0.02188   2.57920
   R13        3.25662   0.01102   0.00000   0.01048   0.00957   3.26620
   R14        2.71701  -0.01671   0.00000  -0.01364  -0.01311   2.70390
   R15        2.03571   0.00391   0.00000   0.00482   0.00482   2.04054
   R16        2.44548  -0.00057   0.00000   0.00242   0.00273   2.44821
   R17        2.07420  -0.00756   0.00000  -0.00982  -0.00982   2.06438
   R18        2.54518   0.08567   0.00000   0.07743   0.07784   2.62301
   R19        2.83682  -0.02078   0.00000  -0.03284  -0.03302   2.80380
   R20        1.93792  -0.00252   0.00000  -0.00270  -0.00270   1.93522
   R21        3.33128  -0.03472   0.00000  -0.08475  -0.08498   3.24630
   R22        2.08841  -0.00878   0.00000  -0.01162  -0.01162   2.07679
   R23        2.09601  -0.00534   0.00000  -0.00713  -0.00713   2.08888
   R24        3.73058  -0.00540   0.00000  -0.02026  -0.02068   3.70990
   R25        2.07827  -0.00308   0.00000  -0.00402  -0.00402   2.07425
   R26        2.07461  -0.00120   0.00000  -0.00155  -0.00155   2.07306
   R27        3.98858   0.10344   0.00000   0.17586   0.17557   4.16415
   R28        2.56625  -0.00070   0.00000  -0.00114  -0.00114   2.56511
    A1        2.16024   0.01039   0.00000   0.01881   0.01873   2.17896
    A2        2.04876   0.02435   0.00000   0.04140   0.04133   2.09009
    A3        2.07414  -0.03472   0.00000  -0.06021  -0.06005   2.01410
    A4        2.17012   0.02517   0.00000   0.03575   0.03511   2.20524
    A5        2.07121  -0.01969   0.00000  -0.03294  -0.03260   2.03861
    A6        2.03969  -0.00551   0.00000  -0.00247  -0.00220   2.03749
    A7        2.25541   0.01316   0.00000   0.02621   0.02660   2.28201
    A8        2.08244  -0.01466   0.00000  -0.03022  -0.03041   2.05204
    A9        1.94454   0.00143   0.00000   0.00395   0.00374   1.94828
   A10        2.28451  -0.00249   0.00000   0.00085   0.00186   2.28636
   A11        2.00238  -0.00039   0.00000  -0.00425  -0.00476   1.99762
   A12        1.99588   0.00293   0.00000   0.00344   0.00294   1.99882
   A13        2.31559  -0.02095   0.00000  -0.02838  -0.02833   2.28726
   A14        2.03203   0.00427   0.00000   0.00194   0.00191   2.03394
   A15        1.93051   0.01648   0.00000   0.02591   0.02588   1.95639
   A16        2.01545   0.01284   0.00000   0.02265   0.02339   2.03884
   A17        2.15010  -0.01180   0.00000  -0.01872  -0.01971   2.13039
   A18        2.11201  -0.00213   0.00000  -0.00770  -0.00808   2.10393
   A19        2.04880   0.00583   0.00000   0.01496   0.01456   2.06336
   A20        2.15951  -0.00633   0.00000  -0.01582  -0.01620   2.14331
   A21        2.06914  -0.00137   0.00000  -0.00459  -0.00506   2.06408
   A22        2.19725   0.01625   0.00000   0.02563   0.02555   2.22280
   A23        2.04841  -0.01293   0.00000  -0.02296  -0.02300   2.02540
   A24        2.02393  -0.00456   0.00000  -0.00524  -0.00523   2.01871
   A25        1.84191   0.01696   0.00000   0.04982   0.05061   1.89252
   A26        1.94616   0.01287   0.00000   0.02401   0.02293   1.96909
   A27        2.00289  -0.00776   0.00000  -0.01473  -0.01414   1.98875
   A28        1.96681  -0.00285   0.00000  -0.00317  -0.00292   1.96389
   A29        2.20869   0.00095   0.00000  -0.00054  -0.00106   2.20763
   A30        1.80360   0.01008   0.00000   0.02216   0.02192   1.82552
   A31        1.73012   0.01510   0.00000   0.04283   0.04332   1.77344
   A32        1.97193  -0.01314   0.00000  -0.03291  -0.03277   1.93916
   A33        1.90833  -0.01861   0.00000  -0.04674  -0.04688   1.86145
   A34        1.78562   0.01125   0.00000   0.03114   0.02974   1.81536
   A35        2.39600  -0.00974   0.00000  -0.02997  -0.03158   2.36442
   A36        1.82611   0.00337   0.00000   0.00555   0.00564   1.83174
   A37        1.78463   0.00661   0.00000   0.02232   0.02296   1.80759
   A38        1.79333   0.00214   0.00000   0.00763   0.00836   1.80169
   A39        1.74709  -0.00127   0.00000  -0.00345  -0.00313   1.74396
   A40        1.87268   0.00017   0.00000   0.00338   0.00312   1.87580
   A41        2.08062  -0.01970   0.00000  -0.04462  -0.04627   2.03434
   A42        1.83174   0.00502   0.00000   0.02363   0.02418   1.85592
   A43        1.74297   0.01997   0.00000   0.04866   0.04752   1.79049
   A44        2.06166   0.02400   0.00000   0.05931   0.05982   2.12147
   A45        1.99340  -0.01899   0.00000  -0.05621  -0.05513   1.93827
   A46        1.68990  -0.00857   0.00000  -0.02863  -0.02843   1.66147
   A47        1.63607   0.00255   0.00000  -0.00011  -0.00067   1.63540
    D1        1.52514   0.00104   0.00000   0.01004   0.00927   1.53441
    D2       -1.54355   0.00186   0.00000   0.00457   0.00401  -1.53954
    D3       -1.60640  -0.00109   0.00000   0.00911   0.00858  -1.59782
    D4        1.60810  -0.00027   0.00000   0.00364   0.00331   1.61142
    D5        0.12259   0.01712   0.00000   0.05818   0.05762   0.18021
    D6       -2.23528  -0.00526   0.00000  -0.01283  -0.01269  -2.24797
    D7        2.30499  -0.00332   0.00000  -0.00245  -0.00343   2.30156
    D8       -3.02842   0.01906   0.00000   0.05897   0.05818  -2.97024
    D9        0.89690  -0.00332   0.00000  -0.01205  -0.01213   0.88477
   D10       -0.84602  -0.00138   0.00000  -0.00166  -0.00286  -0.84888
   D11       -0.00511   0.00549   0.00000   0.01614   0.01560   0.01050
   D12       -3.10002   0.00768   0.00000   0.01797   0.01776  -3.08227
   D13        3.06478   0.00411   0.00000   0.02032   0.01970   3.08448
   D14       -0.03014   0.00630   0.00000   0.02214   0.02186  -0.00828
   D15        0.75637   0.00380   0.00000   0.00241   0.00243   0.75880
   D16       -2.41862   0.00598   0.00000   0.00376   0.00388  -2.41474
   D17       -2.42894   0.00136   0.00000  -0.00011  -0.00041  -2.42935
   D18        0.67926   0.00354   0.00000   0.00124   0.00103   0.68029
   D19       -0.23413   0.01346   0.00000   0.03077   0.03085  -0.20328
   D20        3.02726   0.01440   0.00000   0.03497   0.03498   3.06224
   D21        2.94076   0.01133   0.00000   0.02955   0.02953   2.97029
   D22       -0.08104   0.01227   0.00000   0.03374   0.03366  -0.04738
   D23       -2.13259   0.01454   0.00000   0.03520   0.03521  -2.09737
   D24        0.89611   0.00360   0.00000  -0.00284  -0.00288   0.89323
   D25        0.89441   0.01317   0.00000   0.03018   0.03017   0.92458
   D26       -2.36007   0.00223   0.00000  -0.00786  -0.00792  -2.36800
   D27       -3.10353  -0.02880   0.00000  -0.08757  -0.08777   3.09188
   D28        0.15482  -0.00979   0.00000  -0.03222  -0.03261   0.12221
   D29        0.14828  -0.01741   0.00000  -0.04959  -0.04943   0.09885
   D30       -2.87655   0.00160   0.00000   0.00576   0.00573  -2.87082
   D31       -1.83589  -0.00358   0.00000   0.00976   0.00980  -1.82609
   D32        1.18676  -0.01422   0.00000  -0.02849  -0.02776   1.15900
   D33        3.06087   0.02600   0.00000   0.08098   0.08103  -3.14129
   D34       -0.26504   0.01690   0.00000   0.06270   0.06267  -0.20237
   D35       -0.19125   0.00762   0.00000   0.02771   0.02756  -0.16369
   D36        2.76603  -0.00147   0.00000   0.00944   0.00920   2.77523
   D37        2.64446  -0.00692   0.00000  -0.00476  -0.00522   2.63923
   D38       -0.31509   0.00288   0.00000   0.01501   0.01474  -0.30035
   D39       -1.03320  -0.00427   0.00000  -0.02339  -0.02295  -1.05615
   D40        1.22988  -0.00334   0.00000  -0.01882  -0.01866   1.21123
   D41        1.31529  -0.00345   0.00000  -0.01544  -0.01533   1.29995
   D42       -0.99685   0.00427   0.00000   0.01057   0.01129  -0.98556
   D43       -2.83067  -0.01425   0.00000  -0.03969  -0.03976  -2.87042
   D44       -0.96655  -0.00157   0.00000  -0.01349  -0.01346  -0.98001
   D45        3.00450   0.00616   0.00000   0.01252   0.01316   3.01765
   D46        1.17068  -0.01237   0.00000  -0.03774  -0.03789   1.13279
   D47       -0.91331  -0.00234   0.00000  -0.00606  -0.00535  -0.91866
   D48        3.13177  -0.00019   0.00000   0.00624   0.00686   3.13863
   D49        1.18076  -0.00395   0.00000  -0.00752  -0.00725   1.17351
   D50        1.33434  -0.00123   0.00000  -0.01179  -0.01163   1.32272
   D51       -0.90376   0.00093   0.00000   0.00051   0.00058  -0.90318
   D52       -2.85477  -0.00284   0.00000  -0.01324  -0.01352  -2.86830
   D53       -2.97278  -0.00627   0.00000  -0.02085  -0.02021  -2.99299
   D54        1.07230  -0.00411   0.00000  -0.00855  -0.00800   1.06430
   D55       -0.87872  -0.00788   0.00000  -0.02230  -0.02211  -0.90082
   D56       -1.41571  -0.00749   0.00000  -0.02066  -0.01956  -1.43528
   D57        0.84180   0.00589   0.00000   0.03527   0.03598   0.87778
   D58        2.81116  -0.00309   0.00000  -0.00403  -0.00475   2.80641
   D59        0.83242  -0.00910   0.00000  -0.03306  -0.03209   0.80034
   D60        3.08994   0.00427   0.00000   0.02287   0.02346   3.11340
   D61       -1.22389  -0.00471   0.00000  -0.01643  -0.01727  -1.24116
   D62        2.76073  -0.00872   0.00000  -0.02844  -0.02745   2.73328
   D63       -1.26494   0.00465   0.00000   0.02749   0.02810  -1.23684
   D64        0.70442  -0.00433   0.00000  -0.01181  -0.01263   0.69179
   D65        0.85736  -0.00849   0.00000  -0.01052  -0.00936   0.84799
   D66       -1.51074  -0.00713   0.00000  -0.02478  -0.02564  -1.53638
   D67        2.64029   0.01083   0.00000   0.03629   0.03603   2.67632
         Item               Value     Threshold  Converged?
 Maximum Force            0.103439     0.000450     NO 
 RMS     Force            0.016304     0.000300     NO 
 Maximum Displacement     0.262800     0.001800     NO 
 RMS     Displacement     0.086231     0.001200     NO 
 Predicted change in Energy=-5.535395D-02
 GradGradGradGradGradGradGradGradGradGradGradGradGradGradGradGradGradGrad

                          Input orientation:                          
 ---------------------------------------------------------------------
 Center     Atomic      Atomic             Coordinates (Angstroms)
 Number     Number       Type             X           Y           Z
 ---------------------------------------------------------------------
      1         16           0        0.582783    0.119942    0.242163
      2          6           0        2.215351    0.269415   -0.072724
      3          6           0        3.293739   -0.598687    0.531193
      4          6           0        3.741254   -1.774251    0.042625
      5          6           0        3.358681   -2.511202   -1.140429
      6          6           0        3.120678   -2.096944   -2.404986
      7          6           0        2.953296   -0.777519   -2.950413
      8          6           0        1.764145   -0.511712   -3.565307
      9          6           0        1.541094    0.810669   -4.064174
     10          7           0        0.486314    1.254102   -4.671815
     11          7           0        0.369352    2.612781   -4.413041
     12          6           0        0.223501    2.912760   -2.967313
     13          6           0        1.464245    2.850405   -1.780835
     14         16           0        2.785400    1.516844   -1.206114
     15         16           0        4.091109    0.489190   -2.653452
     16          1           0        3.709592   -0.273792    1.484909
     17          1           0        4.492416   -2.314264    0.629422
     18          1           0        3.273154   -3.585694   -0.993642
     19          1           0        2.918261   -2.870417   -3.138451
     20          1           0        0.933132   -1.201122   -3.554678
     21          1           0        2.258548    1.570655   -3.746259
     22          1           0        1.090591    3.184937   -4.861573
     23          1           0       -0.655444    2.333487   -2.651588
     24          1           0       -0.138845    3.956778   -2.992182
     25          1           0        0.973283    3.138298   -0.842272
     26          1           0        2.135036    3.670043   -2.066626
     27          1           0        3.799723    2.100301   -0.518178
 ---------------------------------------------------------------------
                    Distance matrix (angstroms):
                    1          2          3          4          5
     1  S    0.000000
     2  C    1.669364   0.000000
     3  C    2.819441   1.510376   0.000000
     4  C    3.688322   2.553087   1.349414   0.000000
     5  C    4.066950   3.190458   2.540915   1.445363   0.000000
     6  C    4.285194   3.443649   3.300889   2.545593   1.351798
     7  C    4.076434   3.149878   3.502780   3.251558   2.538905
     8  C    4.036264   3.607199   4.373618   4.303503   3.524279
     9  C    4.465422   4.084024   5.116194   5.328068   4.784008
    10  N    5.044086   5.011070   6.195624   6.480085   5.907511
    11  N    5.284953   5.266634   6.581111   7.104135   6.775048
    12  C    4.269620   4.396976   5.830624   6.588049   6.525812
    13  C    3.510687   3.184857   4.537483   5.467835   5.722397
    14  S    2.983347   1.779215   2.784262   3.647507   4.069166
    15  S    4.563911   3.197957   3.458502   3.537569   3.439192
    16  H    3.387680   2.225769   1.089984   2.081481   3.467209
    17  H    4.621749   3.514745   2.095156   1.095532   2.111046
    18  H    4.743105   4.102304   3.353767   2.138760   1.087840
    19  H    5.081855   4.444244   4.332208   3.463833   2.077281
    20  H    4.035338   3.991312   4.757072   4.599414   3.664450
    21  H    4.562923   3.897429   4.906553   5.267111   4.966105
    22  H    5.974963   5.718254   6.946337   7.461281   7.171969
    23  H    3.847958   4.376346   5.858651   6.592666   6.470534
    24  H    5.069817   5.259479   6.704406   7.557110   7.582640
    25  H    3.230938   3.219539   4.608251   5.707700   6.139696
    26  H    4.510345   3.942889   5.129650   6.055511   6.368904
    27  H    3.853394   2.461871   2.939683   3.915363   4.674149
                    6          7          8          9         10
     6  C    0.000000
     7  C    1.437495   0.000000
     8  C    2.387361   1.364855   0.000000
     9  C    3.701649   2.399400   1.430842   0.000000
    10  N    4.827826   3.629974   2.444445   1.295539   0.000000
    11  N    5.812366   4.506682   3.525132   2.177681   1.388039
    12  C    5.814378   4.590232   3.802392   2.712553   2.392810
    13  C    5.254484   4.092312   3.818129   3.062690   3.444168
    14  S    3.822194   2.887017   3.274720   3.196167   4.167242
    15  S    2.773367   1.728397   2.692220   2.931905   4.201598
    16  H    4.336126   4.527451   5.417200   6.055639   7.115422
    17  H    3.337143   4.188759   5.318685   6.364382   7.542228
    18  H    2.057065   3.437603   4.282515   5.635264   6.687231
    19  H    1.084990   2.101620   2.660391   4.037814   5.027646
    20  H    2.628620   2.150730   1.079806   2.162523   2.734185
    21  H    3.999196   2.574872   2.147889   1.092423   2.024270
    22  H    6.168820   4.777369   3.974820   2.544788   2.032063
    23  H    5.826545   4.773957   3.845055   3.023103   2.559297
    24  H    6.900495   5.654790   4.890525   3.724159   3.242906
    25  H    5.870361   4.868094   4.622008   4.015087   4.295664
    26  H    5.860386   4.607758   4.457654   3.538218   3.916894
    27  H    4.651668   3.861872   4.500131   4.397572   5.380281
                   11         12         13         14         15
    11  N    0.000000
    12  C    1.483708   0.000000
    13  C    2.860729   1.717867   0.000000
    14  S    4.162060   3.407892   1.963196   0.000000
    15  S    4.632199   4.574997   3.638298   2.203573   0.000000
    16  H    7.367179   6.490704   5.046511   3.361862   4.225368
    17  H    8.167121   7.647348   6.453911   4.578262   4.335628
    18  H    7.651500   7.444842   6.731656   5.130199   4.475344
    19  H    6.179561   6.382488   6.056821   4.795793   3.591345
    20  H    3.949746   4.215757   4.454601   4.041533   3.693533
    21  H    2.258248   2.559183   2.476201   2.594765   2.392086
    22  H    1.024075   2.100987   3.121294   4.360882   4.598473
    23  H    2.056923   1.098992   2.349148   3.820432   5.092269
    24  H    2.020750   1.105389   2.293757   4.206486   5.480092
    25  H    3.659412   2.264695   1.097646   2.458711   4.474258
    26  H    3.121075   2.244701   1.097016   2.408261   3.780001
    27  H    5.215366   4.409957   2.758879   1.357399   2.690720
                   16         17         18         19         20
    16  H    0.000000
    17  H    2.346955   0.000000
    18  H    4.159614   2.395302   0.000000
    19  H    5.361354   4.121181   2.288619   0.000000
    20  H    5.828045   5.604844   4.209607   2.626885   0.000000
    21  H    5.733466   6.263334   5.932475   4.530758   3.078340
    22  H    7.687640   8.483198   8.097278   6.555672   4.579332
    23  H    6.554544   7.672489   7.295161   6.331589   3.979021
    24  H    7.263094   8.595962   8.516148   7.481836   5.298063
    25  H    4.954343   6.654368   7.108051   6.720121   5.117551
    26  H    5.535925   6.974084   7.422421   6.673819   5.233271
    27  H    3.107540   4.613588   5.730085   5.687780   5.323257
                   21         22         23         24         25
    21  H    0.000000
    22  H    2.283408   0.000000
    23  H    3.204928   2.942387   0.000000
    24  H    3.465502   2.366827   1.737225   0.000000
    25  H    3.541547   4.021283   2.564000   2.555162   0.000000
    26  H    2.691441   3.022900   3.148864   2.471721   1.769595
    27  H    3.616110   5.232677   4.945132   5.007946   3.028405
                   26         27
    26  H    0.000000
    27  H    2.762782   0.000000
 Stoichiometry    C10H12N2S3
 Framework group  C1[X(C10H12N2S3)]
 Deg. of freedom    75
 Full point group                 C1      NOp   1
 Largest Abelian subgroup         C1      NOp   1
 Largest concise Abelian subgroup C1      NOp   1
                         Standard orientation:                         
 ---------------------------------------------------------------------
 Center     Atomic      Atomic             Coordinates (Angstroms)
 Number     Number       Type             X           Y           Z
 ---------------------------------------------------------------------
      1         16           0       -0.756117    2.210159   -1.347244
      2          6           0       -1.217114    1.380542    0.026070
      3          6           0       -2.644671    1.065180    0.405365
      4          6           0       -3.351203   -0.020854    0.028192
      5          6           0       -2.978462   -1.150480   -0.792835
      6          6           0       -1.852368   -1.898015   -0.814307
      7          6           0       -0.572438   -1.694917   -0.192277
      8          6           0        0.508380   -1.609034   -1.021304
      9          6           0        1.788471   -1.345149   -0.439032
     10          7           0        2.922763   -1.228246   -1.053961
     11          7           0        3.735544   -0.377435   -0.317647
     12          6           0        3.157497    0.980339   -0.163683
     13          6           0        1.855137    1.425601    0.864259
     14         16           0        0.021808    0.787315    1.156894
     15         16           0       -0.416548   -1.345852    1.493312
     16          1           0       -3.174660    1.815649    0.991856
     17          1           0       -4.399416   -0.077832    0.341550
     18          1           0       -3.745539   -1.469312   -1.495213
     19          1           0       -1.849365   -2.750794   -1.485099
     20          1           0        0.419455   -1.576649   -2.096955
     21          1           0        1.784362   -1.036374    0.608837
     22          1           0        4.052154   -0.772250    0.572638
     23          1           0        2.985810    1.326520   -1.192500
     24          1           0        4.037315    1.560114    0.170483
     25          1           0        1.723241    2.503378    0.703554
     26          1           0        2.265474    1.290673    1.872655
[...]
   A20        1.86009   0.00044   0.00079   0.00115   0.00200   1.86208
   A21        1.86933  -0.00178  -0.00103  -0.00443  -0.00543   1.86390
   A22        2.07722  -0.00029  -0.00006  -0.00035  -0.00027   2.07695
   A23        2.06171   0.00039  -0.00010   0.00272   0.00255   2.06426
   A24        2.14424  -0.00008   0.00016  -0.00240  -0.00231   2.14193
   A25        2.07304   0.00102   0.00071   0.01116   0.01206   2.08510
   A26        2.02768  -0.00048  -0.00054   0.00031  -0.00046   2.02721
   A27        2.02820  -0.00161  -0.00012   0.00230   0.00231   2.03051
   A28        1.99702   0.00178  -0.00047  -0.00267  -0.00315   1.99386
   A29        2.01331  -0.00338  -0.00036  -0.00646  -0.00711   2.00620
   A30        1.86832   0.00253   0.00032   0.00071   0.00105   1.86937
   A31        1.87139   0.00001  -0.00051   0.00227   0.00192   1.87331
   A32        1.90987  -0.00102  -0.00011   0.00165   0.00162   1.91149
   A33        1.90177   0.00257   0.00071   0.00335   0.00413   1.90591
   A34        1.89598  -0.00062  -0.00005  -0.00142  -0.00151   1.89447
   A35        1.91082   0.00171  -0.00054   0.01086   0.01035   1.92116
   A36        1.93338  -0.00048  -0.00046  -0.00123  -0.00186   1.93152
   A37        1.92009  -0.00026   0.00074  -0.00262  -0.00174   1.91835
   A38        1.88603  -0.00097  -0.00025   0.00017  -0.00003   1.88600
   A39        1.91493  -0.00043   0.00023  -0.00505  -0.00491   1.91002
   A40        1.89822   0.00041   0.00028  -0.00224  -0.00197   1.89626
   A41        1.25951  -0.00418   0.00142  -0.02547  -0.02415   1.23536
   A42        0.51255  -0.00535   0.00219  -0.01903  -0.01692   0.49563
   A43        2.54356   0.00398  -0.00162   0.02599   0.02291   2.56648
   A44        1.24720  -0.00043   0.00229  -0.02409  -0.02182   1.22538
   A45        1.71299   0.00185   0.00520   0.00704   0.01250   1.72549
   A46        2.95382   0.00122   0.00623  -0.01254  -0.00641   2.94741
   A47        0.71936  -0.00085   0.00698  -0.04211  -0.03531   0.68405
    D1        2.78868  -0.00012  -0.00651   0.02279   0.01616   2.80484
    D2       -0.30379  -0.00020  -0.00363   0.02333   0.01960  -0.28419
    D3       -1.74671  -0.00195  -0.01171   0.04544   0.03339  -1.71331
    D4        1.44401  -0.00203  -0.00883   0.04598   0.03684   1.48085
    D5       -0.70970   0.00127  -0.00054  -0.01867  -0.01906  -0.72876
    D6       -2.17092  -0.00586  -0.00239  -0.01652  -0.01928  -2.19019
    D7        0.65170  -0.00436   0.01186  -0.06201  -0.04979   0.60192
    D8       -2.77998   0.00420   0.00000  -0.01151  -0.01120  -2.79118
    D9        2.04198  -0.00293  -0.00184  -0.00935  -0.01141   2.03057
   D10       -1.41858  -0.00142   0.01240  -0.05484  -0.04192  -1.46050
   D11       -0.09683  -0.00140   0.00421  -0.02547  -0.02145  -0.11828
   D12        3.13937  -0.00106   0.00408  -0.01036  -0.00643   3.13294
   D13        2.99418  -0.00130   0.00126  -0.02602  -0.02498   2.96920
   D14       -0.05280  -0.00097   0.00113  -0.01091  -0.00996  -0.06276
   D15        0.06896  -0.00166   0.00352  -0.01053  -0.00713   0.06183
   D16       -3.00543  -0.00104   0.00168   0.00295   0.00453  -3.00090
   D17        3.11729  -0.00195   0.00361  -0.02543  -0.02199   3.09529
   D18        0.04290  -0.00133   0.00178  -0.01196  -0.01034   0.03256
   D19        0.10730  -0.00094   0.00078  -0.00381  -0.00312   0.10418
   D20       -3.02439  -0.00010  -0.00236   0.01875   0.01626  -3.00813
   D21       -3.10237  -0.00156   0.00266  -0.01759  -0.01504  -3.11741
   D22        0.04912  -0.00072  -0.00048   0.00497   0.00434   0.05346
   D23        0.24375   0.00079  -0.01209   0.06359   0.05135   0.29509
   D24       -3.02434   0.00079  -0.01164   0.06224   0.05048  -2.97386
   D25       -2.90748  -0.00003  -0.00904   0.04162   0.03243  -2.87505
   D26        0.10762  -0.00002  -0.00858   0.04027   0.03156   0.13918
   D27        1.30728   0.00255   0.01558  -0.07713  -0.06190   1.24538
   D28       -2.98141   0.00075   0.01545  -0.07920  -0.06382  -3.04523
   D29       -1.71035   0.00323   0.01526  -0.07431  -0.05927  -1.76962
   D30        0.28414   0.00143   0.01513  -0.07638  -0.06119   0.22295
   D31       -2.17718  -0.00005  -0.00364   0.00202  -0.00147  -2.17865
   D32        0.84208  -0.00075  -0.00306  -0.00131  -0.00429   0.83779
   D33        2.42757  -0.00476   0.00268  -0.02420  -0.02105   2.40652
   D34       -0.71893  -0.00166   0.00386  -0.02998  -0.02595  -0.74488
   D35        0.43933  -0.00446   0.00160  -0.02594  -0.02416   0.41517
   D36       -2.70717  -0.00137   0.00278  -0.03171  -0.02906  -2.73623
   D37       -3.05232   0.00032   0.00093  -0.01328  -0.01262  -3.06493
   D38        0.09443  -0.00293  -0.00031  -0.00724  -0.00751   0.08692
   D39       -2.67308  -0.00364  -0.00084   0.00878   0.00827  -2.66481
   D40       -0.24597  -0.00333  -0.00251   0.00761   0.00526  -0.24071
   D41        1.31731  -0.00291  -0.00523   0.02699   0.02169   1.33900
   D42       -0.81241  -0.00127  -0.00509   0.02859   0.02349  -0.78892
   D43       -2.84428  -0.00182  -0.00494   0.02876   0.02377  -2.82051
   D44       -1.12244  -0.00186  -0.00374   0.02615   0.02245  -1.09999
   D45        3.03103  -0.00022  -0.00360   0.02775   0.02425   3.05528
   D46        0.99917  -0.00076  -0.00345   0.02792   0.02453   1.02369
   D47        0.88310  -0.00118  -0.00052   0.01052   0.01011   0.89321
   D48       -1.19513  -0.00076   0.00041   0.00422   0.00474  -1.19039
   D49        2.98875  -0.00080  -0.00012   0.00951   0.00951   2.99826
   D50        2.99037  -0.00100  -0.00043   0.00822   0.00779   2.99816
   D51        0.91214  -0.00057   0.00050   0.00192   0.00242   0.91456
   D52       -1.18716  -0.00061  -0.00003   0.00722   0.00719  -1.17998
   D53       -1.22204  -0.00083  -0.00014   0.00944   0.00936  -1.21268
   D54        2.98292  -0.00041   0.00079   0.00314   0.00398   2.98690
   D55        0.88361  -0.00045   0.00027   0.00843   0.00875   0.89236
   D56       -1.39127   0.00309  -0.00200  -0.00352  -0.00593  -1.39721
   D57       -0.85126  -0.00205  -0.00002  -0.01909  -0.01955  -0.87081
   D58        2.34028  -0.00144   0.00142  -0.03455  -0.03173   2.30855
   D59        0.71598   0.00292  -0.00303   0.00149  -0.00206   0.71392
   D60        1.25599  -0.00222  -0.00104  -0.01408  -0.01568   1.24031
   D61       -1.83565  -0.00161   0.00040  -0.02955  -0.02786  -1.86351
   D62        2.78312   0.00261  -0.00271  -0.00396  -0.00720   2.77593
   D63       -2.96005  -0.00253  -0.00073  -0.01953  -0.02081  -2.98086
   D64        0.23150  -0.00192   0.00071  -0.03499  -0.03299   0.19850
   D65       -0.68675  -0.00923   0.00735  -0.04506  -0.03799  -0.72474
   D66       -2.19477  -0.00262   0.00884  -0.03947  -0.03068  -2.22545
   D67       -1.92681   0.00238   0.03992  -0.14282  -0.10407  -2.03089
         Item               Value     Threshold  Converged?
 Maximum Force            0.009230     0.000450     NO 
 RMS     Force            0.002487     0.000300     NO 
 Maximum Displacement     0.179982     0.001800     NO 
 RMS     Displacement     0.035889     0.001200     NO 
 Predicted change in Energy=-8.741705D-04
 GradGradGradGradGradGradGradGradGradGradGradGradGradGradGradGradGradGrad

                          Input orientation:                          
 ---------------------------------------------------------------------
 Center     Atomic      Atomic             Coordinates (Angstroms)
 Number     Number       Type             X           Y           Z
 ---------------------------------------------------------------------
      1         16           0       -0.145941   -1.382929   -0.288140
      2          6           0        1.343787   -1.312774   -0.977831
      3          6           0        2.520759   -1.311813   -0.143351
      4          6           0        3.788215   -1.617999   -0.514365
      5          6           0        4.286784   -2.141682   -1.763705
      6          6           0        3.649599   -2.414737   -2.931744
      7          6           0        2.275421   -2.139405   -3.287518
      8          6           0        1.444824   -1.139828   -2.485399
      9          6           0        1.980294    0.249392   -2.800028
     10          7           0        1.154188    1.202227   -2.988830
     11          7           0        1.615960    2.421512   -3.357267
     12          6           0        0.798285    3.557016   -2.975168
     13          6           0        0.902641    3.962936   -1.494905
     14         16           0        2.677860    4.160134   -1.014284
     15         16           0        1.649911   -2.769686   -4.672643
     16          1           0        2.336139   -1.081534    0.901395
     17          1           0        4.539504   -1.548075    0.268252
     18          1           0        5.337387   -2.420739   -1.729868
     19          1           0        4.217932   -2.926659   -3.701934
     20          1           0        0.433104   -1.184187   -2.882889
     21          1           0        3.065418    0.389037   -2.845308
     22          1           0        2.619006    2.574960   -3.256120
     23          1           0       -0.238871    3.300944   -3.211814
     24          1           0        1.099975    4.401692   -3.602106
     25          1           0        0.461142    3.197283   -0.853165
     26          1           0        0.374825    4.903957   -1.329341
     27          1           0        2.592243    5.345955   -0.387666
 ---------------------------------------------------------------------
                    Distance matrix (angstroms):
                    1          2          3          4          5
     1  S    0.000000
     2  C    1.643133   0.000000
     3  C    2.671574   1.442782   0.000000
     4  C    3.947660   2.506630   1.355672   0.000000
     5  C    4.733081   3.156884   2.536351   1.443491   0.000000
     6  C    4.739134   3.216965   3.204037   2.549064   1.358263
     7  C    3.928298   2.624104   3.260504   3.201685   2.523409
     8  C    2.723523   1.520816   2.583099   3.099210   3.098595
     9  C    3.673544   2.483124   3.128481   3.461211   3.480100
    10  N    3.958169   3.225725   4.035427   4.584185   4.742975
    11  N    5.195922   4.436292   5.008556   5.396150   5.522271
    12  C    5.702170   5.291671   5.889958   6.463437   6.790613
    13  C    5.579792   5.319313   5.680492   6.358840   6.985058
    14  S    6.263121   5.633277   5.543051   5.905052   6.546996
    15  S    4.936806   3.983459   4.837174   4.815600   3.976105
    16  H    2.768854   2.137691   1.085637   2.097784   3.468672
    17  H    4.721254   3.438124   2.073781   1.087112   2.131921
    18  H    5.763898   4.212124   3.417623   2.126446   1.087559
    19  H    5.751563   4.276222   4.260474   3.472441   2.092286
    20  H    2.665992   2.115449   3.446688   4.129754   4.125556
    21  H    4.471219   3.057392   3.238845   3.159735   3.011002
    22  H    5.667339   4.683083   4.980561   5.144432   5.220680
    23  H    5.522243   5.364875   6.189390   6.905770   7.225008
    24  H    6.782074   6.292964   6.828306   7.279936   7.506744
    25  H    4.654691   4.597306   5.007775   5.862691   6.630925
    26  H    6.393765   6.301602   6.681871   7.406169   8.070509
    27  H    7.265359   6.800413   6.662633   7.067041   7.799337
                    6          7          8          9         10
     6  C    0.000000
     7  C    1.445941   0.000000
     8  C    2.585662   1.527234   0.000000
     9  C    3.146666   2.455830   1.521726   0.000000
    10  N    4.394629   3.537356   2.413117   1.275144   0.000000
    11  N    5.263654   4.608875   3.670502   2.271863   1.354856
    12  C    6.617681   5.893107   4.766364   3.516845   2.381572
    13  C    7.091191   6.506655   5.226207   4.081065   3.149064
    14  S    6.917359   6.709229   5.636857   4.355386   3.869059
    15  S    2.674971   1.645323   2.735423   3.568006   4.342472
    16  H    4.265625   4.320853   3.502601   3.949496   4.663306
    17  H    3.432638   4.256670   4.162487   4.381185   5.443630
    18  H    2.071997   3.446891   4.166966   4.420963   5.675388
    19  H    1.085477   2.136552   3.516085   3.988453   5.190640
    20  H    3.444195   2.114308   1.087907   2.110879   2.495227
    21  H    2.865290   2.685641   2.256831   1.095010   2.081989
    22  H    5.105332   4.726974   3.971444   2.454433   2.025224
    23  H    6.918644   5.993730   4.804473   3.795554   2.528823
    24  H    7.308466   6.653315   5.663426   4.319709   3.258162
    25  H    6.780967   6.139864   4.737336   3.845538   3.003603
    26  H    8.176498   7.553521   6.245694   5.138621   4.130873
    27  H    8.235209   8.033688   6.912484   5.671766   5.099465
                   11         12         13         14         15
    11  N    0.000000
    12  C    1.450504   0.000000
    13  C    2.520556   1.538454   0.000000
    14  S    3.104836   2.782377   1.849672   0.000000
    15  S    5.355362   6.605592   7.482288   7.903333   0.000000
    16  H    5.561132   6.237698   5.765748   5.591215   5.864356
    17  H    6.119568   7.111852   6.834233   6.139565   5.852736
    18  H    6.320193   7.608402   7.776471   7.133936   4.730663
    19  H    5.957515   7.366154   7.957931   7.734205   2.749845
    20  H    3.824297   4.756141   5.351620   6.090351   2.682843
    21  H    2.548330   3.897801   4.390211   4.209991   3.914121
    22  H    1.019744   2.087677   2.823874   2.746283   5.613459
    23  H    2.057901   1.094197   2.165424   3.751622   6.523347
    24  H    2.060898   1.094325   2.161422   3.040542   7.271667
    25  H    2.864603   2.178525   1.092234   2.422164   7.183753
    26  H    3.437358   2.168482   1.091568   2.440594   8.466895
    27  H    4.280657   3.621292   2.448158   1.343932   9.225652
                   16         17         18         19         20
    16  H    0.000000
    17  H    2.339518   0.000000
    18  H    4.210048   2.321776   0.000000
    19  H    5.304363   4.215007   2.323399   0.000000
    20  H    4.237084   5.188894   5.187534   4.246406   0.000000
    21  H    4.090502   3.952162   3.781652   3.613300   3.066843
    22  H    5.543906   5.754035   5.888638   5.746576   4.364477
    23  H    6.538752   7.645698   8.125791   7.673744   4.547102
    24  H    7.202457   7.887316   8.246606   7.964694   5.671335
    25  H    4.990228   6.356810   7.490564   7.728624   4.828856
    26  H    6.681993   7.843823   8.856558   9.039758   6.283502
    27  H    6.560479   7.193727   8.346189   9.058885   7.316473
                   21         22         23         24         25
    21  H    0.000000
    22  H    2.268548   0.000000
    23  H    4.419486   2.948979   0.000000
    24  H    4.531789   2.400856   1.776650   0.000000
    25  H    4.317075   3.289051   2.462517   3.068450   0.000000
    26  H    5.470096   3.764711   2.547544   2.437944   1.773959
    27  H    5.552922   3.988378   4.491447   3.667577   3.061874
                   26         27
    26  H    0.000000
    27  H    2.449297   0.000000
 Stoichiometry    C10H12N2S3
 Framework group  C1[X(C10H12N2S3)]
 Deg. of freedom    75
 Full point group                 C1      NOp   1
 Largest Abelian subgroup         C1      NOp   1
 Largest concise Abelian subgroup C1      NOp   1
                         Standard orientation:                         
 ---------------------------------------------------------------------
 Center     Atomic      Atomic             Coordinates (Angstroms)
 Number     Number       Type             X           Y           Z
 ---------------------------------------------------------------------
      1         16           0       -1.019431    1.829939   -2.265426
      2          6           0       -1.183768    1.256573   -0.734370
      3          6           0       -1.154169    2.171536    0.380792
      4          6           0       -1.620798    1.950558    1.634296
      5          6           0       -2.371692    0.835455    2.160006
      6          6           0       -2.766606   -0.325733    1.576430
      7          6           0       -2.433514   -0.825097    0.260971
      8          6           0       -1.254982   -0.247356   -0.519876
      9          6           0        0.018262   -0.720970    0.165826
     10          7           0        0.997353   -1.112894   -0.550951
     11          7           0        2.101292   -1.620208    0.048702
     12          6           0        3.347645   -1.475646   -0.679081
     13          6           0        3.966943   -0.068127   -0.632177
     14         16           0        4.084101    0.515920    1.118951
     15         16           0       -3.214577   -2.146556   -0.331291
     16          1           0       -0.750415    3.152976    0.151960
     17          1           0       -1.495075    2.770768    2.336622
     18          1           0       -2.730620    0.992574    3.174535
     19          1           0       -3.437861   -0.964713    2.141569
     20          1           0       -1.273879   -0.712106   -1.503336
     21          1           0        0.056313   -0.701068    1.259994
     22          1           0        2.182536   -1.464432    1.053197
     23          1           0        3.147364   -1.752508   -1.718552
     24          1           0        4.056556   -2.194976   -0.257705
     25          1           0        3.350010    0.643131   -1.185785
     26          1           0        4.963733   -0.085521   -1.076731
     27          1           0        5.355405    0.951583    1.107317
 ---------------------------------------------------------------------
 Rotational constants (GHZ):           0.5581736           0.2391386           0.2244313
 Standard basis: 6-31G(2df,p) (6D, 7F)
 There are   537 symmetry adapted cartesian basis functions of A   symmetry.
 There are   492 symmetry adapted basis functions of A   symmetry.
   492 basis functions,   816 primitive gaussians,   537 cartesian basis functions
    67 alpha electrons       67 beta electrons
       nuclear repulsion energy      1251.4995975117 Hartrees.
 NAtoms=   27 NActive=   27 NUniq=   27 SFac= 1.00D+00 NAtFMM=   60 NAOKFM=F Big=F
 Integral buffers will be    131072 words long.
 Raffenetti 2 integral format.
 Two-electron integral symmetry is turned on.
 One-electron integrals computed using PRISM.
 PrsmSu:  requested number of processors reduced to:  12 ShMem   1 Linda.
 NBasis=   492 RedAO= T EigKep=  2.69D-04  NBF=   492
 NBsUse=   492 1.00D-06 EigRej= -1.00D+00 NBFU=   492
 Initial guess from the checkpoint file:  "SdC1CdCCdCC2dCCdNNCC[SH]1S2.chk"
 B after Tr=    -0.000000   -0.000000   -0.000000
         Rot=    0.999865   -0.015094   -0.006439    0.001163 Ang=  -1.89 deg.
 ExpMin= 1.17D-01 ExpMax= 2.19D+04 ExpMxC= 3.30D+03 IAcc=2 IRadAn=         4 AccDes= 0.00D+00
 Harris functional with IExCor=  402 and IRadAn=       4 diagonalized for initial guess.
 HarFok:  IExCor=  402 AccDes= 0.00D+00 IRadAn=         4 IDoV= 1 UseB2=F ITyADJ=14
 ICtDFT=  3500011 ScaDFX=  1.000000  1.000000  1.000000  1.000000
 FoFCou: FMM=F IPFlag=           0 FMFlag=      100000 FMFlg1=           0
         NFxFlg=           0 DoJE=T BraDBF=F KetDBF=T FulRan=T
         wScrn=  0.000000 ICntrl=       500 IOpCl=  0 I1Cent=   200000004 NGrid=           0
         NMat0=    1 NMatS0=      1 NMatT0=    0 NMatD0=    1 NMtDS0=    0 NMtDT0=    0
 Petite list used in FoFCou.
 Requested convergence on RMS density matrix=1.00D-08 within 128 cycles.
 Requested convergence on MAX density matrix=1.00D-06.
 Requested convergence on             energy=1.00D-06.
 No special actions if energy rises.
 Integral accuracy reduced to 1.0D-05 until final iterations.
 Initial convergence to 1.0D-05 achieved.  Increase integral accuracy.
slurmstepd: error: *** JOB 27447092 ON lewis4-r630-hpc4-node241 CANCELLED AT 2023-05-16T12:44:58 DUE TO TIME LIMIT ***
