### Starting Gaussian ###
 Entering Gaussian System, Link 0=g16
 Initial command:
 /cluster/software/gaussian/gaussian-16-A.03/avx2/g16/l1.exe "/local/scratch/ks29c/Gau-15408.inp" -scrdir="/local/scratch/ks29c/"
 Entering Link 1 = /cluster/software/gaussian/gaussian-16-A.03/avx2/g16/l1.exe PID=     15409.
  
 Copyright (c) 1988,1990,1992,1993,1995,1998,2003,2009,2016,
            Gaussian, Inc.  All Rights Reserved.
  
 This is part of the Gaussian(R) 16 program.  It is based on
 the Gaussian(R) 09 system (copyright 2009, Gaussian, Inc.),
 the Gaussian(R) 03 system (copyright 2003, Gaussian, Inc.),
 the Gaussian(R) 98 system (copyright 1998, Gaussian, Inc.),
 the Gaussian(R) 94 system (copyright 1995, Gaussian, Inc.),
 the Gaussian 92(TM) system (copyright 1992, Gaussian, Inc.),
 the Gaussian 90(TM) system (copyright 1990, Gaussian, Inc.),
 the Gaussian 88(TM) system (copyright 1988, Gaussian, Inc.),
 the Gaussian 86(TM) system (copyright 1986, Carnegie Mellon
 University), and the Gaussian 82(TM) system (copyright 1983,
 Carnegie Mellon University). Gaussian is a federally registered
 trademark of Gaussian, Inc.
  
 This software contains proprietary and confidential information,
 including trade secrets, belonging to Gaussian, Inc.
  
 This software is provided under written license and may be
 used, copied, transmitted, or stored only in accord with that
 written license.
  
 The following legend is applicable only to US Government
 contracts under FAR:
  
                    RESTRICTED RIGHTS LEGEND
  
 Use, reproduction and disclosure by the US Government is
 subject to restrictions as set forth in subparagraphs (a)
 and (c) of the Commercial Computer Software - Restricted
 Rights clause in FAR 52.227-19.
  
 Gaussian, Inc.
 340 Quinnipiac St., Bldg. 40, Wallingford CT 06492
  
  
 ---------------------------------------------------------------
 Warning -- This program may not be used in any manner that
 competes with the business of Gaussian, Inc. or will provide
 assistance to any competitor of Gaussian, Inc.  The licensee
 of this program is prohibited from giving any competitor of
 Gaussian, Inc. access to this program.  By using this program,
 the user acknowledges that Gaussian, Inc. is engaged in the
 business of creating and licensing software in the field of
 computational chemistry and represents and warrants to the
 licensee that it is not a competitor of Gaussian, Inc. and that
 it will not use this program in any manner prohibited above.
 ---------------------------------------------------------------
  

 Cite this work as:
 Gaussian 16, Revision A.03,
 M. J. Frisch, G. W. Trucks, H. B. Schlegel, G. E. Scuseria, 
 M. A. Robb, J. R. Cheeseman, G. Scalmani, V. Barone, 
 G. A. Petersson, H. Nakatsuji, X. Li, M. Caricato, A. V. Marenich, 
 J. Bloino, B. G. Janesko, R. Gomperts, B. Mennucci, H. P. Hratchian, 
 J. V. Ortiz, A. F. Izmaylov, J. L. Sonnenberg, D. Williams-Young, 
 F. Ding, F. Lipparini, F. Egidi, J. Goings, B. Peng, A. Petrone, 
 T. Henderson, D. Ranasinghe, V. G. Zakrzewski, J. Gao, N. Rega, 
 G. Zheng, W. Liang, M. Hada, M. Ehara, K. Toyota, R. Fukuda, 
 J. Hasegawa, M. Ishida, T. Nakajima, Y. Honda, O. Kitao, H. Nakai, 
 T. Vreven, K. Throssell, J. A. Montgomery, Jr., J. E. Peralta, 
 F. Ogliaro, M. J. Bearpark, J. J. Heyd, E. N. Brothers, K. N. Kudin, 
 V. N. Staroverov, T. A. Keith, R. Kobayashi, J. Normand, 
 K. Raghavachari, A. P. Rendell, J. C. Burant, S. S. Iyengar, 
 J. Tomasi, M. Cossi, J. M. Millam, M. Klene, C. Adamo, R. Cammi, 
 J. W. Ochterski, R. L. Martin, K. Morokuma, O. Farkas, 
 J. B. Foresman, and D. J. Fox, Gaussian, Inc., Wallingford CT, 2016.
 
 ******************************************
 Gaussian 16:  ES64L-G16RevA.03 25-Dec-2016
                17-May-2023 
 ******************************************
 %chk=SdC1CdNNdc2sccc2dCS1.chk
 %NProcShared=20
 Will use up to   20 processors via shared memory.
 -----------------------------
 # opt freq b3lyp/6-31g(2df,p)
 -----------------------------
 1/18=20,19=15,26=3,38=1/1,3;
 2/9=110,12=2,17=6,18=5,40=1/2;
 3/5=1,6=6,7=104,11=2,25=1,30=1,71=1,74=-5/1,2,3;
 4//1;
 5/5=2,38=5/2;
 6/7=2,8=2,9=2,10=2,28=1/1;
 7//1,2,3,16;
 1/18=20,19=15,26=3/3(2);
 2/9=110/2;
 99//99;
 2/9=110/2;
 3/5=1,6=6,7=104,11=2,25=1,30=1,71=1,74=-5/1,2,3;
 4/5=5,16=3,69=1/1;
 5/5=2,38=5/2;
 7//1,2,3,16;
 1/18=20,19=15,26=3/3(-5);
 2/9=110/2;
 6/7=2,8=2,9=2,10=2,19=2,28=1/1;
 99/9=1/99;
 -------------------
 Title Card Required
 -------------------
 Symbolic Z-matrix:
 Charge =  0 Multiplicity = 1
 S                     1.73408   0.57853   0.14683 
 C                     3.30422   0.05183  -0.01318 
 C                     3.46362  -1.34875  -0.4351 
 N                     4.6642   -1.61853  -0.51255 
 N                     5.16649  -2.7686   -0.86373 
 C                     6.41531  -2.49379  -0.78189 
 S                     7.53706  -3.76675  -1.1658 
 C                     8.88939  -2.76104  -0.85275 
 C                     8.59754  -1.49856  -0.47479 
 C                     7.13151  -1.17398  -0.38297 
 C                     6.5887    0.05046  -0.01645 
 S                     4.90618   0.8768    0.23108 
 H                     2.60894  -2.01507  -0.63925 
 H                     9.86819  -3.20778  -0.97979 
 H                     9.41267  -0.81561  -0.26396 
 H                     7.33437   0.82187   0.21374 
 

 GradGradGradGradGradGradGradGradGradGradGradGradGradGradGradGradGradGrad
 Berny optimization.
 Initialization pass.
                           ----------------------------
                           !    Initial Parameters    !
                           ! (Angstroms and Degrees)  !
 --------------------------                            --------------------------
 ! Name  Definition              Value          Derivative Info.                !
 --------------------------------------------------------------------------------
 ! R1    R(1,2)                  1.6638         estimate D2E/DX2                !
 ! R2    R(2,3)                  1.4714         estimate D2E/DX2                !
 ! R3    R(2,12)                 1.8184         estimate D2E/DX2                !
 ! R4    R(3,4)                  1.233          estimate D2E/DX2                !
 ! R5    R(3,13)                 1.1028         estimate D2E/DX2                !
 ! R6    R(4,5)                  1.3032         estimate D2E/DX2                !
 ! R7    R(5,6)                  1.2813         estimate D2E/DX2                !
 ! R8    R(6,7)                  1.7396         estimate D2E/DX2                !
 ! R9    R(6,10)                 1.5537         estimate D2E/DX2                !
 ! R10   R(7,8)                  1.7141         estimate D2E/DX2                !
 ! R11   R(8,9)                  1.3498         estimate D2E/DX2                !
 ! R12   R(8,14)                 1.0834         estimate D2E/DX2                !
 ! R13   R(9,10)                 1.5043         estimate D2E/DX2                !
 ! R14   R(9,15)                 1.0841         estimate D2E/DX2                !
 ! R15   R(10,11)                1.3886         estimate D2E/DX2                !
 ! R16   R(11,12)                1.8908         estimate D2E/DX2                !
 ! R17   R(11,16)                1.0973         estimate D2E/DX2                !
 ! A1    A(1,2,3)              115.539          estimate D2E/DX2                !
 ! A2    A(1,2,12)             132.4413         estimate D2E/DX2                !
 ! A3    A(3,2,12)             112.0196         estimate D2E/DX2                !
 ! A4    A(2,3,4)              109.3765         estimate D2E/DX2                !
 ! A5    A(2,3,13)             122.9737         estimate D2E/DX2                !
 ! A6    A(4,3,13)             127.6498         estimate D2E/DX2                !
 ! A7    A(3,4,5)              125.8271         estimate D2E/DX2                !
 ! A8    A(4,5,6)               99.7396         estimate D2E/DX2                !
 ! A9    A(5,6,7)              117.2224         estimate D2E/DX2                !
 ! A10   A(5,6,10)             130.3806         estimate D2E/DX2                !
 ! A11   A(7,6,10)             112.397          estimate D2E/DX2                !
 ! A12   A(6,7,8)               92.2403         estimate D2E/DX2                !
 ! A13   A(7,8,9)              115.4249         estimate D2E/DX2                !
 ! A14   A(7,8,14)             116.7059         estimate D2E/DX2                !
 ! A15   A(9,8,14)             127.8692         estimate D2E/DX2                !
 ! A16   A(8,9,10)             115.4432         estimate D2E/DX2                !
 ! A17   A(8,9,15)             118.7574         estimate D2E/DX2                !
 ! A18   A(10,9,15)            125.7992         estimate D2E/DX2                !
 ! A19   A(6,10,9)             104.4936         estimate D2E/DX2                !
 ! A20   A(6,10,11)            129.5398         estimate D2E/DX2                !
 ! A21   A(9,10,11)            125.9666         estimate D2E/DX2                !
 ! A22   A(10,11,12)           140.1546         estimate D2E/DX2                !
 ! A23   A(10,11,16)           114.1812         estimate D2E/DX2                !
 ! A24   A(12,11,16)           105.6642         estimate D2E/DX2                !
 ! A25   A(2,12,11)            124.6171         estimate D2E/DX2                !
 ! D1    D(1,2,3,4)           -179.7707         estimate D2E/DX2                !
 ! D2    D(1,2,3,13)             0.2521         estimate D2E/DX2                !
 ! D3    D(12,2,3,4)             0.3188         estimate D2E/DX2                !
 ! D4    D(12,2,3,13)         -179.6584         estimate D2E/DX2                !
 ! D5    D(1,2,12,11)          179.9193         estimate D2E/DX2                !
 ! D6    D(3,2,12,11)           -0.1901         estimate D2E/DX2                !
 ! D7    D(2,3,4,5)           -179.6917         estimate D2E/DX2                !
 ! D8    D(13,3,4,5)             0.2841         estimate D2E/DX2                !
 ! D9    D(3,4,5,6)            179.6398         estimate D2E/DX2                !
 ! D10   D(4,5,6,7)            179.7997         estimate D2E/DX2                !
 ! D11   D(4,5,6,10)            -0.0987         estimate D2E/DX2                !
 ! D12   D(5,6,7,8)           -179.638          estimate D2E/DX2                !
 ! D13   D(10,6,7,8)             0.2783         estimate D2E/DX2                !
 ! D14   D(5,6,10,9)           179.6946         estimate D2E/DX2                !
 ! D15   D(5,6,10,11)           -0.2518         estimate D2E/DX2                !
 ! D16   D(7,6,10,9)            -0.2078         estimate D2E/DX2                !
 ! D17   D(7,6,10,11)          179.8459         estimate D2E/DX2                !
 ! D18   D(6,7,8,9)             -0.2859         estimate D2E/DX2                !
 ! D19   D(6,7,8,14)           179.7087         estimate D2E/DX2                !
 ! D20   D(7,8,9,10)             0.2078         estimate D2E/DX2                !
 ! D21   D(7,8,9,15)          -179.9437         estimate D2E/DX2                !
 ! D22   D(14,8,9,10)         -179.786          estimate D2E/DX2                !
 ! D23   D(14,8,9,15)            0.0625         estimate D2E/DX2                !
 ! D24   D(8,9,10,6)             0.0049         estimate D2E/DX2                !
 ! D25   D(8,9,10,11)          179.9537         estimate D2E/DX2                !
 ! D26   D(15,9,10,6)         -179.8313         estimate D2E/DX2                !
 ! D27   D(15,9,10,11)           0.1175         estimate D2E/DX2                !
 ! D28   D(6,10,11,12)           0.1844         estimate D2E/DX2                !
 ! D29   D(6,10,11,16)        -179.784          estimate D2E/DX2                !
 ! D30   D(9,10,11,12)        -179.7513         estimate D2E/DX2                !
 ! D31   D(9,10,11,16)           0.2802         estimate D2E/DX2                !
 ! D32   D(10,11,12,2)           0.0888         estimate D2E/DX2                !
 ! D33   D(16,11,12,2)        -179.9411         estimate D2E/DX2                !
 --------------------------------------------------------------------------------
 Trust Radius=3.00D-01 FncErr=1.00D-07 GrdErr=1.00D-06 EigMax=2.50D+02 EigMin=1.00D-04
 Number of steps in this run=     85 maximum allowed number of steps=    100.
 GradGradGradGradGradGradGradGradGradGradGradGradGradGradGradGradGradGrad

                          Input orientation:                          
 ---------------------------------------------------------------------
 Center     Atomic      Atomic             Coordinates (Angstroms)
 Number     Number       Type             X           Y           Z
 ---------------------------------------------------------------------
      1         16           0        1.734080    0.578530    0.146830
      2          6           0        3.304220    0.051830   -0.013180
      3          6           0        3.463620   -1.348750   -0.435100
      4          7           0        4.664200   -1.618530   -0.512550
      5          7           0        5.166490   -2.768600   -0.863730
      6          6           0        6.415310   -2.493790   -0.781890
      7         16           0        7.537060   -3.766750   -1.165800
      8          6           0        8.889390   -2.761040   -0.852750
      9          6           0        8.597540   -1.498560   -0.474790
     10          6           0        7.131510   -1.173980   -0.382970
     11          6           0        6.588700    0.050460   -0.016450
     12         16           0        4.906180    0.876800    0.231080
     13          1           0        2.608940   -2.015070   -0.639250
     14          1           0        9.868190   -3.207780   -0.979790
     15          1           0        9.412670   -0.815610   -0.263960
     16          1           0        7.334370    0.821870    0.213740
 ---------------------------------------------------------------------
                    Distance matrix (angstroms):
                    1          2          3          4          5
     1  S    0.000000
     2  C    1.663838   0.000000
     3  C    2.654121   1.471411   0.000000
     4  N    3.721217   2.211113   1.232953   0.000000
     5  N    4.899587   3.485156   2.258199   1.303182   0.000000
     6  C    5.675877   4.092674   3.184942   1.976110   1.281316
     7  S    7.367431   5.816100   4.793074   3.646218   2.589817
     8  C    7.959293   6.309615   5.622097   4.390136   3.722924
     9  C    7.197763   5.534982   5.136259   3.935350   3.679182
    10  C    5.699494   4.035778   3.672421   2.510385   2.575897
    11  C    4.885985   3.284482   3.449519   2.595254   3.269199
    12  S    3.187206   1.818382   2.734565   2.614997   3.815142
    13  H    2.847817   2.268800   1.102786   2.096996   2.675679
    14  H    9.042630   7.392232   6.691128   5.461276   4.723593
    15  H    7.814929   6.174828   5.975343   4.822286   4.712106
    16  H    5.605974   4.109326   4.485007   3.689561   4.330372
                    6          7          8          9         10
     6  C    0.000000
     7  S    1.739580   0.000000
     8  C    2.489481   1.714132   0.000000
     9  C    2.418041   2.597460   1.349773   0.000000
    10  C    1.553698   2.738567   2.414455   1.504336   0.000000
    11  C    2.662550   4.097741   3.727882   2.577785   1.388608
    12  S    3.829420   5.516825   5.502229   4.445979   3.087855
    13  H    3.839007   5.256615   6.328199   6.013082   4.607250
    14  H    3.531477   2.404416   1.083404   2.188837   3.461496
    15  H    3.474004   3.611157   2.098855   1.084116   2.312203
    16  H    3.581836   4.795795   4.048794   2.730214   2.092996
                   11         12         13         14         15
    11  C    0.000000
    12  S    1.890762   0.000000
    13  H    4.526896   3.794430   0.000000
    14  H    4.722204   6.539996   7.364458   0.000000
    15  H    2.964143   4.839191   6.918836   2.538186   0.000000
    16  H    1.097308   2.428873   5.577231   4.907427   2.688656
                   16
    16  H    0.000000
 Stoichiometry    C7H4N2S3
 Framework group  C1[X(C7H4N2S3)]
 Deg. of freedom    42
 Full point group                 C1      NOp   1
 Largest Abelian subgroup         C1      NOp   1
 Largest concise Abelian subgroup C1      NOp   1
                         Standard orientation:                         
 ---------------------------------------------------------------------
 Center     Atomic      Atomic             Coordinates (Angstroms)
 Number     Number       Type             X           Y           Z
 ---------------------------------------------------------------------
      1         16           0       -4.138967   -0.500420    0.002552
      2          6           0       -2.523110   -0.103739    0.000774
      3          6           0       -1.590511   -1.241856    0.000414
      4          7           0       -0.431591   -0.821066    0.003726
      5          7           0        0.646028   -1.553867   -0.001182
      6          6           0        1.535395   -0.631481   -0.002319
      7         16           0        3.201310   -1.132342   -0.003293
      8          6           0        3.758635    0.488629    0.006274
      9          6           0        2.794259    1.433013    0.004376
     10          6           0        1.382069    0.914633   -0.000909
     11          6           0        0.229191    1.688649   -0.002738
     12         16           0       -1.651321    1.492031   -0.003494
     13          1           0       -1.925689   -2.292467   -0.002816
     14          1           0        4.832171    0.634360    0.013159
     15          1           0        3.086559    2.476969    0.009218
     16          1           0        0.413987    2.770282   -0.004839
 ---------------------------------------------------------------------
 Rotational constants (GHZ):           1.8182507           0.3534335           0.2959143
 Standard basis: 6-31G(2df,p) (6D, 7F)
 There are   404 symmetry adapted cartesian basis functions of A   symmetry.
 There are   368 symmetry adapted basis functions of A   symmetry.
   368 basis functions,   628 primitive gaussians,   404 cartesian basis functions
    54 alpha electrons       54 beta electrons
       nuclear repulsion energy       903.3410100544 Hartrees.
 NAtoms=   16 NActive=   16 NUniq=   16 SFac= 1.00D+00 NAtFMM=   60 NAOKFM=F Big=F
 Integral buffers will be    131072 words long.
 Raffenetti 2 integral format.
 Two-electron integral symmetry is turned on.
 One-electron integrals computed using PRISM.
 PrsmSu:  requested number of processors reduced to:  13 ShMem   1 Linda.
 NBasis=   368 RedAO= T EigKep=  1.60D-04  NBF=   368
 NBsUse=   368 1.00D-06 EigRej= -1.00D+00 NBFU=   368
 ExpMin= 1.17D-01 ExpMax= 2.19D+04 ExpMxC= 3.30D+03 IAcc=3 IRadAn=         5 AccDes= 0.00D+00
 Harris functional with IExCor=  402 and IRadAn=       5 diagonalized for initial guess.
 HarFok:  IExCor=  402 AccDes= 0.00D+00 IRadAn=         5 IDoV= 1 UseB2=F ITyADJ=14
 ICtDFT=  3500011 ScaDFX=  1.000000  1.000000  1.000000  1.000000
 FoFCou: FMM=F IPFlag=           0 FMFlag=      100000 FMFlg1=           0
         NFxFlg=           0 DoJE=T BraDBF=F KetDBF=T FulRan=T
         wScrn=  0.000000 ICntrl=       500 IOpCl=  0 I1Cent=   200000004 NGrid=           0
         NMat0=    1 NMatS0=      1 NMatT0=    0 NMatD0=    1 NMtDS0=    0 NMtDT0=    0
 Petite list used in FoFCou.
 Requested convergence on RMS density matrix=1.00D-08 within 128 cycles.
 Requested convergence on MAX density matrix=1.00D-06.
 Requested convergence on             energy=1.00D-06.
 No special actions if energy rises.
 Integral accuracy reduced to 1.0D-05 until final iterations.
 Initial convergence to 1.0D-05 achieved.  Increase integral accuracy.
 SCF Done:  E(RB3LYP) =  -1573.08930777     A.U. after   17 cycles
            NFock= 17  Conv=0.31D-08     -V/T= 2.0041

 **********************************************************************

            Population analysis using the SCF density.

 **********************************************************************

 Orbital symmetries:
       Occupied  (A) (A) (A) (A) (A) (A) (A) (A) (A) (A) (A) (A)
                 (A) (A) (A) (A) (A) (A) (A) (A) (A) (A) (A) (A)
                 (A) (A) (A) (A) (A) (A) (A) (A) (A) (A) (A) (A)
                 (A) (A) (A) (A) (A) (A) (A) (A) (A) (A) (A) (A)
                 (A) (A) (A) (A) (A) (A)
       Virtual   (A) (A) (A) (A) (A) (A) (A) (A) (A) (A) (A) (A)
                 (A) (A) (A) (A) (A) (A) (A) (A) (A) (A) (A) (A)
                 (A) (A) (A) (A) (A) (A) (A) (A) (A) (A) (A) (A)
                 (A) (A) (A) (A) (A) (A) (A) (A) (A) (A) (A) (A)
                 (A) (A) (A) (A) (A) (A) (A) (A) (A) (A) (A) (A)
                 (A) (A) (A) (A) (A) (A) (A) (A) (A) (A) (A) (A)
                 (A) (A) (A) (A) (A) (A) (A) (A) (A) (A) (A) (A)
                 (A) (A) (A) (A) (A) (A) (A) (A) (A) (A) (A) (A)
                 (A) (A) (A) (A) (A) (A) (A) (A) (A) (A) (A) (A)
                 (A) (A) (A) (A) (A) (A) (A) (A) (A) (A) (A) (A)
                 (A) (A) (A) (A) (A) (A) (A) (A) (A) (A) (A) (A)
                 (A) (A) (A) (A) (A) (A) (A) (A) (A) (A) (A) (A)
                 (A) (A) (A) (A) (A) (A) (A) (A) (A) (A) (A) (A)
                 (A) (A) (A) (A) (A) (A) (A) (A) (A) (A) (A) (A)
                 (A) (A) (A) (A) (A) (A) (A) (A) (A) (A) (A) (A)
                 (A) (A) (A) (A) (A) (A) (A) (A) (A) (A) (A) (A)
                 (A) (A) (A) (A) (A) (A) (A) (A) (A) (A) (A) (A)
                 (A) (A) (A) (A) (A) (A) (A) (A) (A) (A) (A) (A)
                 (A) (A) (A) (A) (A) (A) (A) (A) (A) (A) (A) (A)
                 (A) (A) (A) (A) (A) (A) (A) (A) (A) (A) (A) (A)
                 (A) (A) (A) (A) (A) (A) (A) (A) (A) (A) (A) (A)
                 (A) (A) (A) (A) (A) (A) (A) (A) (A) (A) (A) (A)
                 (A) (A) (A) (A) (A) (A) (A) (A) (A) (A) (A) (A)
                 (A) (A) (A) (A) (A) (A) (A) (A) (A) (A) (A) (A)
                 (A) (A) (A) (A) (A) (A) (A) (A) (A) (A) (A) (A)
                 (A) (A) (A) (A) (A) (A) (A) (A) (A) (A) (A) (A)
                 (A) (A)
 The electronic state is 1-A.
 Alpha  occ. eigenvalues --  -88.92518 -88.91869 -88.88023 -14.36833 -14.36480
 Alpha  occ. eigenvalues --  -10.29344 -10.28574 -10.26937 -10.25113 -10.23783
 Alpha  occ. eigenvalues --  -10.23591 -10.22177  -7.98424  -7.98244  -7.94426
 Alpha  occ. eigenvalues --   -5.94905  -5.94646  -5.94482  -5.94289  -5.94085
 Alpha  occ. eigenvalues --   -5.93946  -5.90758  -5.90694  -5.89942  -1.06590
 Alpha  occ. eigenvalues --   -0.91430  -0.87590  -0.81402  -0.79968  -0.74612
 Alpha  occ. eigenvalues --   -0.72169  -0.67355  -0.62374  -0.58825  -0.55674
 Alpha  occ. eigenvalues --   -0.54866  -0.50053  -0.48569  -0.46610  -0.45399
 Alpha  occ. eigenvalues --   -0.45300  -0.41259  -0.39803  -0.39256  -0.37380
 Alpha  occ. eigenvalues --   -0.36393  -0.35123  -0.33249  -0.32140  -0.29076
 Alpha  occ. eigenvalues --   -0.26400  -0.24577  -0.24175  -0.21762
 Alpha virt. eigenvalues --   -0.13178  -0.05472  -0.03878  -0.00948   0.01015
 Alpha virt. eigenvalues --    0.02300   0.03865   0.07799   0.08745   0.09071
 Alpha virt. eigenvalues --    0.10052   0.11360   0.14489   0.14935   0.17178
 Alpha virt. eigenvalues --    0.17777   0.18452   0.20333   0.24239   0.24582
 Alpha virt. eigenvalues --    0.27177   0.28057   0.28565   0.31099   0.32129
 Alpha virt. eigenvalues --    0.32229   0.32782   0.33694   0.34763   0.35034
 Alpha virt. eigenvalues --    0.36819   0.37297   0.37740   0.39102   0.39988
 Alpha virt. eigenvalues --    0.40003   0.40726   0.41431   0.41449   0.42960
 Alpha virt. eigenvalues --    0.44467   0.45715   0.46586   0.48297   0.49369
 Alpha virt. eigenvalues --    0.50377   0.52300   0.53376   0.53689   0.54689
 Alpha virt. eigenvalues --    0.56540   0.57287   0.60117   0.63003   0.63685
 Alpha virt. eigenvalues --    0.63702   0.66573   0.66667   0.67576   0.68129
 Alpha virt. eigenvalues --    0.69763   0.70337   0.70517   0.71313   0.74052
 Alpha virt. eigenvalues --    0.74957   0.75748   0.75780   0.78596   0.78696
 Alpha virt. eigenvalues --    0.79523   0.80666   0.81782   0.81939   0.83668
 Alpha virt. eigenvalues --    0.84023   0.86125   0.87450   0.88835   0.89448
 Alpha virt. eigenvalues --    0.90302   0.92126   0.93424   0.93988   0.96794
 Alpha virt. eigenvalues --    0.99494   1.01577   1.02470   1.06438   1.06734
 Alpha virt. eigenvalues --    1.09328   1.11355   1.12827   1.14318   1.15856
 Alpha virt. eigenvalues --    1.16088   1.21357   1.22984   1.23185   1.25590
 Alpha virt. eigenvalues --    1.26312   1.26771   1.29393   1.30076   1.31830
 Alpha virt. eigenvalues --    1.32700   1.35602   1.37807   1.37912   1.38020
 Alpha virt. eigenvalues --    1.41444   1.44535   1.45487   1.46550   1.47815
 Alpha virt. eigenvalues --    1.50983   1.53497   1.56464   1.56723   1.57889
 Alpha virt. eigenvalues --    1.59870   1.63510   1.64979   1.65214   1.65705
 Alpha virt. eigenvalues --    1.65813   1.67056   1.68095   1.68665   1.71132
 Alpha virt. eigenvalues --    1.72426   1.74203   1.76988   1.79308   1.79489
 Alpha virt. eigenvalues --    1.80115   1.80477   1.82757   1.85077   1.86829
 Alpha virt. eigenvalues --    1.89312   1.89581   1.90817   1.91895   1.92510
 Alpha virt. eigenvalues --    1.92734   1.94723   1.96639   1.99196   2.00377
 Alpha virt. eigenvalues --    2.05234   2.08857   2.11492   2.12790   2.17460
 Alpha virt. eigenvalues --    2.17690   2.19612   2.20297   2.20420   2.24106
 Alpha virt. eigenvalues --    2.25477   2.27081   2.29202   2.29417   2.30104
 Alpha virt. eigenvalues --    2.30315   2.31844   2.33867   2.34297   2.35870
 Alpha virt. eigenvalues --    2.40273   2.42571   2.44930   2.48360   2.48998
 Alpha virt. eigenvalues --    2.52450   2.55094   2.58015   2.65131   2.71774
 Alpha virt. eigenvalues --    2.71889   2.74302   2.79088   2.79696   2.82517
 Alpha virt. eigenvalues --    2.83667   2.85158   2.88653   2.90159   2.92037
 Alpha virt. eigenvalues --    2.92661   2.95304   2.95555   2.97828   2.99292
 Alpha virt. eigenvalues --    3.01731   3.05300   3.09098   3.10892   3.15643
 Alpha virt. eigenvalues --    3.16617   3.18684   3.18879   3.20369   3.20402
 Alpha virt. eigenvalues --    3.21485   3.25531   3.26204   3.28758   3.28967
 Alpha virt. eigenvalues --    3.30150   3.30932   3.33346   3.35676   3.37760
 Alpha virt. eigenvalues --    3.38595   3.42528   3.43198   3.46362   3.47403
 Alpha virt. eigenvalues --    3.49706   3.51343   3.57023   3.60062   3.66437
 Alpha virt. eigenvalues --    3.66577   3.68785   3.71117   3.71901   3.75038
 Alpha virt. eigenvalues --    3.77815   3.78364   3.82952   3.83317   3.90199
 Alpha virt. eigenvalues --    3.90470   3.93523   3.95884   3.96389   3.99006
 Alpha virt. eigenvalues --    3.99732   4.02995   4.06309   4.08895   4.09046
 Alpha virt. eigenvalues --    4.13561   4.15217   4.23834   4.24993   4.25453
 Alpha virt. eigenvalues --    4.27224   4.29278   4.31868   4.33292   4.35174
 Alpha virt. eigenvalues --    4.36268   4.39272   4.40536   4.42857   4.48706
 Alpha virt. eigenvalues --    4.48927   4.49269   4.49953   4.50402   4.54542
 Alpha virt. eigenvalues --    4.56171   4.59400   4.60161   4.63066   4.63514
 Alpha virt. eigenvalues --    4.68762   4.68974   4.70713   4.71045   4.73406
 Alpha virt. eigenvalues --    4.77632   4.82391   4.82984   4.83830   4.88433
 Alpha virt. eigenvalues --    4.92643   4.95737   5.01180   5.09452   5.10734
 Alpha virt. eigenvalues --    5.13517   5.17158   5.21269   5.23830   5.27863
 Alpha virt. eigenvalues --    5.28764   5.37275   5.39290   5.46472   5.47698
 Alpha virt. eigenvalues --    5.57040   5.67998   5.71569   5.80188   5.83399
 Alpha virt. eigenvalues --    5.92286   6.06232   6.27896  10.06037  10.53218
 Alpha virt. eigenvalues --   10.64202  10.93084  11.16577  11.34417  11.38873
 Alpha virt. eigenvalues --   11.55641  12.11687  13.28041  19.53979
          Condensed to atoms (all electrons):
               1          2          3          4          5          6
     1  S   15.869648   0.449196  -0.049713   0.000541  -0.000510   0.000095
     2  C    0.449196   4.834701   0.395712  -0.058041   0.009542  -0.001707
     3  C   -0.049713   0.395712   4.812033   0.660258  -0.091506   0.006628
     4  N    0.000541  -0.058041   0.660258   6.239232   0.301285  -0.033341
     5  N   -0.000510   0.009542  -0.091506   0.301285   6.600770   0.537849
     6  C    0.000095  -0.001707   0.006628  -0.033341   0.537849   4.580970
     7  S   -0.000001  -0.000015  -0.000539   0.007122  -0.046979   0.344150
     8  C    0.000000  -0.000001   0.000012   0.000293  -0.000394  -0.040468
     9  C    0.000000  -0.000012  -0.000118   0.000246   0.003887  -0.046500
    10  C   -0.000041   0.000908   0.001634  -0.048224  -0.018957   0.422818
    11  C    0.000441   0.003669  -0.000970   0.012831  -0.019064  -0.040836
    12  S   -0.041783   0.284592  -0.047523   0.010828  -0.000520  -0.005502
    13  H    0.007600  -0.057380   0.359172  -0.037121  -0.002245   0.002479
    14  H   -0.000000  -0.000000  -0.000000   0.000002  -0.000034   0.001798
    15  H    0.000000  -0.000000   0.000001   0.000003  -0.000082   0.003402
    16  H   -0.000014   0.000147   0.000185   0.003060  -0.000574   0.004053
               7          8          9         10         11         12
     1  S   -0.000001   0.000000   0.000000  -0.000041   0.000441  -0.041783
     2  C   -0.000015  -0.000001  -0.000012   0.000908   0.003669   0.284592
     3  C   -0.000539   0.000012  -0.000118   0.001634  -0.000970  -0.047523
     4  N    0.007122   0.000293   0.000246  -0.048224   0.012831   0.010828
     5  N   -0.046979  -0.000394   0.003887  -0.018957  -0.019064  -0.000520
     6  C    0.344150  -0.040468  -0.046500   0.422818  -0.040836  -0.005502
     7  S   15.543336   0.309390  -0.037707  -0.072020   0.006696  -0.000050
     8  C    0.309390   4.872911   0.644542   0.013679   0.003213  -0.000074
     9  C   -0.037707   0.644542   4.905140   0.403838  -0.048807   0.003120
    10  C   -0.072020   0.013679   0.403838   4.594443   0.567654  -0.013762
    11  C    0.006696   0.003213  -0.048807   0.567654   5.153734   0.266804
    12  S   -0.000050  -0.000074   0.003120  -0.013762   0.266804  15.591071
    13  H    0.000094   0.000000   0.000001  -0.000182   0.000068   0.006547
    14  H   -0.047505   0.373275  -0.026078   0.003165  -0.000067   0.000002
    15  H    0.007463  -0.048710   0.366336  -0.036292  -0.002959  -0.000031
    16  H   -0.000052   0.000044  -0.010958  -0.035237   0.336887  -0.038365
              13         14         15         16
     1  S    0.007600  -0.000000   0.000000  -0.000014
     2  C   -0.057380  -0.000000  -0.000000   0.000147
     3  C    0.359172  -0.000000   0.000001   0.000185
     4  N   -0.037121   0.000002   0.000003   0.003060
     5  N   -0.002245  -0.000034  -0.000082  -0.000574
     6  C    0.002479   0.001798   0.003402   0.004053
     7  S    0.000094  -0.047505   0.007463  -0.000052
     8  C    0.000000   0.373275  -0.048710   0.000044
     9  C    0.000001  -0.026078   0.366336  -0.010958
    10  C   -0.000182   0.003165  -0.036292  -0.035237
    11  C    0.000068  -0.000067  -0.002959   0.336887
    12  S    0.006547   0.000002  -0.000031  -0.038365
    13  H    0.585369   0.000000   0.000000   0.000006
    14  H    0.000000   0.556809  -0.005040  -0.000001
    15  H    0.000000  -0.005040   0.588966   0.003312
    16  H    0.000006  -0.000001   0.003312   0.594935
 Mulliken charges:
               1
     1  S   -0.235459
     2  C    0.138689
     3  C   -0.045267
     4  N   -0.058975
     5  N   -0.272468
     6  C    0.264112
     7  S   -0.013386
     8  C   -0.127714
     9  C   -0.156930
    10  C    0.216577
    11  C   -0.239293
    12  S   -0.015354
    13  H    0.135591
    14  H    0.143675
    15  H    0.123631
    16  H    0.142571
 Sum of Mulliken charges =  -0.00000
 Mulliken charges with hydrogens summed into heavy atoms:
               1
     1  S   -0.235459
     2  C    0.138689
     3  C    0.090324
     4  N   -0.058975
     5  N   -0.272468
     6  C    0.264112
     7  S   -0.013386
     8  C    0.015961
     9  C   -0.033299
    10  C    0.216577
    11  C   -0.096723
    12  S   -0.015354
 Electronic spatial extent (au):  <R**2>=           3347.6862
 Charge=             -0.0000 electrons
 Dipole moment (field-independent basis, Debye):
    X=              3.9449    Y=              1.4926    Z=              0.0023  Tot=              4.2179
 Quadrupole moment (field-independent basis, Debye-Ang):
   XX=            -87.0528   YY=            -86.6852   ZZ=            -90.6107
   XY=              8.1049   XZ=              0.0507   YZ=              0.0124
 Traceless Quadrupole moment (field-independent basis, Debye-Ang):
   XX=              1.0634   YY=              1.4310   ZZ=             -2.4944
   XY=              8.1049   XZ=              0.0507   YZ=              0.0124
 Octapole moment (field-independent basis, Debye-Ang**2):
  XXX=             99.3879  YYY=             12.5239  ZZZ=              0.0088  XYY=              6.7196
  XXY=              2.1075  XXZ=              0.2208  XZZ=             -4.5994  YZZ=             -4.3672
  YYZ=             -0.0085  XYZ=              0.0517
 Hexadecapole moment (field-independent basis, Debye-Ang**3):
 XXXX=          -3526.6859 YYYY=           -781.6762 ZZZZ=           -101.5747 XXXY=             69.2279
 XXXZ=              1.2025 YYYX=             40.3681 YYYZ=              0.0376 ZZZX=             -0.0465
 ZZZY=             -0.0084 XXYY=           -752.1935 XXZZ=           -649.4755 YYZZ=           -160.9255
 XXYZ=              0.2916 YYXZ=              0.0940 ZZXY=             -0.8133
 N-N= 9.033410100544D+02 E-N=-5.524426139330D+03  KE= 1.566734777400D+03
 PrsmSu:  requested number of processors reduced to:  13 ShMem   1 Linda.
 Calling FoFJK, ICntrl=      2127 FMM=F ISym2X=0 I1Cent= 0 IOpClX= 0 NMat=1 NMatS=1 NMatT=0.
 ***** Axes restored to original set *****
 -------------------------------------------------------------------
 Center     Atomic                   Forces (Hartrees/Bohr)
 Number     Number              X              Y              Z
 -------------------------------------------------------------------
      1       16           0.028828119    0.014815931    0.004398242
      2        6          -0.023177805   -0.027591674   -0.008309028
      3        6          -0.052864468    0.015103868    0.004540292
      4        7           0.005416486    0.016013137    0.004809616
      5        7           0.003031280   -0.027654294   -0.008249071
      6        6           0.049122678    0.002018236    0.000649186
      7       16          -0.011117670   -0.014352437   -0.004344726
      8        6           0.009798077    0.015997576    0.004713531
      9        6          -0.008891849    0.003925498    0.001237228
     10        6          -0.004990032   -0.012573249   -0.003717876
     11        6          -0.004245881   -0.021100598   -0.006362917
     12       16           0.017312402    0.015838290    0.004815184
     13        1           0.004971818    0.006907230    0.002039078
     14        1           0.000416019    0.004846766    0.001364994
     15        1          -0.005892277    0.005630103    0.001682737
     16        1          -0.007716895    0.002175617    0.000733529
 -------------------------------------------------------------------
 Cartesian Forces:  Max     0.052864468 RMS     0.015396428

 GradGradGradGradGradGradGradGradGradGradGradGradGradGradGradGradGradGrad
 Berny optimization.
 FormGI is forming the generalized inverse of G from B-inverse, IUseBI=4.
 Internal  Forces:  Max     0.055677699 RMS     0.016131357
 Search for a local minimum.
 Step number   1 out of a maximum of   85
 All quantities printed in internal units (Hartrees-Bohrs-Radians)
 Mixed Optimization -- RFO/linear search
 Second derivative matrix not updated -- first step.
 ITU=  0
     Eigenvalues ---    0.00362   0.00725   0.00974   0.01101   0.01266
     Eigenvalues ---    0.01478   0.01594   0.01688   0.01888   0.01942
     Eigenvalues ---    0.02425   0.02455   0.03631   0.16000   0.16000
     Eigenvalues ---    0.16000   0.16000   0.20196   0.22465   0.22716
     Eigenvalues ---    0.23489   0.24727   0.24738   0.24999   0.25000
     Eigenvalues ---    0.25000   0.25000   0.26894   0.30681   0.31621
     Eigenvalues ---    0.33376   0.33561   0.33982   0.35202   0.35502
     Eigenvalues ---    0.35586   0.40620   0.46808   0.52689   0.65062
     Eigenvalues ---    0.71509   0.88336
 RFO step:  Lambda=-4.76372413D-02 EMin= 3.62030250D-03
 Linear search not attempted -- first point.
 Maximum step size (   0.300) exceeded in Quadratic search.
    -- Step size scaled by   0.809
 Iteration  1 RMS(Cart)=  0.10722228 RMS(Int)=  0.00506118
 Iteration  2 RMS(Cart)=  0.00634057 RMS(Int)=  0.00007188
 Iteration  3 RMS(Cart)=  0.00000277 RMS(Int)=  0.00007186
 Iteration  4 RMS(Cart)=  0.00000000 RMS(Int)=  0.00007186
 Variable       Old X    -DE/DX   Delta X   Delta X   Delta X     New X
                                 (Linear)    (Quad)   (Total)
    R1        3.14420  -0.02209   0.00000  -0.03940  -0.03940   3.10480
    R2        2.78056   0.00218   0.00000   0.00831   0.00837   2.78893
    R3        3.43624   0.00023   0.00000  -0.00202  -0.00199   3.43425
    R4        2.32994   0.05455   0.00000   0.04869   0.04871   2.37865
    R5        2.08396  -0.00840   0.00000  -0.01783  -0.01783   2.06613
    R6        2.46266   0.05568   0.00000   0.06613   0.06618   2.52884
    R7        2.42134   0.03783   0.00000   0.04121   0.04120   2.46253
    R8        3.28733   0.00468   0.00000   0.01187   0.01188   3.29921
    R9        2.93606  -0.01845   0.00000  -0.04929  -0.04923   2.88684
   R10        3.23924   0.02207   0.00000   0.04750   0.04738   3.28662
   R11        2.55070  -0.00909   0.00000  -0.01256  -0.01262   2.53808
   R12        2.04734  -0.00178   0.00000  -0.00358  -0.00358   2.04376
   R13        2.84278  -0.02512   0.00000  -0.05760  -0.05753   2.78525
   R14        2.04868  -0.00056   0.00000  -0.00112  -0.00112   2.04756
   R15        2.62409  -0.02222   0.00000  -0.03810  -0.03815   2.58594
   R16        3.57302  -0.02191   0.00000  -0.07985  -0.07987   3.49315
   R17        2.07361  -0.00356   0.00000  -0.00744  -0.00744   2.06617
    A1        2.01654   0.03075   0.00000   0.08255   0.08247   2.09901
    A2        2.31154  -0.04509   0.00000  -0.12368  -0.12376   2.18778
    A3        1.95511   0.01434   0.00000   0.04113   0.04129   1.99640
    A4        1.90898  -0.00878   0.00000  -0.01386  -0.01372   1.89526
    A5        2.14630   0.00185   0.00000  -0.00298  -0.00305   2.14325
    A6        2.22791   0.00693   0.00000   0.01684   0.01677   2.24468
    A7        2.19610   0.04562   0.00000   0.11478   0.11470   2.31080
    A8        1.74078   0.01662   0.00000   0.06255   0.06255   1.80334
    A9        2.04592   0.01920   0.00000   0.05151   0.05150   2.09742
   A10        2.27557  -0.01695   0.00000  -0.04368  -0.04383   2.23175
   A11        1.96170  -0.00225   0.00000  -0.00783  -0.00768   1.95402
   A12        1.60990  -0.00861   0.00000  -0.01732  -0.01754   1.59235
   A13        2.01455  -0.00149   0.00000  -0.00396  -0.00413   2.01041
   A14        2.03690   0.00558   0.00000   0.02084   0.02093   2.05783
   A15        2.23174  -0.00409   0.00000  -0.01688  -0.01679   2.21494
   A16        2.01486  -0.00120   0.00000  -0.00824  -0.00824   2.00662
   A17        2.07271   0.00911   0.00000   0.03727   0.03727   2.10998
   A18        2.19561  -0.00790   0.00000  -0.02903  -0.02903   2.16658
   A19        1.82376   0.01356   0.00000   0.03736   0.03760   1.86136
   A20        2.26090   0.01498   0.00000   0.03160   0.03138   2.29228
   A21        2.19853  -0.02854   0.00000  -0.06896  -0.06899   2.12955
   A22        2.44616   0.02523   0.00000   0.05680   0.05672   2.50287
   A23        1.99284  -0.00513   0.00000   0.00078   0.00082   1.99366
   A24        1.84419  -0.02010   0.00000  -0.05758  -0.05754   1.78665
   A25        2.17498   0.00017   0.00000  -0.01975  -0.01969   2.15529
    D1       -3.13759  -0.00008   0.00000   0.00007   0.00008  -3.13752
    D2        0.00440  -0.00000   0.00000   0.00020   0.00021   0.00461
    D3        0.00556  -0.00004   0.00000  -0.00008  -0.00009   0.00548
    D4       -3.13563   0.00004   0.00000   0.00004   0.00005  -3.13558
    D5        3.14019  -0.00005   0.00000   0.00056   0.00057   3.14076
    D6       -0.00332   0.00001   0.00000   0.00103   0.00100  -0.00232
    D7       -3.13621   0.00001   0.00000  -0.00065  -0.00062  -3.13683
    D8        0.00496  -0.00007   0.00000  -0.00079  -0.00077   0.00419
    D9        3.13531  -0.00021   0.00000  -0.00130  -0.00128   3.13403
   D10        3.13810   0.00024   0.00000   0.00180   0.00185   3.13995
   D11       -0.00172   0.00017   0.00000   0.00098   0.00103  -0.00070
   D12       -3.13528  -0.00015   0.00000  -0.00173  -0.00176  -3.13704
   D13        0.00486  -0.00011   0.00000  -0.00110  -0.00111   0.00375
   D14        3.13626   0.00011   0.00000   0.00123   0.00124   3.13750
   D15       -0.00439   0.00010   0.00000   0.00076   0.00075  -0.00364
   D16       -0.00363   0.00002   0.00000   0.00040   0.00042  -0.00321
   D17        3.13890   0.00001   0.00000  -0.00008  -0.00007   3.13883
   D18       -0.00499   0.00013   0.00000   0.00151   0.00151  -0.00348
   D19        3.13651   0.00008   0.00000   0.00098   0.00098   3.13749
   D20        0.00363  -0.00011   0.00000  -0.00149  -0.00149   0.00214
   D21       -3.14061  -0.00006   0.00000  -0.00060  -0.00058  -3.14119
   D22       -3.13786  -0.00006   0.00000  -0.00090  -0.00091  -3.13876
   D23        0.00109  -0.00001   0.00000  -0.00000   0.00000   0.00109
   D24        0.00008   0.00004   0.00000   0.00064   0.00063   0.00072
   D25        3.14078   0.00008   0.00000   0.00116   0.00113  -3.14127
   D26       -3.13865  -0.00004   0.00000  -0.00045  -0.00043  -3.13908
   D27        0.00205  -0.00000   0.00000   0.00007   0.00007   0.00212
   D28        0.00322  -0.00003   0.00000  -0.00078  -0.00078   0.00244
   D29       -3.13782  -0.00008   0.00000  -0.00088  -0.00089  -3.13871
   D30       -3.13725  -0.00007   0.00000  -0.00142  -0.00139  -3.13865
   D31        0.00489  -0.00011   0.00000  -0.00152  -0.00150   0.00339
   D32        0.00155  -0.00010   0.00000  -0.00116  -0.00116   0.00039
   D33       -3.14057  -0.00005   0.00000  -0.00106  -0.00105   3.14157
         Item               Value     Threshold  Converged?
 Maximum Force            0.055678     0.000450     NO 
 RMS     Force            0.016131     0.000300     NO 
 Maximum Displacement     0.416583     0.001800     NO 
 RMS     Displacement     0.106811     0.001200     NO 
 Predicted change in Energy=-2.509542D-02
 GradGradGradGradGradGradGradGradGradGradGradGradGradGradGradGradGradGrad

                          Input orientation:                          
 ---------------------------------------------------------------------
 Center     Atomic      Atomic             Coordinates (Angstroms)
 Number     Number       Type             X           Y           Z
 ---------------------------------------------------------------------
      1         16           0        1.884564    0.798976    0.211130
      2          6           0        3.333098    0.056561   -0.012446
      3          6           0        3.387327   -1.355520   -0.438107
      4          7           0        4.594304   -1.698952   -0.536368
      5          7           0        5.179155   -2.850664   -0.886076
      6          6           0        6.450929   -2.578335   -0.805199
      7         16           0        7.636356   -3.805282   -1.175880
      8          6           0        8.938335   -2.703150   -0.836790
      9          6           0        8.560448   -1.468748   -0.466169
     10          6           0        7.103248   -1.255838   -0.406212
     11          6           0        6.560132   -0.052621   -0.045840
     12         16           0        4.959613    0.833297    0.219530
     13          1           0        2.490677   -1.953263   -0.622860
     14          1           0        9.950908   -3.068436   -0.941342
     15          1           0        9.296156   -0.708121   -0.233351
     16          1           0        7.297220    0.721125    0.185418
 ---------------------------------------------------------------------
                    Distance matrix (angstroms):
                    1          2          3          4          5
     1  S    0.000000
     2  C    1.642990   0.000000
     3  C    2.705856   1.475839   0.000000
     4  N    3.760464   2.224176   1.258727   0.000000
     5  N    5.037664   3.552902   2.376295   1.338203   0.000000
     6  C    5.769821   4.158365   3.318989   2.071868   1.303117
     7  S    7.497073   5.897919   4.959828   3.754955   2.652004
     8  C    7.944729   6.301923   5.726146   4.468699   3.762397
     9  C    7.082989   5.464213   5.174436   3.973439   3.676841
    10  C    5.642520   4.011418   3.717394   2.551095   2.544774
    11  C    4.759431   3.229053   3.452261   2.610651   3.231430
    12  S    3.075251   1.817328   2.774074   2.667792   3.852548
    13  H    2.939002   2.263111   1.093349   2.120708   2.846493
    14  H    9.019477   7.377253   6.802053   5.543708   4.777040
    15  H    7.576318   6.015946   5.947715   4.814663   4.686816
    16  H    5.413276   4.024308   4.470850   3.699121   4.288587
                    6          7          8          9         10
     6  C    0.000000
     7  S    1.745865   0.000000
     8  C    2.490737   1.739203   0.000000
     9  C    2.407529   2.610944   1.343096   0.000000
    10  C    1.527648   2.715927   2.376480   1.473892   0.000000
    11  C    2.639655   4.064199   3.647843   2.486635   1.368420
    12  S    3.861777   5.534306   5.427016   4.328465   3.057975
    13  H    4.013422   5.496710   6.494644   6.091094   4.670027
    14  H    3.536749   2.440308   1.081512   2.172135   3.417754
    15  H    3.452540   3.638091   2.114785   1.083524   2.266875
    16  H    3.547389   4.738831   3.932408   2.610720   2.072688
                   11         12         13         14         15
    11  C    0.000000
    12  S    1.848495   0.000000
    13  H    4.528339   3.817090   0.000000
    14  H    4.625411   6.440821   7.549841   0.000000
    15  H    2.819693   4.624574   6.929404   2.549713   0.000000
    16  H    1.093372   2.340545   5.559543   4.761557   2.492762
                   16
    16  H    0.000000
 Stoichiometry    C7H4N2S3
 Framework group  C1[X(C7H4N2S3)]
 Deg. of freedom    42
 Full point group                 C1      NOp   1
 Largest Abelian subgroup         C1      NOp   1
 Largest concise Abelian subgroup C1      NOp   1
                         Standard orientation:                         
 ---------------------------------------------------------------------
 Center     Atomic      Atomic             Coordinates (Angstroms)
 Number     Number       Type             X           Y           Z
 ---------------------------------------------------------------------
      1         16           0       -4.159604   -0.359168    0.001186
      2          6           0       -2.527155   -0.173352    0.000349
      3          6           0       -1.643955   -1.355747   -0.000240
      4          7           0       -0.447983   -0.963283    0.004038
      5          7           0        0.717504   -1.620867    0.000851
      6          6           0        1.602156   -0.664050   -0.000863
      7         16           0        3.306089   -1.044383   -0.002758
      8          6           0        3.721475    0.644475    0.003575
      9          6           0        2.677789    1.489830    0.002845
     10          6           0        1.353322    0.843196   -0.000359
     11          6           0        0.192374    1.567607   -0.001828
     12         16           0       -1.650082    1.418319   -0.002258
     13          1           0       -2.025827   -2.380232   -0.004387
     14          1           0        4.770457    0.907695    0.008229
     15          1           0        2.830704    2.562504    0.006149
     16          1           0        0.339535    2.651029   -0.003801
 ---------------------------------------------------------------------
 Rotational constants (GHZ):           1.8691995           0.3486303           0.2938280
 Standard basis: 6-31G(2df,p) (6D, 7F)
 There are   404 symmetry adapted cartesian basis functions of A   symmetry.
 There are   368 symmetry adapted basis functions of A   symmetry.
   368 basis functions,   628 primitive gaussians,   404 cartesian basis functions
    54 alpha electrons       54 beta electrons
       nuclear repulsion energy       901.4148441113 Hartrees.
 NAtoms=   16 NActive=   16 NUniq=   16 SFac= 1.00D+00 NAtFMM=   60 NAOKFM=F Big=F
 Integral buffers will be    131072 words long.
 Raffenetti 2 integral format.
 Two-electron integral symmetry is turned on.
 One-electron integrals computed using PRISM.
 PrsmSu:  requested number of processors reduced to:  13 ShMem   1 Linda.
 NBasis=   368 RedAO= T EigKep=  1.70D-04  NBF=   368
 NBsUse=   368 1.00D-06 EigRej= -1.00D+00 NBFU=   368
 Initial guess from the checkpoint file:  "SdC1CdNNdc2sccc2dCS1.chk"
 B after Tr=     0.000000    0.000000    0.000000
         Rot=    0.999987    0.000080    0.000016   -0.005093 Ang=   0.58 deg.
 ExpMin= 1.17D-01 ExpMax= 2.19D+04 ExpMxC= 3.30D+03 IAcc=2 IRadAn=         4 AccDes= 0.00D+00
 Harris functional with IExCor=  402 and IRadAn=       4 diagonalized for initial guess.
 HarFok:  IExCor=  402 AccDes= 0.00D+00 IRadAn=         4 IDoV= 1 UseB2=F ITyADJ=14
 ICtDFT=  3500011 ScaDFX=  1.000000  1.000000  1.000000  1.000000
 FoFCou: FMM=F IPFlag=           0 FMFlag=      100000 FMFlg1=           0
         NFxFlg=           0 DoJE=T BraDBF=F KetDBF=T FulRan=T
         wScrn=  0.000000 ICntrl=       500 IOpCl=  0 I1Cent=   200000004 NGrid=           0
         NMat0=    1 NMatS0=      1 NMatT0=    0 NMatD0=    1 NMtDS0=    0 NMtDT0=    0
 Petite list used in FoFCou.
 Requested convergence on RMS density matrix=1.00D-08 within 128 cycles.
 Requested convergence on MAX density matrix=1.00D-06.
 Requested convergence on             energy=1.00D-06.
 No special actions if energy rises.
 Integral accuracy reduced to 1.0D-05 until final iterations.
 Initial convergence to 1.0D-05 achieved.  Increase integral accuracy.
 SCF Done:  E(RB3LYP) =  -1573.11461245     A.U. after   15 cycles
            NFock= 15  Conv=0.27D-08     -V/T= 2.0042
 PrsmSu:  requested number of processors reduced to:  13 ShMem   1 Linda.
 Calling FoFJK, ICntrl=      2127 FMM=F ISym2X=0 I1Cent= 0 IOpClX= 0 NMat=1 NMatS=1 NMatT=0.
 ***** Axes restored to original set *****
 -------------------------------------------------------------------
 Center     Atomic                   Forces (Hartrees/Bohr)
 Number     Number              X              Y              Z
 -------------------------------------------------------------------
      1       16           0.017417699    0.006767119    0.002006283
      2        6          -0.013059063   -0.019906677   -0.006022305
      3        6          -0.008512314    0.001406190    0.000477421
      4        7           0.014634494    0.003099979    0.000836434
      5        7          -0.006445163   -0.010083418   -0.002999769
      6        6           0.009367171    0.012379633    0.003804653
      7       16          -0.009592364   -0.004066934   -0.001169358
      8        6           0.008456372    0.007504227    0.002224203
      9        6          -0.002664032    0.000276218    0.000101670
     10        6          -0.003387384   -0.013305637   -0.003997233
     11        6          -0.013616447    0.000146420   -0.000008578
     12       16           0.013564283    0.006852436    0.002103265
     13        1          -0.000342713    0.003192288    0.000923047
     14        1          -0.000225135    0.001143489    0.000260127
     15        1          -0.003368277    0.002661662    0.000794326
     16        1          -0.002227124    0.001933004    0.000665814
 -------------------------------------------------------------------
 Cartesian Forces:  Max     0.019906677 RMS     0.007330107

 GradGradGradGradGradGradGradGradGradGradGradGradGradGradGradGradGradGrad
 Berny optimization.
 Using GEDIIS/GDIIS optimizer.
 FormGI is forming the generalized inverse of G from B-inverse, IUseBI=4.
 Internal  Forces:  Max     0.026868010 RMS     0.006270578
 Search for a local minimum.
 Step number   2 out of a maximum of   85
 All quantities printed in internal units (Hartrees-Bohrs-Radians)
 Mixed Optimization -- RFO/linear search
 Update second derivatives using D2CorX and points    1    2
 DE= -2.53D-02 DEPred=-2.51D-02 R= 1.01D+00
 TightC=F SS=  1.41D+00  RLast= 3.00D-01 DXNew= 5.0454D-01 9.0015D-01
 Trust test= 1.01D+00 RLast= 3.00D-01 DXMaxT set to 5.05D-01
 ITU=  1  0
 Use linear search instead of GDIIS.
     Eigenvalues ---    0.00363   0.00797   0.00980   0.01104   0.01258
     Eigenvalues ---    0.01490   0.01629   0.01699   0.01891   0.01932
     Eigenvalues ---    0.02414   0.02484   0.03637   0.14654   0.16000
     Eigenvalues ---    0.16000   0.16043   0.16993   0.21770   0.22507
     Eigenvalues ---    0.22809   0.23511   0.24727   0.24750   0.25000
     Eigenvalues ---    0.25000   0.26754   0.29659   0.31287   0.32743
     Eigenvalues ---    0.33423   0.33699   0.34128   0.35501   0.35580
     Eigenvalues ---    0.35825   0.40244   0.47571   0.52645   0.68765
     Eigenvalues ---    0.74496   0.89132
 RFO step:  Lambda=-1.17186432D-02 EMin= 3.62982845D-03
 Quartic linear search produced a step of  0.50921.
 Iteration  1 RMS(Cart)=  0.10532003 RMS(Int)=  0.00514929
 Iteration  2 RMS(Cart)=  0.00610579 RMS(Int)=  0.00021528
 Iteration  3 RMS(Cart)=  0.00000306 RMS(Int)=  0.00021527
 Iteration  4 RMS(Cart)=  0.00000000 RMS(Int)=  0.00021527
 Variable       Old X    -DE/DX   Delta X   Delta X   Delta X     New X
                                 (Linear)    (Quad)   (Total)
    R1        3.10480  -0.01203  -0.02006  -0.02804  -0.04810   3.05670
    R2        2.78893  -0.00251   0.00426  -0.01238  -0.00840   2.78053
    R3        3.43425  -0.00227  -0.00101  -0.01309  -0.01425   3.42000
    R4        2.37865   0.01266   0.02480   0.00375   0.02848   2.40713
    R5        2.06613  -0.00162  -0.00908  -0.00009  -0.00917   2.05696
    R6        2.52884   0.00392   0.03370  -0.01489   0.01856   2.54740
    R7        2.46253   0.00539   0.02098  -0.00364   0.01743   2.47997
    R8        3.29921  -0.00141   0.00605  -0.01063  -0.00464   3.29457
    R9        2.88684  -0.01017  -0.02507  -0.03547  -0.06004   2.82680
   R10        3.28662   0.01045   0.02412   0.02731   0.05117   3.33779
   R11        2.53808  -0.00347  -0.00642  -0.00437  -0.01085   2.52723
   R12        2.04376  -0.00062  -0.00182  -0.00115  -0.00297   2.04079
   R13        2.78525  -0.00769  -0.02930  -0.01366  -0.04274   2.74251
   R14        2.04756  -0.00025  -0.00057  -0.00058  -0.00115   2.04642
   R15        2.58594  -0.00390  -0.01943   0.00143  -0.01774   2.56820
   R16        3.49315  -0.02069  -0.04067  -0.11454  -0.15507   3.33807
   R17        2.06617   0.00001  -0.00379   0.00291  -0.00088   2.06530
    A1        2.09901   0.01797   0.04200   0.06954   0.11184   2.21085
    A2        2.18778  -0.02687  -0.06302  -0.10361  -0.16633   2.02144
    A3        1.99640   0.00890   0.02102   0.03408   0.05449   2.05089
    A4        1.89526  -0.00100  -0.00699   0.00175  -0.00580   1.88946
    A5        2.14325  -0.00252  -0.00155  -0.02285  -0.02412   2.11913
    A6        2.24468   0.00352   0.00854   0.02110   0.02992   2.27460
    A7        2.31080   0.00096   0.05841  -0.04203   0.01658   2.32738
    A8        1.80334  -0.01161   0.03185  -0.08723  -0.05523   1.74810
    A9        2.09742   0.00142   0.02622  -0.01224   0.01356   2.11098
   A10        2.23175  -0.00015  -0.02232   0.01787  -0.00407   2.22768
   A11        1.95402  -0.00127  -0.00391  -0.00563  -0.00949   1.94453
   A12        1.59235  -0.00107  -0.00893   0.00597  -0.00338   1.58898
   A13        2.01041  -0.00390  -0.00210  -0.02088  -0.02314   1.98727
   A14        2.05783   0.00299   0.01066   0.01131   0.02204   2.07987
   A15        2.21494   0.00091  -0.00855   0.00957   0.00110   2.21605
   A16        2.00662   0.00014  -0.00420   0.00280  -0.00111   2.00551
   A17        2.10998   0.00439   0.01898   0.02308   0.04192   2.15190
   A18        2.16658  -0.00453  -0.01478  -0.02588  -0.04081   2.12578
   A19        1.86136   0.00611   0.01915   0.01775   0.03713   1.89849
   A20        2.29228   0.00742   0.01598   0.02813   0.04453   2.33681
   A21        2.12955  -0.01353  -0.03513  -0.04588  -0.08167   2.04788
   A22        2.50287   0.00808   0.02888   0.02286   0.05224   2.55511
   A23        1.99366  -0.00092   0.00042   0.00310   0.00327   1.99693
   A24        1.78665  -0.00716  -0.02930  -0.02596  -0.05551   1.73114
   A25        2.15529  -0.01068  -0.01003  -0.05948  -0.06958   2.08570
    D1       -3.13752  -0.00003   0.00004  -0.00104  -0.00098  -3.13850
    D2        0.00461  -0.00001   0.00011  -0.00031  -0.00018   0.00443
    D3        0.00548  -0.00002  -0.00004  -0.00158  -0.00166   0.00382
    D4       -3.13558  -0.00000   0.00002  -0.00085  -0.00085  -3.13644
    D5        3.14076   0.00002   0.00029   0.00278   0.00313  -3.13930
    D6       -0.00232   0.00006   0.00051   0.00352   0.00397   0.00165
    D7       -3.13683  -0.00005  -0.00031  -0.00086  -0.00113  -3.13796
    D8        0.00419  -0.00007  -0.00039  -0.00167  -0.00206   0.00213
    D9        3.13403  -0.00005  -0.00065  -0.00068  -0.00135   3.13268
   D10        3.13995   0.00007   0.00094   0.00154   0.00254  -3.14070
   D11       -0.00070   0.00004   0.00052   0.00049   0.00106   0.00037
   D12       -3.13704  -0.00009  -0.00090  -0.00355  -0.00449  -3.14153
   D13        0.00375  -0.00006  -0.00057  -0.00265  -0.00324   0.00051
   D14        3.13750   0.00005   0.00063   0.00282   0.00349   3.14099
   D15       -0.00364   0.00003   0.00038   0.00161   0.00197  -0.00168
   D16       -0.00321   0.00002   0.00021   0.00184   0.00212  -0.00109
   D17        3.13883  -0.00000  -0.00004   0.00063   0.00060   3.13943
   D18       -0.00348   0.00008   0.00077   0.00295   0.00373   0.00025
   D19        3.13749   0.00007   0.00050   0.00255   0.00306   3.14055
   D20        0.00214  -0.00007  -0.00076  -0.00236  -0.00312  -0.00098
   D21       -3.14119  -0.00003  -0.00030  -0.00068  -0.00091   3.14108
   D22       -3.13876  -0.00006  -0.00046  -0.00191  -0.00240  -3.14116
   D23        0.00109  -0.00001   0.00000  -0.00023  -0.00019   0.00090
   D24        0.00072   0.00002   0.00032   0.00027   0.00060   0.00132
   D25       -3.14127   0.00005   0.00057   0.00136   0.00187  -3.13940
   D26       -3.13908  -0.00003  -0.00022  -0.00153  -0.00166  -3.14073
   D27        0.00212  -0.00000   0.00003  -0.00044  -0.00039   0.00173
   D28        0.00244  -0.00005  -0.00040  -0.00137  -0.00176   0.00068
   D29       -3.13871  -0.00007  -0.00045  -0.00240  -0.00287  -3.14158
   D30       -3.13865  -0.00008  -0.00071  -0.00276  -0.00341   3.14113
   D31        0.00339  -0.00011  -0.00077  -0.00379  -0.00452  -0.00113
   D32        0.00039  -0.00004  -0.00059  -0.00262  -0.00320  -0.00281
   D33        3.14157  -0.00002  -0.00054  -0.00166  -0.00217   3.13940
         Item               Value     Threshold  Converged?
 Maximum Force            0.026868     0.000450     NO 
 RMS     Force            0.006271     0.000300     NO 
 Maximum Displacement     0.465544     0.001800     NO 
 RMS     Displacement     0.106580     0.001200     NO 
 Predicted change in Energy=-8.812693D-03
 GradGradGradGradGradGradGradGradGradGradGradGradGradGradGradGradGradGrad

                          Input orientation:                          
 ---------------------------------------------------------------------
 Center     Atomic      Atomic             Coordinates (Angstroms)
 Number     Number       Type             X           Y           Z
 ---------------------------------------------------------------------
      1         16           0        2.130920    0.967988    0.255459
      2          6           0        3.417718    0.028289   -0.023008
      3          6           0        3.401741   -1.380613   -0.446961
      4          7           0        4.606982   -1.777502   -0.558475
      5          7           0        5.165349   -2.952414   -0.911995
      6          6           0        6.436968   -2.641511   -0.819444
      7         16           0        7.675342   -3.816108   -1.174738
      8          6           0        8.941199   -2.636441   -0.820135
      9          6           0        8.475978   -1.436209   -0.457474
     10          6           0        7.029278   -1.326038   -0.424033
     11          6           0        6.502968   -0.125852   -0.064140
     12         16           0        5.031885    0.810843    0.216577
     13          1           0        2.466743   -1.912212   -0.614304
     14          1           0        9.976058   -2.932087   -0.909179
     15          1           0        9.117814   -0.601128   -0.205695
     16          1           0        7.245528    0.642026    0.166983
 ---------------------------------------------------------------------
                    Distance matrix (angstroms):
                    1          2          3          4          5
     1  S    0.000000
     2  C    1.617537   0.000000
     3  C    2.761214   1.471393   0.000000
     4  N    3.785642   2.227544   1.273798   0.000000
     5  N    5.093158   3.567787   2.407723   1.348024   0.000000
     6  C    5.720660   4.108286   3.307750   2.040458   1.312342
     7  S    7.461478   5.850918   4.972421   3.735041   2.667409
     8  C    7.780020   6.184258   5.692272   4.426249   3.790161
     9  C    6.822624   5.283892   5.074552   3.885333   3.669568
    10  C    5.451437   3.877936   3.628020   2.467673   2.521396
    11  C    4.518123   3.089373   3.367283   2.562631   3.239990
    12  S    2.905479   1.809787   2.810718   2.735101   3.931105
    13  H    3.027344   2.240430   1.088495   2.145201   2.907424
    14  H    8.838165   7.249893   6.770699   5.503003   4.810752
    15  H    7.175756   5.737651   5.774019   4.675031   4.652890
    16  H    5.125748   3.881353   4.386650   3.652715   4.290843
                    6          7          8          9         10
     6  C    0.000000
     7  S    1.743411   0.000000
     8  C    2.504236   1.766281   0.000000
     9  C    2.396108   2.611398   1.337352   0.000000
    10  C    1.495878   2.679815   2.351489   1.451274   0.000000
    11  C    2.627429   4.028136   3.580441   2.400940   1.359033
    12  S    3.868636   5.507477   5.314252   4.167177   2.994364
    13  H    4.041862   5.573905   6.518087   6.030097   4.603968
    14  H    3.552132   2.478973   1.079939   2.166086   3.390911
    15  H    3.424439   3.654568   2.133361   1.082916   2.221520
    16  H    3.522559   4.675458   3.820739   2.494597   2.066238
                   11         12         13         14         15
    11  C    0.000000
    12  S    1.766433   0.000000
    13  H    4.448020   3.832146   0.000000
    14  H    4.544381   6.302515   7.583990   0.000000
    15  H    2.661455   4.343592   6.791365   2.581636   0.000000
    16  H    1.092908   2.220625   5.474607   4.624738   2.278107
                   16
    16  H    0.000000
 Stoichiometry    C7H4N2S3
 Framework group  C1[X(C7H4N2S3)]
 Deg. of freedom    42
 Full point group                 C1      NOp   1
 Largest Abelian subgroup         C1      NOp   1
 Largest concise Abelian subgroup C1      NOp   1
                         Standard orientation:                         
 ---------------------------------------------------------------------
 Center     Atomic      Atomic             Coordinates (Angstroms)
 Number     Number       Type             X           Y           Z
 ---------------------------------------------------------------------
      1         16           0       -4.084641   -0.253431   -0.002817
      2          6           0       -2.467171   -0.267977   -0.000492
      3          6           0       -1.599049   -1.455984   -0.000998
      4          7           0       -0.386914   -1.064505    0.005083
      5          7           0        0.794921   -1.712914    0.004043
      6          6           0        1.619201   -0.691739    0.001772
      7         16           0        3.345811   -0.933173   -0.001821
      8          6           0        3.622171    0.811353   -0.003157
      9          6           0        2.498849    1.537061   -0.000754
     10          6           0        1.271182    0.763092    0.001186
     11          6           0        0.099432    1.451549    0.001020
     12         16           0       -1.664303    1.353974    0.001922
     13          1           0       -2.014285   -2.462146   -0.007214
     14          1           0        4.635907    1.183652   -0.004505
     15          1           0        2.490705    2.619946   -0.000690
     16          1           0        0.214057    2.538429    0.000531
 ---------------------------------------------------------------------
 Rotational constants (GHZ):           1.8954532           0.3583995           0.3014086
 Standard basis: 6-31G(2df,p) (6D, 7F)
 There are   404 symmetry adapted cartesian basis functions of A   symmetry.
 There are   368 symmetry adapted basis functions of A   symmetry.
   368 basis functions,   628 primitive gaussians,   404 cartesian basis functions
    54 alpha electrons       54 beta electrons
       nuclear repulsion energy       909.7819624464 Hartrees.
 NAtoms=   16 NActive=   16 NUniq=   16 SFac= 1.00D+00 NAtFMM=   60 NAOKFM=F Big=F
 Integral buffers will be    131072 words long.
 Raffenetti 2 integral format.
 Two-electron integral symmetry is turned on.
 One-electron integrals computed using PRISM.
 PrsmSu:  requested number of processors reduced to:  13 ShMem   1 Linda.
 NBasis=   368 RedAO= T EigKep=  1.72D-04  NBF=   368
 NBsUse=   368 1.00D-06 EigRej= -1.00D+00 NBFU=   368
 Initial guess from the checkpoint file:  "SdC1CdNNdc2sccc2dCS1.chk"
 B after Tr=    -0.000000    0.000000   -0.000000
         Rot=    0.999960   -0.000054    0.000002   -0.008961 Ang=  -1.03 deg.
 ExpMin= 1.17D-01 ExpMax= 2.19D+04 ExpMxC= 3.30D+03 IAcc=2 IRadAn=         4 AccDes= 0.00D+00
 Harris functional with IExCor=  402 and IRadAn=       4 diagonalized for initial guess.
 HarFok:  IExCor=  402 AccDes= 0.00D+00 IRadAn=         4 IDoV= 1 UseB2=F ITyADJ=14
 ICtDFT=  3500011 ScaDFX=  1.000000  1.000000  1.000000  1.000000
 FoFCou: FMM=F IPFlag=           0 FMFlag=      100000 FMFlg1=           0
         NFxFlg=           0 DoJE=T BraDBF=F KetDBF=T FulRan=T
         wScrn=  0.000000 ICntrl=       500 IOpCl=  0 I1Cent=   200000004 NGrid=           0
         NMat0=    1 NMatS0=      1 NMatT0=    0 NMatD0=    1 NMtDS0=    0 NMtDT0=    0
 Petite list used in FoFCou.
 Requested convergence on RMS density matrix=1.00D-08 within 128 cycles.
 Requested convergence on MAX density matrix=1.00D-06.
 Requested convergence on             energy=1.00D-06.
 No special actions if energy rises.
 Integral accuracy reduced to 1.0D-05 until final iterations.
 Initial convergence to 1.0D-05 achieved.  Increase integral accuracy.
 SCF Done:  E(RB3LYP) =  -1573.12187820     A.U. after   15 cycles
            NFock= 15  Conv=0.35D-08     -V/T= 2.0040
 PrsmSu:  requested number of processors reduced to:  13 ShMem   1 Linda.
 Calling FoFJK, ICntrl=      2127 FMM=F ISym2X=0 I1Cent= 0 IOpClX= 0 NMat=1 NMatS=1 NMatT=0.
 ***** Axes restored to original set *****
 -------------------------------------------------------------------
 Center     Atomic                   Forces (Hartrees/Bohr)
 Number     Number              X              Y              Z
 -------------------------------------------------------------------
      1       16          -0.006459443    0.004693638    0.001367253
      2        6           0.002067773   -0.012616469   -0.003760227
      3        6           0.003701820    0.003965539    0.001228379
      4        7          -0.006978999    0.000032245    0.000041550
      5        7          -0.008372702    0.004578062    0.001340885
      6        6           0.010247487    0.001509095    0.000453598
      7       16          -0.001473369    0.001490209    0.000430568
      8        6           0.005732592   -0.000929585   -0.000182607
      9        6           0.004980000   -0.003120452   -0.000978980
     10        6           0.002324068   -0.006974589   -0.002170798
     11        6          -0.010220090    0.012687508    0.003871953
     12       16           0.001819628   -0.001693771   -0.000529224
     13        1          -0.001562546   -0.000764426   -0.000238882
     14        1          -0.000351782   -0.001513627   -0.000481127
     15        1           0.000232371   -0.000198820   -0.000069369
     16        1           0.004313193   -0.001144558   -0.000322971
 -------------------------------------------------------------------
 Cartesian Forces:  Max     0.012687508 RMS     0.004491952

 GradGradGradGradGradGradGradGradGradGradGradGradGradGradGradGradGradGrad
 Berny optimization.
 Using GEDIIS/GDIIS optimizer.
 FormGI is forming the generalized inverse of G from B-inverse, IUseBI=4.
 Internal  Forces:  Max     0.012730606 RMS     0.003615565
 Search for a local minimum.
 Step number   3 out of a maximum of   85
 All quantities printed in internal units (Hartrees-Bohrs-Radians)
 Mixed Optimization -- RFO/linear search
 Update second derivatives using D2CorX and points    1    2    3
 DE= -7.27D-03 DEPred=-8.81D-03 R= 8.24D-01
 TightC=F SS=  1.41D+00  RLast= 3.32D-01 DXNew= 8.4853D-01 9.9642D-01
 Trust test= 8.24D-01 RLast= 3.32D-01 DXMaxT set to 8.49D-01
 ITU=  1  1  0
 Use linear search instead of GDIIS.
     Eigenvalues ---    0.00372   0.00866   0.00972   0.01119   0.01238
     Eigenvalues ---    0.01504   0.01674   0.01703   0.01889   0.01943
     Eigenvalues ---    0.02411   0.02485   0.03630   0.14138   0.16000
     Eigenvalues ---    0.16016   0.16281   0.16775   0.21614   0.22638
     Eigenvalues ---    0.23017   0.23762   0.24753   0.24775   0.25000
     Eigenvalues ---    0.26348   0.26730   0.30658   0.32165   0.32540
     Eigenvalues ---    0.33379   0.33552   0.34071   0.35501   0.35583
     Eigenvalues ---    0.36265   0.41234   0.49687   0.52890   0.69425
     Eigenvalues ---    0.72770   0.89776
 RFO step:  Lambda=-1.73362923D-03 EMin= 3.72112150D-03
 Quartic linear search produced a step of -0.16554.
 Iteration  1 RMS(Cart)=  0.02472033 RMS(Int)=  0.00016023
 Iteration  2 RMS(Cart)=  0.00022943 RMS(Int)=  0.00003660
 Iteration  3 RMS(Cart)=  0.00000001 RMS(Int)=  0.00003660
 Variable       Old X    -DE/DX   Delta X   Delta X   Delta X     New X
                                 (Linear)    (Quad)   (Total)
    R1        3.05670   0.00810   0.00796   0.00654   0.01451   3.07121
    R2        2.78053  -0.00730   0.00139  -0.01953  -0.01809   2.76243
    R3        3.42000   0.00624   0.00236   0.01754   0.01991   3.43992
    R4        2.40713  -0.00532  -0.00471   0.00079  -0.00390   2.40323
    R5        2.05696   0.00175   0.00152   0.00235   0.00387   2.06083
    R6        2.54740  -0.00246  -0.00307   0.00056  -0.00246   2.54494
    R7        2.47997   0.01053  -0.00289   0.01580   0.01291   2.49288
    R8        3.29457  -0.00034   0.00077  -0.00235  -0.00157   3.29300
    R9        2.82680  -0.00241   0.00994  -0.01958  -0.00971   2.81709
   R10        3.33779   0.00041  -0.00847   0.01175   0.00332   3.34111
   R11        2.52723   0.00277   0.00180   0.00222   0.00402   2.53125
   R12        2.04079   0.00012   0.00049  -0.00036   0.00013   2.04092
   R13        2.74251   0.00942   0.00708   0.01578   0.02282   2.76533
   R14        2.04642  -0.00003   0.00019  -0.00032  -0.00013   2.04629
   R15        2.56820   0.01273   0.00294   0.01903   0.02192   2.59012
   R16        3.33807   0.00241   0.02567  -0.02333   0.00231   3.34038
   R17        2.06530   0.00206   0.00015   0.00481   0.00495   2.07025
    A1        2.21085   0.00004  -0.01851   0.02532   0.00676   2.21760
    A2        2.02144   0.00012   0.02753  -0.03475  -0.00726   2.01419
    A3        2.05089  -0.00017  -0.00902   0.00943   0.00050   2.05139
    A4        1.88946  -0.00431   0.00096  -0.01991  -0.01884   1.87062
    A5        2.11913   0.00204   0.00399   0.00328   0.00722   2.12635
    A6        2.27460   0.00227  -0.00495   0.01662   0.01162   2.28622
    A7        2.32738   0.00084  -0.00274   0.00778   0.00499   2.33237
    A8        1.74810   0.00960   0.00914   0.02092   0.03007   1.77818
    A9        2.11098  -0.00080  -0.00224  -0.00025  -0.00243   2.10854
   A10        2.22768  -0.00000   0.00067   0.00081   0.00144   2.22912
   A11        1.94453   0.00080   0.00157  -0.00057   0.00100   1.94553
   A12        1.58898   0.00305   0.00056   0.00853   0.00916   1.59813
   A13        1.98727  -0.00306   0.00383  -0.01527  -0.01142   1.97585
   A14        2.07987  -0.00012  -0.00365   0.00159  -0.00207   2.07780
   A15        2.21605   0.00319  -0.00018   0.01368   0.01348   2.22953
   A16        2.00551   0.00079   0.00018   0.00474   0.00488   2.01039
   A17        2.15190  -0.00071  -0.00694   0.00547  -0.00144   2.15046
   A18        2.12578  -0.00008   0.00675  -0.01021  -0.00344   2.12234
   A19        1.89849  -0.00158  -0.00615   0.00256  -0.00361   1.89488
   A20        2.33681  -0.00769  -0.00737  -0.01352  -0.02097   2.31585
   A21        2.04788   0.00927   0.01352   0.01095   0.02458   2.07246
   A22        2.55511  -0.00350  -0.00865   0.00122  -0.00753   2.54758
   A23        1.99693  -0.00235  -0.00054  -0.01501  -0.01550   1.98144
   A24        1.73114   0.00585   0.00919   0.01379   0.02303   1.75417
   A25        2.08570   0.00690   0.01152   0.00882   0.02031   2.10601
    D1       -3.13850  -0.00003   0.00016  -0.00284  -0.00267  -3.14117
    D2        0.00443   0.00000   0.00003  -0.00121  -0.00118   0.00325
    D3        0.00382  -0.00001   0.00028  -0.00195  -0.00165   0.00217
    D4       -3.13644   0.00002   0.00014  -0.00031  -0.00016  -3.13660
    D5       -3.13930   0.00003  -0.00052   0.00481   0.00430  -3.13500
    D6        0.00165   0.00001  -0.00066   0.00403   0.00341   0.00506
    D7       -3.13796   0.00006   0.00019   0.00097   0.00114  -3.13682
    D8        0.00213   0.00002   0.00034  -0.00088  -0.00054   0.00159
    D9        3.13268   0.00000   0.00022  -0.00136  -0.00111   3.13157
   D10       -3.14070  -0.00001  -0.00042   0.00026  -0.00017  -3.14087
   D11        0.00037  -0.00000  -0.00018  -0.00034  -0.00053  -0.00016
   D12       -3.14153   0.00002   0.00074  -0.00197  -0.00123   3.14042
   D13        0.00051   0.00001   0.00054  -0.00146  -0.00093  -0.00042
   D14        3.14099  -0.00001  -0.00058   0.00215   0.00156  -3.14063
   D15       -0.00168   0.00001  -0.00033   0.00219   0.00186   0.00018
   D16       -0.00109   0.00000  -0.00035   0.00159   0.00123   0.00014
   D17        3.13943   0.00002  -0.00010   0.00163   0.00153   3.14096
   D18        0.00025  -0.00002  -0.00062   0.00100   0.00038   0.00063
   D19        3.14055   0.00001  -0.00051   0.00188   0.00136  -3.14127
   D20       -0.00098   0.00003   0.00052  -0.00020   0.00031  -0.00067
   D21        3.14108   0.00002   0.00015   0.00030   0.00044   3.14152
   D22       -3.14116  -0.00001   0.00040  -0.00115  -0.00076   3.14127
   D23        0.00090  -0.00002   0.00003  -0.00066  -0.00063   0.00027
   D24        0.00132  -0.00002  -0.00010  -0.00088  -0.00098   0.00034
   D25       -3.13940  -0.00002  -0.00031  -0.00089  -0.00120  -3.14060
   D26       -3.14073  -0.00001   0.00027  -0.00136  -0.00110   3.14135
   D27        0.00173  -0.00001   0.00006  -0.00138  -0.00132   0.00041
   D28        0.00068  -0.00002   0.00029  -0.00160  -0.00131  -0.00063
   D29       -3.14158  -0.00001   0.00047  -0.00199  -0.00151   3.14009
   D30        3.14113  -0.00000   0.00056  -0.00156  -0.00101   3.14013
   D31       -0.00113  -0.00000   0.00075  -0.00196  -0.00121  -0.00234
   D32       -0.00281   0.00002   0.00053  -0.00269  -0.00215  -0.00496
   D33        3.13940   0.00002   0.00036  -0.00232  -0.00195   3.13745
         Item               Value     Threshold  Converged?
 Maximum Force            0.012731     0.000450     NO 
 RMS     Force            0.003616     0.000300     NO 
 Maximum Displacement     0.075990     0.001800     NO 
 RMS     Displacement     0.024648     0.001200     NO 
 Predicted change in Energy=-1.193066D-03
 GradGradGradGradGradGradGradGradGradGradGradGradGradGradGradGradGradGrad

                          Input orientation:                          
 ---------------------------------------------------------------------
 Center     Atomic      Atomic             Coordinates (Angstroms)
 Number     Number       Type             X           Y           Z
 ---------------------------------------------------------------------
      1         16           0        2.105665    0.969649    0.250958
      2          6           0        3.390269    0.013847   -0.027526
      3          6           0        3.372050   -1.385993   -0.448271
      4          7           0        4.582246   -1.762595   -0.552683
      5          7           0        5.167181   -2.924168   -0.902335
      6          6           0        6.447939   -2.621281   -0.812120
      7         16           0        7.673051   -3.807487   -1.170736
      8          6           0        8.963888   -2.649824   -0.825020
      9          6           0        8.508009   -1.444049   -0.461034
     10          6           0        7.050892   -1.315498   -0.420100
     11          6           0        6.505363   -0.111454   -0.057740
     12         16           0        5.014733    0.798242    0.216252
     13          1           0        2.438459   -1.923113   -0.619141
     14          1           0        9.991934   -2.966206   -0.922191
     15          1           0        9.158026   -0.614397   -0.212604
     16          1           0        7.252764    0.655356    0.173731
 ---------------------------------------------------------------------
                    Distance matrix (angstroms):
                    1          2          3          4          5
     1  S    0.000000
     2  C    1.625213   0.000000
     3  C    2.764363   1.461818   0.000000
     4  N    3.774182   2.202804   1.271733   0.000000
     5  N    5.085743   3.543253   2.407209   1.346722   0.000000
     6  C    5.734131   4.112035   3.334578   2.070135   1.319173
     7  S    7.472485   5.852499   4.988406   3.757213   2.670519
     8  C    7.829019   6.228673   5.745246   4.478854   3.807391
     9  C    6.879163   5.338975   5.136303   3.939732   3.680575
    10  C    5.488851   3.914261   3.679625   2.512308   2.523636
    11  C    4.541082   3.117760   3.405087   2.582560   3.227295
    12  S    2.914319   1.820325   2.812628   2.708540   3.889834
    13  H    3.039063   2.237804   1.090544   2.150814   2.920314
    14  H    8.891595   7.298158   6.822355   5.554272   4.824976
    15  H    7.242920   5.804822   5.841953   4.729881   4.662361
    16  H    5.157263   3.920574   4.428762   3.675028   4.280253
                    6          7          8          9         10
     6  C    0.000000
     7  S    1.742581   0.000000
     8  C    2.516144   1.768039   0.000000
     9  C    2.398547   2.605124   1.339479   0.000000
[...]

 Dipole orientation:
    16         -0.36928335          2.27740124          3.75130731
     6         -0.06816418          0.63777876          6.32928558
     6          0.44485505         -2.03296309          6.62043963
     7          0.52166894         -2.51007350          8.98813366
     7          0.92882614         -4.61596077         10.29906488
     6          0.76632784         -3.77259199         12.65939878
    16          1.16844662         -5.83720635         15.17334213
     6          0.69300048         -3.38378175         17.38812257
     6          0.25743033         -1.13979447         16.29693267
     6          0.26247854         -1.16086329         13.53518252
     6         -0.16730372          1.06462657         12.25620491
    16         -0.43716446          2.49480540          9.27523029
     1          0.70130049         -3.28785999          5.00654513
     1          0.77979585         -3.82751397         19.37729868
     1         -0.07526749          0.57830766         17.35937623
     1         -0.48160979          2.67179392         13.52512268

 Electric dipole moment (dipole orientation):
 (Debye = 10**-18 statcoulomb cm , SI units = C m)
                  (au)            (Debye)         (10**-30 SI)
   Tot        0.144100D+01      0.366267D+01      0.122173D+02
   x          0.000000D+00      0.000000D+00      0.000000D+00
   y          0.000000D+00      0.000000D+00      0.000000D+00
   z          0.144100D+01      0.366267D+01      0.122173D+02

 Dipole polarizability, Alpha (dipole orientation).
 (esu units = cm**3 , SI units = C**2 m**2 J**-1)
 Alpha(0;0):
               (au)            (10**-24 esu)      (10**-40 SI)
   iso        0.173452D+03      0.257030D+02      0.285984D+02
   aniso      0.228080D+03      0.337979D+02      0.376053D+02
   xx         0.679773D+02      0.100732D+02      0.112079D+02
   yx        -0.213168D+02     -0.315882D+01     -0.351466D+01
   yy         0.175136D+03      0.259525D+02      0.288760D+02
   zx         0.140969D+02      0.208895D+01      0.232427D+01
   zy        -0.757412D+02     -0.112237D+02     -0.124880D+02
   zz         0.277244D+03      0.410833D+02      0.457113D+02

 ----------------------------------------------------------------------
 1\1\GINC-LEWIS4-R630-HPC4-NODE673\Freq\RB3LYP\6-31G(2df,p)\C7H4N2S3\KS
 29C\17-May-2023\0\\#N Geom=AllCheck Guess=TCheck SCRF=Check GenChk RB3
 LYP/6-31G(2df,p) Freq\\Title Card Required\\0,1\S,2.1015842696,0.97477
 0213,0.2537420362\C,3.3663036353,-0.003744572,-0.033075656\C,3.3693687
 894,-1.3901197082,-0.448765375\N,4.5887924958,-1.7608214451,-0.5527621
 352\N,5.1602857532,-2.9109176707,-0.8994557072\C,6.4499269561,-2.60259
 5666,-0.8076853254\S,7.6568410185,-3.7948484061,-1.1690526679\C,8.9604
 461665,-2.6525314849,-0.8252359696\C,8.5123853932,-1.4432435882,-0.459
 8620585\C,7.0577128942,-1.3082278215,-0.4188557351\C,6.5097574924,-0.0
 984021732,-0.0544597697\S,5.0212663269,0.7933821031,0.2113852648\H,2.4
 492706879,-1.9482903392,-0.6238030261\H,9.9823602752,-2.985231179,-0.9
 265872472\H,9.1681683809,-0.6174927367,-0.2113032241\H,7.2679994649,0.
 6593444749,0.175216596\\Version=ES64L-G16RevA.03\State=1-A\HF=-1573.12
 35862\RMSD=5.879e-09\RMSF=8.196e-05\ZeroPoint=0.0956223\Thermal=0.1061
 241\Dipole=1.4331371,-0.1437371,-0.0441487\DipoleDeriv=-0.938258,0.460
 6242,0.1358418,0.5552519,-0.4404729,-0.097544,0.1623283,-0.0962762,-0.
 1381946,1.1714195,-0.4214536,-0.1226936,-1.0545552,0.787152,0.2362187,
 -0.3133027,0.2371745,0.0560587,-0.4573315,0.5748687,0.1730903,0.866031
 6,-0.3584774,-0.1046309,0.2614818,-0.1029954,-0.0319707,0.688572,-0.71
 52628,-0.2132623,-1.2042447,0.2350105,0.0757112,-0.3624131,0.0761067,-
 0.0036713,-1.6070606,0.3476933,0.1023024,0.6558802,-0.6285809,-0.11636
 35,0.1950995,-0.1186181,-0.2706103,1.6631086,-0.4859036,-0.1455574,-0.
 4491471,0.8358742,0.2208778,-0.1340805,0.22101,0.1698777,-0.6947999,0.
 3142331,0.0936706,0.6872571,-0.1582494,-0.0665289,0.2087847,-0.0676273
 ,0.0446835,0.1305976,0.3496706,0.1053074,0.3272209,-0.0900083,0.027993
 5,0.0980795,0.0275472,-0.1729356,0.2598195,-0.2705666,-0.0812953,-0.07
 63572,-0.0228523,0.0202728,-0.0229305,0.0197714,-0.084045,-0.1969581,0
 .2386549,0.0719418,0.1753259,-0.9580412,-0.2978591,0.0531865,-0.296934
 ,-0.0574994,0.5470602,-0.6881384,-0.2066327,-0.4980323,0.8117476,0.250
 752,-0.1499003,0.2503146,0.0518671,-0.4678061,0.4219354,0.1266245,0.19
 65151,-0.0946654,-0.0235632,0.0587779,-0.023213,-0.0220505,-0.0343982,
 -0.0455343,-0.0147314,-0.0480973,0.0044755,-0.0401855,-0.0146132,-0.04
 07162,0.1248124,-0.0067763,-0.0064568,-0.0018541,-0.0276276,0.0727001,
 -0.0235621,-0.0083822,-0.023612,0.1435938,0.0455428,0.0021452,0.000668
 7,-0.1021038,-0.0034674,-0.0406792,-0.030714,-0.0404624,0.1191168,-0.1
 027315,-0.0765093,-0.0234207,-0.0033173,0.0078555,-0.0209094,-0.001401
 6,-0.0214699,0.0709676\Polar=260.1873453,-82.0173846,185.3784553,-24.2
 804973,36.3884399,74.7912781\Quadrupole=6.8028325,-4.6679064,-2.134926
 1,1.8538862,0.559673,-0.8090648\PG=C01 [X(C7H4N2S3)]\NImag=0\\0.251902
 70,-0.16940713,0.16326780,-0.04959837,0.04436876,0.02539083,-0.2016971
 9,0.12960634,0.03796946,0.31803158,0.14667423,-0.14403428,-0.03301342,
 -0.13877609,0.45227160,0.04306326,-0.03303454,-0.04122549,-0.04044166,
 0.10242253,0.13870216,-0.01154953,0.03987100,0.01181761,-0.06740712,-0
 .07862147,-0.02377407,0.83334344,0.01221303,-0.02237671,-0.00961004,-0
 .01453998,-0.19171250,-0.04164915,0.02728558,0.51142565,0.00352040,-0.
 00949287,0.00720280,-0.00449713,-0.04205499,-0.06563570,0.01291667,0.1
 1968204,0.15067499,0.00444716,-0.01206153,-0.00364315,-0.02160325,0.11
 789871,0.03545329,-0.47246912,0.04665698,0.01128951,0.74304005,0.00007
 407,0.00671234,-0.00041527,0.03907569,-0.09608093,-0.02367007,0.107370
 46,-0.09561459,-0.01387148,-0.24390308,0.45237708,0.00004751,-0.000393
 67,0.00772909,0.01164259,-0.02364281,-0.02278014,0.02962748,-0.0142350
 2,-0.05134496,-0.07028783,0.11673043,0.09718075,-0.00023364,0.01483125
 ,0.00443222,-0.02104230,-0.06356377,-0.01924206,-0.06189932,0.09844664
 ,0.02949394,-0.05094082,0.04171424,0.01244370,0.50238252,0.00152940,-0
 .00686831,-0.00107945,0.00997240,0.02993731,0.00468287,0.02412961,-0.0
 3016961,-0.00995198,0.05393138,-0.27550920,-0.07269289,0.01079402,0.40
 578785,0.00046371,-0.00112690,-0.00326810,0.00286997,0.00467983,0.0150
 5828,0.00692286,-0.00970835,0.00022080,0.01640709,-0.07259904,-0.05681
 730,0.00290328,0.10530162,0.08758463,0.00005433,-0.01206965,-0.0035683
 5,0.01751047,0.04844400,0.01454685,0.02933515,-0.03945606,-0.01186959,
 -0.13868368,0.09642274,0.02915973,-0.32038357,-0.10614539,-0.03159389,
 0.67209091,-0.00370204,-0.00400196,-0.00113254,0.01418692,0.02107408,0
 .00617936,0.01642477,-0.02155705,-0.00830338,0.04830444,0.00822885,0.0
 0326399,-0.09467666,-0.11775574,-0.01958734,0.01969552,0.41518019,-0.0
 0111934,-0.00115404,-0.00059238,0.00430159,0.00623703,0.00262401,0.005
 00491,-0.00837854,0.00362828,0.01450174,0.00322818,-0.00143931,-0.0279
 1468,-0.01948788,-0.05865466,0.00513206,0.08223102,0.16689285,-0.00179
 199,0.00278276,0.00083089,-0.00058441,-0.00646869,-0.00197179,-0.00284
 035,0.00708855,0.00215660,-0.00008910,-0.00808938,-0.00250242,-0.03465
 621,0.02795673,0.00846317,-0.08643271,0.07097694,0.02155448,0.24659687
 ,0.00022203,-0.00398670,-0.00113667,0.00556868,0.01577111,0.00463571,0
 .00901015,-0.01133532,-0.00317480,-0.01554564,0.01822730,0.00354574,0.
 03157019,-0.00293957,-0.00145352,0.02201434,-0.13009080,-0.02880586,-0
 .00535264,0.27256609,0.00006748,-0.00116349,-0.00050901,0.00169304,0.0
 0467481,0.00181828,0.00275559,-0.00319375,-0.00174951,-0.00465115,0.00
 352236,0.00755882,0.00950943,-0.00161003,0.00163654,0.00672148,-0.0287
 6546,-0.04368720,-0.00184760,0.07258231,0.05402286,-0.00024787,-0.0014
 9102,-0.00044741,0.00252814,0.00448807,0.00136444,0.00071984,-0.003011
 84,-0.00091616,-0.00519322,0.00186882,0.00059357,0.00181572,0.00087866
 ,0.00028920,-0.04400402,0.00220540,0.00066993,-0.09742475,-0.03859200,
 -0.01159263,0.63237288,0.00151011,0.00069287,0.00010453,-0.00415308,-0
 .00677938,-0.00174426,-0.00532279,0.00403902,0.00117353,0.00735429,-0.
 00784544,-0.00275022,-0.00853969,-0.00004366,-0.00007118,0.01077988,0.
 01590739,0.00390956,-0.06135590,-0.08986676,-0.01949117,-0.19659612,0.
 60630743,0.00045489,0.00011116,0.00036676,-0.00125553,-0.00176251,-0.0
 0149610,-0.00160523,0.00119884,0.00041609,0.00222562,-0.00279107,0.000
 60472,-0.00261502,-0.00005491,0.00008507,0.00332285,0.00394071,0.00405
 832,-0.01846057,-0.01952248,-0.03094493,-0.05979730,0.15755075,0.13252
 496,0.00157522,0.00111982,0.00033454,-0.00513882,-0.00702882,-0.002121
 95,-0.00443823,0.00466330,0.00138684,0.00511128,-0.00654147,-0.0019461
 0,-0.00760292,0.00690958,0.00207031,-0.02068481,-0.02704766,-0.0081405
 7,-0.00894148,-0.01543156,-0.00464212,-0.13918815,0.11272014,0.0341177
 9,0.58599324,0.00019788,0.00017781,0.00023584,0.00070181,0.00083573,-0
 .00020644,0.00187784,-0.00113665,-0.00039216,-0.00019554,0.00152553,0.
 00040338,0.00154928,-0.00564825,-0.00197718,-0.02687756,-0.00280593,-0
 .00276442,-0.02626190,-0.04821122,-0.01706264,0.13080099,-0.41344507,-
 0.10902494,0.01873964,0.78448532,0.00006676,0.00023350,-0.00052654,0.0
 0020954,-0.00020638,0.00146137,0.00057009,-0.00039393,0.00006927,-0.00
 004730,0.00041798,0.00023898,0.00045271,-0.00201268,0.00040221,-0.0080
 5575,-0.00273347,0.00552077,-0.00792194,-0.01704534,0.00321064,0.03955
 915,-0.10898693,-0.08557485,0.00538040,0.19946453,0.18347015,-0.001999
 21,-0.00214151,-0.00064545,0.00458038,0.00723695,0.00218661,0.00083666
 ,-0.00412008,-0.00124705,-0.01104209,-0.00366197,-0.00112802,-0.013897
 66,-0.02845075,-0.00846473,-0.10925064,-0.04063694,-0.01223271,-0.0060
 2973,0.00472236,0.00140927,-0.02704299,0.04164346,0.01256351,-0.224264
 83,-0.00543097,-0.00158174,0.52841480,0.00453069,0.00566762,0.00193982
 ,-0.01929005,-0.03060232,-0.01001251,-0.01605919,0.02195791,0.00683238
 ,0.02654233,-0.03226849,-0.00826082,-0.06287543,0.01402743,-0.00288564
 ,0.01038877,-0.13517992,-0.01778617,0.01765389,-0.01221350,-0.00499932
 ,0.03274911,-0.03031074,-0.01143716,-0.00752352,-0.07843750,-0.0053918
 0,-0.07686040,0.60350448,0.00135567,0.00196723,-0.00027350,-0.00579796
 ,-0.00999052,-0.00036931,-0.00484022,0.00692822,0.00120528,0.00794164,
 -0.00851872,-0.00711164,-0.01888629,-0.00254651,0.02256425,0.00325303,
 -0.01789972,-0.08102113,0.00536824,-0.00509621,0.00300644,0.00989091,-
 0.01144836,0.00407952,-0.00225828,-0.00535325,-0.06228850,-0.02323617,
 0.14075662,0.17821976,0.00085482,0.00343199,0.00100384,-0.01619915,-0.
 01875358,-0.00563743,-0.00983049,0.01540259,0.00460000,0.00936445,-0.0
 2436371,-0.00726669,-0.02762774,0.00840183,0.00247688,0.03446581,0.013
 88371,0.00422498,0.00001942,0.00352887,0.00109796,-0.00237656,-0.00820
 646,-0.00247506,-0.03090704,0.03696390,0.01112331,-0.11968723,0.065461
 27,0.01960762,0.43258558,-0.01163680,-0.00232268,-0.00174012,0.0271104
 7,0.03893691,0.01410614,0.01365914,-0.01506871,-0.00446965,-0.02507998
 ,0.00829154,0.00257831,0.03286789,-0.00874118,-0.00240683,-0.02429182,
 -0.04475588,-0.01348100,-0.00172942,-0.01100821,-0.00392732,-0.0077610
 6,0.01344786,0.00373465,0.03154880,-0.01727196,-0.00618637,0.10143684,
 -0.29940318,-0.07469590,-0.03224910,0.60281136,-0.00354857,-0.00171212
 ,0.00286106,0.00813714,0.01400456,-0.00339013,0.00409504,-0.00447386,-
 0.00144687,-0.00749785,0.00254564,0.00061789,0.00987478,-0.00247090,-0
 .00122573,-0.00729184,-0.01337748,-0.00435599,-0.00051661,-0.00390582,
 0.00079773,-0.00233493,0.00372575,0.00218437,0.00950506,-0.00619356,0.
 00146213,0.03050761,-0.07476053,-0.07391715,-0.00925505,0.14783048,0.1
 5724580,-0.03965164,0.00605173,0.00166670,-0.01759865,-0.02090211,-0.0
 0625279,0.00153645,-0.03184826,-0.00960823,-0.02683611,0.01795134,0.00
 540748,0.02747176,-0.00973226,-0.00284253,-0.02491085,-0.01879834,-0.0
 0572339,0.00076613,-0.00881864,-0.00268342,-0.00480325,0.00617801,0.00
 187065,0.01020567,-0.00066434,-0.00021527,-0.01829584,0.03572897,0.010
 71546,-0.09732497,0.03043817,0.00904482,0.21412214,0.01563865,0.006126
 67,0.00072453,-0.02786049,-0.07677785,-0.01607085,-0.02598034,-0.01737
 367,-0.00800668,-0.01293012,-0.00467235,-0.00136138,0.00122590,-0.0034
 7805,-0.00228415,0.00146522,0.00284956,0.00185119,-0.00105264,0.001406
 03,0.00040416,0.00342007,-0.00025669,-0.00007896,-0.00414873,-0.000743
 51,-0.00184000,0.02028230,-0.00872423,-0.00347770,0.05145142,-0.093753
 26,-0.02093536,-0.01334306,0.18944487,0.00453216,0.00069101,0.00413858
 ,-0.00835831,-0.01601917,-0.02846433,-0.00780335,-0.00802454,0.0066432
 8,-0.00397093,-0.00125492,-0.00099313,0.00039791,-0.00219399,0.0034116
 9,0.00045487,0.00181956,-0.00268658,-0.00029989,0.00038516,0.00019479,
 0.00101497,-0.00007592,-0.00004009,-0.00123834,-0.00184892,0.00483996,
 0.00610854,-0.00352249,0.00196560,0.01532810,-0.02099675,-0.03033673,-
 0.00364402,0.05038196,0.03728186,0.00109526,-0.00075533,-0.00020764,0.
 00449812,0.00533363,0.00158945,-0.23547036,-0.11773953,-0.03690626,-0.
 03301020,-0.01743362,-0.00566669,0.00638818,0.00165799,0.00056897,-0.0
 0017164,-0.00087874,-0.00025517,0.00017730,-0.00013803,-0.00003344,-0.
 00016736,0.00004385,0.00001028,0.00010880,-0.00005400,-0.00001613,0.00
 031555,0.00007726,0.00004822,-0.00068495,-0.00095110,-0.00029071,-0.00
 006956,0.00384079,0.00115313,0.25761077,0.00070778,0.00087277,0.000631
 54,-0.02007986,-0.01031782,-0.00441819,-0.11450661,-0.13125583,-0.0280
 9131,0.00958468,0.01709014,-0.00238515,-0.00092703,0.00082454,0.002673
 34,-0.00151191,-0.00088694,-0.00020516,0.00032573,-0.00066340,-0.00007
 896,-0.00019467,0.00027906,0.00000309,0.00035876,0.00002454,-0.0000378
 9,-0.00027222,0.00098165,0.00084789,0.00025011,-0.00108398,-0.00040802
 ,-0.00086000,-0.00218122,-0.00093729,0.12716425,0.12580119,0.00024472,
 0.00059225,-0.00101202,-0.00601356,-0.00409684,0.00256230,-0.03593331,
 -0.02821013,-0.04968939,0.00243928,-0.00265781,0.02452442,-0.00015763,
 0.00280087,-0.00719447,-0.00048035,-0.00024270,-0.00030021,0.00012258,
 -0.00009755,-0.00045057,-0.00007293,0.00000220,0.00027208,0.00011465,-
 0.00003841,0.00013488,-0.00008633,0.00086838,-0.00156581,0.00007750,-0
 .00046375,0.00013358,-0.00030679,-0.00085919,0.00067634,0.04007950,0.0
 3267087,0.03059347,0.00000759,0.00016255,0.00004833,-0.00029352,-0.000
 56412,-0.00017045,-0.00017482,0.00044975,0.00013470,0.00005508,-0.0002
 6759,-0.00008012,-0.00052010,0.00122488,0.00037126,-0.00063258,-0.0032
 4443,-0.00097751,-0.01070462,0.00460257,0.00139733,-0.32524285,0.09403
 461,0.02865151,-0.00185473,-0.00241749,-0.00072638,0.00129452,0.000441
 99,0.00014132,-0.00052946,0.00062243,0.00018715,0.00049877,-0.00012927
 ,-0.00003895,-0.00000651,0.00001962,0.00000629,0.33763251,0.00008298,0
 .00018046,0.00002978,-0.00032529,-0.00060184,-0.00012870,-0.00018270,0
 .00055928,0.00022241,-0.00003890,-0.00021352,-0.00015783,-0.00106080,0
 .00207752,0.00032503,-0.00286114,-0.00559659,-0.00159094,-0.01660509,0
 .00519285,0.00193423,0.08900442,-0.07725147,-0.01553947,0.02659777,0.0
 0037393,-0.00075735,-0.00027501,-0.00348412,-0.00370210,0.00111569,0.0
 0053740,-0.00009158,0.00032533,-0.00021323,0.00018408,0.00000589,0.000
 01929,0.00000885,-0.09528591,0.07783365,0.00002484,0.00003181,0.000090
 35,-0.00010124,-0.00013790,-0.00021973,-0.00006206,0.00022767,-0.00011
 311,-0.00000845,-0.00016345,0.00026243,-0.00031951,0.00032868,0.001110
 36,-0.00086348,-0.00158962,-0.00079008,-0.00500011,0.00192303,-0.00058
 522,0.02713811,-0.01555640,-0.03078360,0.00803158,-0.00072314,0.002592
 57,-0.00008345,-0.00370331,0.00764888,0.00033814,-0.00008987,0.0008178
 2,0.00010549,0.00018293,-0.00076706,0.00000149,0.00000904,-0.00000548,
 -0.02904632,0.01767112,0.02494896,0.00007280,-0.00004983,-0.00001468,0
 .00003754,0.00017763,0.00005390,0.00016128,-0.00025324,-0.00007648,-0.
 00001530,-0.00004127,-0.00001286,-0.00022366,-0.00139434,-0.00041420,-
 0.00590640,0.00170449,0.00051039,0.00148761,0.00266330,0.00080711,0.00
 851743,0.00996552,0.00300575,-0.16044375,-0.13308726,-0.04006020,-0.01
 009811,-0.02034956,-0.00612413,0.00135157,-0.00313898,-0.00094542,-0.0
 0040865,0.00063885,0.00019157,-0.00001787,0.00001763,0.00000451,0.0004
 3329,-0.00054292,-0.00016796,0.16504189,-0.00007932,0.00007729,0.00003
 874,0.00000091,-0.00016293,-0.00007305,-0.00001258,0.00016515,0.000061
 70,0.00044771,0.00023224,0.00012367,-0.00011856,0.00021490,-0.00015743
 ,0.00172104,-0.00097821,-0.00050493,0.00031181,-0.00204233,-0.00287059
 ,-0.01802939,-0.01528214,-0.00626943,-0.13303574,-0.21897653,-0.056186
 01,0.00497793,0.00472278,0.00105805,0.00115834,0.00068719,0.00044260,-
 0.00020395,0.00012656,0.00005931,0.00000139,-0.00001672,-0.00000696,0.
 00033596,0.00055664,0.00172251,0.14243305,0.23051219,-0.00002442,0.000
 03939,-0.00004135,0.00000133,-0.00007329,0.00005793,-0.00000485,0.0000
 6241,-0.00002015,0.00013187,0.00011638,-0.00014318,-0.00003691,-0.0001
 4856,0.00069219,0.00052749,-0.00050174,0.00053639,0.00010255,-0.002872
 26,0.00660483,-0.00544513,-0.00630865,0.00366242,-0.04003705,-0.056164
 72,-0.04927713,0.00151568,0.00106564,0.00152979,0.00034669,0.00044792,
 -0.00064509,-0.00006224,0.00005948,-0.00005367,0.00000033,-0.00000704,
 0.00000465,0.00009640,0.00172537,-0.00463763,0.04286299,0.06258829,0.0
 4148774,-0.00283880,0.00011854,0.00002144,0.00437818,0.00442543,0.0013
 5440,0.00014652,-0.00123744,-0.00037776,-0.00213513,-0.00017529,-0.000
 03133,0.00096977,-0.00166374,-0.00049135,-0.00239577,0.00160264,0.0004
 6328,0.00044803,-0.00002398,-0.00000834,-0.00026299,-0.00005581,-0.000
 01413,0.00047057,0.00415773,0.00126276,0.00616643,0.00938386,0.0028209
 3,-0.17347405,-0.13084549,-0.03967061,-0.02470140,-0.01251857,-0.00382
 745,-0.00059553,-0.00007624,-0.00003814,0.00003743,0.00004567,0.000012
 95,0.00001033,0.00009139,0.00002528,0.19377640,0.00144446,-0.00018499,
 0.00005397,-0.00119837,-0.00175691,-0.00101884,0.00105712,-0.00054639,
 -0.00016277,-0.00096574,-0.00048051,-0.00076573,-0.00123748,-0.0017159
 8,0.00127775,0.00228203,0.00036894,-0.00329805,-0.00018075,-0.00080557
 ,0.00004486,0.00026056,0.00040772,-0.00005827,-0.00190033,-0.00074624,
 0.00166214,-0.01845000,-0.02023787,-0.00882902,-0.11747686,-0.17130321
 ,-0.04021980,0.00849741,0.00822035,0.00135291,-0.00017471,0.00051272,-
 0.00027005,0.00001445,0.00002974,-0.00013311,0.00125692,0.00016392,-0.
 00002861,0.12677130,0.18807430,0.00044928,0.00004253,-0.00033109,-0.00
 035926,-0.00102094,0.00129660,0.00031284,-0.00022188,-0.00006111,-0.00
 028339,-0.00061915,0.00191255,-0.00033587,0.00113574,-0.00560577,0.000
 60489,-0.00330121,0.01026690,-0.00007756,0.00003855,-0.00092446,0.0000
 8620,-0.00003320,0.00058526,-0.00055676,0.00164605,-0.00573593,-0.0055
 8556,-0.00870309,0.00632754,-0.03559078,-0.04023993,-0.05080271,0.0025
 2809,0.00131004,0.00418947,-0.00007533,-0.00026677,0.00131624,0.000005
 44,-0.00013289,0.00043054,0.00037971,-0.00002646,0.00024226,0.03849807
 ,0.05039262,0.03689370\\-0.00001456,-0.00002847,-0.00000486,0.00015001
 ,0.00002128,-0.00000465,-0.00008759,0.00008418,0.00002398,0.00018820,-
 0.00025450,-0.00007337,-0.00023296,0.00020449,0.00002835,0.00015605,0.
 00001210,0.00011670,-0.00005675,-0.00001682,-0.00003275,0.00003414,0.0
 0009065,0.00001708,-0.00009720,0.00001044,0.00003104,0.00003396,0.0000
 0967,-0.00006046,0.00000349,-0.00007811,-0.00001886,-0.00006475,-0.000
 02423,-0.00000859,0.00000398,-0.00001065,-0.00000396,-0.00001717,-0.00
 002189,-0.00001253,0.00001392,0.00000154,-0.00000212,-0.00001276,0.000
 00032,0.00000501\\\@


 TIME IS NATURE'S WAY OF MAKING SURE EVERYTHING
 DOESN'T HAPPEN AT ONCE.
                     - WOODY ALLEN
 Job cpu time:       0 days  2 hours 32 minutes 18.8 seconds.
 Elapsed time:       0 days  0 hours 38 minutes  5.3 seconds.
 File lengths (MBytes):  RWF=    210 Int=      0 D2E=      0 Chk=     12 Scr=      1
 Normal termination of Gaussian 16 at Wed May 17 02:33:05 2023.
### All Done ###
