### Starting Gaussian ###
 Entering Gaussian System, Link 0=g16
 Initial command:
 /cluster/software/gaussian/gaussian-16-A.03/avx2/g16/l1.exe "/local/scratch/yxie/Gau-6198.inp" -scrdir="/local/scratch/yxie/"
 Entering Link 1 = /cluster/software/gaussian/gaussian-16-A.03/avx2/g16/l1.exe PID=      6199.
  
 Copyright (c) 1988,1990,1992,1993,1995,1998,2003,2009,2016,
            Gaussian, Inc.  All Rights Reserved.
  
 This is part of the Gaussian(R) 16 program.  It is based on
 the Gaussian(R) 09 system (copyright 2009, Gaussian, Inc.),
 the Gaussian(R) 03 system (copyright 2003, Gaussian, Inc.),
 the Gaussian(R) 98 system (copyright 1998, Gaussian, Inc.),
 the Gaussian(R) 94 system (copyright 1995, Gaussian, Inc.),
 the Gaussian 92(TM) system (copyright 1992, Gaussian, Inc.),
 the Gaussian 90(TM) system (copyright 1990, Gaussian, Inc.),
 the Gaussian 88(TM) system (copyright 1988, Gaussian, Inc.),
 the Gaussian 86(TM) system (copyright 1986, Carnegie Mellon
 University), and the Gaussian 82(TM) system (copyright 1983,
 Carnegie Mellon University). Gaussian is a federally registered
 trademark of Gaussian, Inc.
  
 This software contains proprietary and confidential information,
 including trade secrets, belonging to Gaussian, Inc.
  
 This software is provided under written license and may be
 used, copied, transmitted, or stored only in accord with that
 written license.
  
 The following legend is applicable only to US Government
 contracts under FAR:
  
                    RESTRICTED RIGHTS LEGEND
  
 Use, reproduction and disclosure by the US Government is
 subject to restrictions as set forth in subparagraphs (a)
 and (c) of the Commercial Computer Software - Restricted
 Rights clause in FAR 52.227-19.
  
 Gaussian, Inc.
 340 Quinnipiac St., Bldg. 40, Wallingford CT 06492
  
  
 ---------------------------------------------------------------
 Warning -- This program may not be used in any manner that
 competes with the business of Gaussian, Inc. or will provide
 assistance to any competitor of Gaussian, Inc.  The licensee
 of this program is prohibited from giving any competitor of
 Gaussian, Inc. access to this program.  By using this program,
 the user acknowledges that Gaussian, Inc. is engaged in the
 business of creating and licensing software in the field of
 computational chemistry and represents and warrants to the
 licensee that it is not a competitor of Gaussian, Inc. and that
 it will not use this program in any manner prohibited above.
 ---------------------------------------------------------------
  

 Cite this work as:
 Gaussian 16, Revision A.03,
 M. J. Frisch, G. W. Trucks, H. B. Schlegel, G. E. Scuseria, 
 M. A. Robb, J. R. Cheeseman, G. Scalmani, V. Barone, 
 G. A. Petersson, H. Nakatsuji, X. Li, M. Caricato, A. V. Marenich, 
 J. Bloino, B. G. Janesko, R. Gomperts, B. Mennucci, H. P. Hratchian, 
 J. V. Ortiz, A. F. Izmaylov, J. L. Sonnenberg, D. Williams-Young, 
 F. Ding, F. Lipparini, F. Egidi, J. Goings, B. Peng, A. Petrone, 
 T. Henderson, D. Ranasinghe, V. G. Zakrzewski, J. Gao, N. Rega, 
 G. Zheng, W. Liang, M. Hada, M. Ehara, K. Toyota, R. Fukuda, 
 J. Hasegawa, M. Ishida, T. Nakajima, Y. Honda, O. Kitao, H. Nakai, 
 T. Vreven, K. Throssell, J. A. Montgomery, Jr., J. E. Peralta, 
 F. Ogliaro, M. J. Bearpark, J. J. Heyd, E. N. Brothers, K. N. Kudin, 
 V. N. Staroverov, T. A. Keith, R. Kobayashi, J. Normand, 
 K. Raghavachari, A. P. Rendell, J. C. Burant, S. S. Iyengar, 
 J. Tomasi, M. Cossi, J. M. Millam, M. Klene, C. Adamo, R. Cammi, 
 J. W. Ochterski, R. L. Martin, K. Morokuma, O. Farkas, 
 J. B. Foresman, and D. J. Fox, Gaussian, Inc., Wallingford CT, 2016.
 
 ******************************************
 Gaussian 16:  ES64L-G16RevA.03 25-Dec-2016
                16-May-2023 
 ******************************************
 %chk=SdC1[C]dC2CdCCdC2CS1.chk
 %NProcShared=20
 Will use up to   20 processors via shared memory.
 -----------------------------
 # opt freq b3lyp/6-31g(2df,p)
 -----------------------------
 1/18=20,19=15,26=3,38=1/1,3;
 2/9=110,12=2,17=6,18=5,40=1/2;
 3/5=1,6=6,7=104,11=2,25=1,30=1,71=1,74=-5/1,2,3;
 4//1;
 5/5=2,38=5/2;
 6/7=2,8=2,9=2,10=2,28=1/1;
 7//1,2,3,16;
 1/18=20,19=15,26=3/3(2);
 2/9=110/2;
 99//99;
 2/9=110/2;
 3/5=1,6=6,7=104,11=2,25=1,30=1,71=1,74=-5/1,2,3;
 4/5=5,16=3,69=1/1;
 5/5=2,38=5/2;
 7//1,2,3,16;
 1/18=20,19=15,26=3/3(-5);
 2/9=110/2;
 6/7=2,8=2,9=2,10=2,19=2,28=1/1;
 99/9=1/99;
 -------------------
 Title Card Required
 -------------------
 Symbolic Z-matrix:
 Charge =  0 Multiplicity = 2
 S                     0.71882  -0.4699   -0.043 
 C                     2.31359  -0.02978  -0.05703 
 C                     3.34459  -1.02092  -0.05102 
 C                     4.62567  -1.11086  -0.05612 
 C                     5.56319  -2.20031  -0.055 
 C                     6.78387  -1.62402  -0.05778 
 C                     6.64399  -0.17394  -0.05866 
 C                     5.33968   0.14131  -0.05664 
 C                     4.70544   1.48738  -0.02909 
 S                     2.8906    1.62538  -0.09568 
 H                     5.35147  -3.2565   -0.05058 
 H                     7.7435   -2.11975  -0.05428 
 H                     7.46466   0.52705  -0.04647 
 H                     5.08765   2.06153  -0.87868 
 H                     5.02212   1.98904   0.89044 
 

 GradGradGradGradGradGradGradGradGradGradGradGradGradGradGradGradGradGrad
 Berny optimization.
 Initialization pass.
                           ----------------------------
                           !    Initial Parameters    !
                           ! (Angstroms and Degrees)  !
 --------------------------                            --------------------------
 ! Name  Definition              Value          Derivative Info.                !
 --------------------------------------------------------------------------------
 ! R1    R(1,2)                  1.6544         estimate D2E/DX2                !
 ! R2    R(2,3)                  1.4302         estimate D2E/DX2                !
 ! R3    R(2,10)                 1.7533         estimate D2E/DX2                !
 ! R4    R(3,4)                  1.2842         estimate D2E/DX2                !
 ! R5    R(4,5)                  1.4373         estimate D2E/DX2                !
 ! R6    R(4,8)                  1.4414         estimate D2E/DX2                !
 ! R7    R(5,6)                  1.3499         estimate D2E/DX2                !
 ! R8    R(5,11)                 1.0772         estimate D2E/DX2                !
 ! R9    R(6,7)                  1.4568         estimate D2E/DX2                !
 ! R10   R(6,12)                 1.0801         estimate D2E/DX2                !
 ! R11   R(7,8)                  1.3419         estimate D2E/DX2                !
 ! R12   R(7,13)                 1.0794         estimate D2E/DX2                !
 ! R13   R(8,9)                  1.4883         estimate D2E/DX2                !
 ! R14   R(9,10)                 1.8213         estimate D2E/DX2                !
 ! R15   R(9,14)                 1.0943         estimate D2E/DX2                !
 ! R16   R(9,15)                 1.0943         estimate D2E/DX2                !
 ! A1    A(1,2,3)              120.6971         estimate D2E/DX2                !
 ! A2    A(1,2,10)             124.6495         estimate D2E/DX2                !
 ! A3    A(3,2,10)             114.6508         estimate D2E/DX2                !
 ! A4    A(2,3,4)              140.1426         estimate D2E/DX2                !
 ! A5    A(3,4,5)              134.7287         estimate D2E/DX2                !
 ! A6    A(3,4,8)              115.6765         estimate D2E/DX2                !
 ! A7    A(5,4,8)              109.594          estimate D2E/DX2                !
 ! A8    A(4,5,6)              105.4411         estimate D2E/DX2                !
 ! A9    A(4,5,11)             127.9513         estimate D2E/DX2                !
 ! A10   A(6,5,11)             126.6075         estimate D2E/DX2                !
 ! A11   A(5,6,7)              109.7624         estimate D2E/DX2                !
 ! A12   A(5,6,12)             127.4068         estimate D2E/DX2                !
 ! A13   A(7,6,12)             122.83           estimate D2E/DX2                !
 ! A14   A(6,7,8)              109.0976         estimate D2E/DX2                !
 ! A15   A(6,7,13)             124.9899         estimate D2E/DX2                !
 ! A16   A(8,7,13)             125.9055         estimate D2E/DX2                !
 ! A17   A(4,8,7)              106.1049         estimate D2E/DX2                !
 ! A18   A(4,8,9)              125.0712         estimate D2E/DX2                !
 ! A19   A(7,8,9)              128.8107         estimate D2E/DX2                !
 ! A20   A(8,9,10)             119.5053         estimate D2E/DX2                !
 ! A21   A(8,9,14)             108.1388         estimate D2E/DX2                !
 ! A22   A(8,9,15)             107.8701         estimate D2E/DX2                !
 ! A23   A(10,9,14)            106.2536         estimate D2E/DX2                !
 ! A24   A(10,9,15)            106.5202         estimate D2E/DX2                !
 ! A25   A(14,9,15)            108.106          estimate D2E/DX2                !
 ! A26   A(2,10,9)             104.8092         estimate D2E/DX2                !
 ! D1    D(1,2,3,4)           -179.9354         estimate D2E/DX2                !
 ! D2    D(10,2,3,4)             0.6359         estimate D2E/DX2                !
 ! D3    D(1,2,10,9)           177.7802         estimate D2E/DX2                !
 ! D4    D(3,2,10,9)            -2.8169         estimate D2E/DX2                !
 ! D5    D(2,3,4,5)           -179.64           estimate D2E/DX2                !
 ! D6    D(2,3,4,8)              0.7347         estimate D2E/DX2                !
 ! D7    D(3,4,5,6)           -179.7703         estimate D2E/DX2                !
 ! D8    D(3,4,5,11)             0.1012         estimate D2E/DX2                !
 ! D9    D(8,4,5,6)             -0.1287         estimate D2E/DX2                !
 ! D10   D(8,4,5,11)           179.7427         estimate D2E/DX2                !
 ! D11   D(3,4,8,7)            179.8413         estimate D2E/DX2                !
 ! D12   D(3,4,8,9)              1.068          estimate D2E/DX2                !
 ! D13   D(5,4,8,7)              0.1238         estimate D2E/DX2                !
 ! D14   D(5,4,8,9)           -178.6494         estimate D2E/DX2                !
 ! D15   D(4,5,6,7)              0.0845         estimate D2E/DX2                !
 ! D16   D(4,5,6,12)           179.7549         estimate D2E/DX2                !
 ! D17   D(11,5,6,7)          -179.7892         estimate D2E/DX2                !
 ! D18   D(11,5,6,12)           -0.1188         estimate D2E/DX2                !
 ! D19   D(5,6,7,8)             -0.0097         estimate D2E/DX2                !
 ! D20   D(5,6,7,13)           179.073          estimate D2E/DX2                !
 ! D21   D(12,6,7,8)          -179.6981         estimate D2E/DX2                !
 ! D22   D(12,6,7,13)           -0.6155         estimate D2E/DX2                !
 ! D23   D(6,7,8,4)             -0.0699         estimate D2E/DX2                !
 ! D24   D(6,7,8,9)            178.6416         estimate D2E/DX2                !
 ! D25   D(13,7,8,4)          -179.142          estimate D2E/DX2                !
 ! D26   D(13,7,8,9)            -0.4305         estimate D2E/DX2                !
 ! D27   D(4,8,9,10)            -3.7792         estimate D2E/DX2                !
 ! D28   D(4,8,9,14)          -125.3669         estimate D2E/DX2                !
 ! D29   D(4,8,9,15)           117.939          estimate D2E/DX2                !
 ! D30   D(7,8,9,10)           177.7334         estimate D2E/DX2                !
 ! D31   D(7,8,9,14)            56.1457         estimate D2E/DX2                !
 ! D32   D(7,8,9,15)           -60.5484         estimate D2E/DX2                !
 ! D33   D(8,9,10,2)             4.2683         estimate D2E/DX2                !
 ! D34   D(14,9,10,2)          126.7878         estimate D2E/DX2                !
 ! D35   D(15,9,10,2)         -118.117          estimate D2E/DX2                !
 --------------------------------------------------------------------------------
 Trust Radius=3.00D-01 FncErr=1.00D-07 GrdErr=1.00D-06 EigMax=2.50D+02 EigMin=1.00D-04
 Number of steps in this run=     87 maximum allowed number of steps=    100.
 GradGradGradGradGradGradGradGradGradGradGradGradGradGradGradGradGradGrad

                          Input orientation:                          
 ---------------------------------------------------------------------
 Center     Atomic      Atomic             Coordinates (Angstroms)
 Number     Number       Type             X           Y           Z
 ---------------------------------------------------------------------
      1         16           0        0.718820   -0.469900   -0.043000
      2          6           0        2.313590   -0.029780   -0.057030
      3          6           0        3.344590   -1.020920   -0.051020
      4          6           0        4.625670   -1.110860   -0.056120
      5          6           0        5.563190   -2.200310   -0.055000
      6          6           0        6.783870   -1.624020   -0.057780
      7          6           0        6.643990   -0.173940   -0.058660
      8          6           0        5.339680    0.141310   -0.056640
      9          6           0        4.705440    1.487380   -0.029090
     10         16           0        2.890600    1.625380   -0.095680
     11          1           0        5.351470   -3.256500   -0.050580
     12          1           0        7.743500   -2.119750   -0.054280
     13          1           0        7.464660    0.527050   -0.046470
     14          1           0        5.087650    2.061530   -0.878680
     15          1           0        5.022120    1.989040    0.890440
 ---------------------------------------------------------------------
                    Distance matrix (angstroms):
                    1          2          3          4          5
     1  S    0.000000
     2  C    1.654447   0.000000
     3  C    2.682975   1.430159   0.000000
     4  C    3.959101   2.552342   1.284243   0.000000
     5  C    5.144160   3.907826   2.512601   1.437305   0.000000
     6  C    6.173900   4.746052   3.491765   2.218369   1.349881
     7  C    5.932578   4.332799   3.406387   2.225183   2.296588
     8  C    4.661128   3.030923   2.308938   1.441437   2.352264
     9  C    4.441202   2.832579   2.853763   2.599605   3.786220
    10  S    3.018212   1.753279   2.685331   3.240223   4.666936
    11  H    5.406167   4.431758   3.004228   2.265080   1.077210
    12  H    7.215834   5.818239   4.534076   3.277000   2.181798
    13  H    6.819111   5.181090   4.401274   3.277607   3.324779
    14  H    5.117927   3.569887   3.636589   3.309696   4.366677
    15  H    5.043420   3.508485   3.572158   3.265353   4.328656
                    6          7          8          9         10
     6  C    0.000000
     7  C    1.456811   0.000000
     8  C    2.280806   1.341869   0.000000
     9  C    3.741858   2.553201   1.488262   0.000000
    10  S    5.071251   4.162554   2.863910   1.821297   0.000000
    11  H    2.171822   3.342581   3.397836   4.787715   5.467236
    12  H    1.080116   2.234976   3.300113   4.716124   6.130118
    13  H    2.256259   1.079368   2.159731   2.921614   4.704336
    14  H    4.139362   2.844636   2.103928   1.094320   2.372835
    15  H    4.130023   2.865264   2.100455   1.094296   2.376564
                   11         12         13         14         15
    11  H    0.000000
    12  H    2.648400   0.000000
    13  H    4.333687   2.661459   0.000000
    14  H    5.388580   5.021581   2.949132   0.000000
    15  H    5.339446   5.018024   2.996868   1.771817   0.000000
 Stoichiometry    C8H5S2(2)
 Framework group  C1[X(C8H5S2)]
 Deg. of freedom    39
 Full point group                 C1      NOp   1
 Largest Abelian subgroup         C1      NOp   1
 Largest concise Abelian subgroup C1      NOp   1
                         Standard orientation:                         
 ---------------------------------------------------------------------
 Center     Atomic      Atomic             Coordinates (Angstroms)
 Number     Number       Type             X           Y           Z
 ---------------------------------------------------------------------
      1         16           0       -2.928970   -1.067982    0.011124
      2          6           0       -1.480111   -0.269305    0.000264
      3          6           0       -0.247039   -0.993796    0.001151
      4          6           0        1.019875   -0.783598   -0.003896
      5          6           0        2.184863   -1.625400   -0.008493
      6          6           0        3.238241   -0.781261   -0.007500
      7          6           0        2.765277    0.596619   -0.000289
      8          6           0        1.423417    0.600182    0.002935
      9          6           0        0.493813    1.761881    0.037776
     10         16           0       -1.303484    1.474813   -0.028828
     11          1           0        2.224335   -2.701886   -0.010103
     12          1           0        4.286790   -1.040475   -0.006369
     13          1           0        3.400632    1.469022    0.016200
     14          1           0        0.731416    2.413845   -0.808406
     15          1           0        0.686083    2.318261    0.960250
 ---------------------------------------------------------------------
 Rotational constants (GHZ):           2.1553509           0.7145200           0.5384962
 Standard basis: 6-31G(2df,p) (6D, 7F)
 There are   343 symmetry adapted cartesian basis functions of A   symmetry.
 There are   313 symmetry adapted basis functions of A   symmetry.
   313 basis functions,   523 primitive gaussians,   343 cartesian basis functions
    43 alpha electrons       42 beta electrons
       nuclear repulsion energy       611.8568962676 Hartrees.
 NAtoms=   15 NActive=   15 NUniq=   15 SFac= 1.00D+00 NAtFMM=   60 NAOKFM=F Big=F
 Integral buffers will be    131072 words long.
 Raffenetti 2 integral format.
 Two-electron integral symmetry is turned on.
 One-electron integrals computed using PRISM.
 PrsmSu:  requested number of processors reduced to:  13 ShMem   1 Linda.
 NBasis=   313 RedAO= T EigKep=  2.17D-04  NBF=   313
 NBsUse=   313 1.00D-06 EigRej= -1.00D+00 NBFU=   313
 ExpMin= 1.17D-01 ExpMax= 2.19D+04 ExpMxC= 3.30D+03 IAcc=3 IRadAn=         5 AccDes= 0.00D+00
 Harris functional with IExCor=  402 and IRadAn=       5 diagonalized for initial guess.
 HarFok:  IExCor=  402 AccDes= 0.00D+00 IRadAn=         5 IDoV= 1 UseB2=F ITyADJ=14
 ICtDFT=  3500011 ScaDFX=  1.000000  1.000000  1.000000  1.000000
 FoFCou: FMM=F IPFlag=           0 FMFlag=      100000 FMFlg1=           0
         NFxFlg=           0 DoJE=T BraDBF=F KetDBF=T FulRan=T
         wScrn=  0.000000 ICntrl=       500 IOpCl=  0 I1Cent=   200000004 NGrid=           0
         NMat0=    1 NMatS0=      1 NMatT0=    0 NMatD0=    1 NMtDS0=    0 NMtDT0=    0
 Petite list used in FoFCou.
 Initial guess <Sx>= 0.0000 <Sy>= 0.0000 <Sz>= 0.5000 <S**2>= 0.7500 S= 0.5000
 Requested convergence on RMS density matrix=1.00D-08 within 128 cycles.
 Requested convergence on MAX density matrix=1.00D-06.
 Requested convergence on             energy=1.00D-06.
 No special actions if energy rises.
 Integral accuracy reduced to 1.0D-05 until final iterations.
 Initial convergence to 1.0D-05 achieved.  Increase integral accuracy.
 SCF Done:  E(UB3LYP) =  -1104.12424666     A.U. after   26 cycles
            NFock= 26  Conv=0.74D-08     -V/T= 2.0041
 <Sx>= 0.0000 <Sy>= 0.0000 <Sz>= 0.5000 <S**2>= 0.7613 S= 0.5056
 <L.S>=  0.00000000000    
 Annihilation of the first spin contaminant:
 S**2 before annihilation     0.7613,   after     0.7501

 **********************************************************************

            Population analysis using the SCF density.

 **********************************************************************

 Orbital symmetries:
 Alpha Orbitals:
       Occupied  (A) (A) (A) (A) (A) (A) (A) (A) (A) (A) (A) (A)
                 (A) (A) (A) (A) (A) (A) (A) (A) (A) (A) (A) (A)
                 (A) (A) (A) (A) (A) (A) (A) (A) (A) (A) (A) (A)
                 (A) (A) (A) (A) (A) (A) (A)
       Virtual   (A) (A) (A) (A) (A) (A) (A) (A) (A) (A) (A) (A)
                 (A) (A) (A) (A) (A) (A) (A) (A) (A) (A) (A) (A)
                 (A) (A) (A) (A) (A) (A) (A) (A) (A) (A) (A) (A)
                 (A) (A) (A) (A) (A) (A) (A) (A) (A) (A) (A) (A)
                 (A) (A) (A) (A) (A) (A) (A) (A) (A) (A) (A) (A)
                 (A) (A) (A) (A) (A) (A) (A) (A) (A) (A) (A) (A)
                 (A) (A) (A) (A) (A) (A) (A) (A) (A) (A) (A) (A)
                 (A) (A) (A) (A) (A) (A) (A) (A) (A) (A) (A) (A)
                 (A) (A) (A) (A) (A) (A) (A) (A) (A) (A) (A) (A)
                 (A) (A) (A) (A) (A) (A) (A) (A) (A) (A) (A) (A)
                 (A) (A) (A) (A) (A) (A) (A) (A) (A) (A) (A) (A)
                 (A) (A) (A) (A) (A) (A) (A) (A) (A) (A) (A) (A)
                 (A) (A) (A) (A) (A) (A) (A) (A) (A) (A) (A) (A)
                 (A) (A) (A) (A) (A) (A) (A) (A) (A) (A) (A) (A)
                 (A) (A) (A) (A) (A) (A) (A) (A) (A) (A) (A) (A)
                 (A) (A) (A) (A) (A) (A) (A) (A) (A) (A) (A) (A)
                 (A) (A) (A) (A) (A) (A) (A) (A) (A) (A) (A) (A)
                 (A) (A) (A) (A) (A) (A) (A) (A) (A) (A) (A) (A)
                 (A) (A) (A) (A) (A) (A) (A) (A) (A) (A) (A) (A)
                 (A) (A) (A) (A) (A) (A) (A) (A) (A) (A) (A) (A)
                 (A) (A) (A) (A) (A) (A) (A) (A) (A) (A) (A) (A)
                 (A) (A) (A) (A) (A) (A) (A) (A) (A) (A) (A) (A)
                 (A) (A) (A) (A) (A) (A)
 Beta  Orbitals:
       Occupied  (A) (A) (A) (A) (A) (A) (A) (A) (A) (A) (A) (A)
                 (A) (A) (A) (A) (A) (A) (A) (A) (A) (A) (A) (A)
                 (A) (A) (A) (A) (A) (A) (A) (A) (A) (A) (A) (A)
                 (A) (A) (A) (A) (A) (A)
       Virtual   (A) (A) (A) (A) (A) (A) (A) (A) (A) (A) (A) (A)
                 (A) (A) (A) (A) (A) (A) (A) (A) (A) (A) (A) (A)
                 (A) (A) (A) (A) (A) (A) (A) (A) (A) (A) (A) (A)
                 (A) (A) (A) (A) (A) (A) (A) (A) (A) (A) (A) (A)
                 (A) (A) (A) (A) (A) (A) (A) (A) (A) (A) (A) (A)
                 (A) (A) (A) (A) (A) (A) (A) (A) (A) (A) (A) (A)
                 (A) (A) (A) (A) (A) (A) (A) (A) (A) (A) (A) (A)
                 (A) (A) (A) (A) (A) (A) (A) (A) (A) (A) (A) (A)
                 (A) (A) (A) (A) (A) (A) (A) (A) (A) (A) (A) (A)
                 (A) (A) (A) (A) (A) (A) (A) (A) (A) (A) (A) (A)
                 (A) (A) (A) (A) (A) (A) (A) (A) (A) (A) (A) (A)
                 (A) (A) (A) (A) (A) (A) (A) (A) (A) (A) (A) (A)
                 (A) (A) (A) (A) (A) (A) (A) (A) (A) (A) (A) (A)
                 (A) (A) (A) (A) (A) (A) (A) (A) (A) (A) (A) (A)
                 (A) (A) (A) (A) (A) (A) (A) (A) (A) (A) (A) (A)
                 (A) (A) (A) (A) (A) (A) (A) (A) (A) (A) (A) (A)
                 (A) (A) (A) (A) (A) (A) (A) (A) (A) (A) (A) (A)
                 (A) (A) (A) (A) (A) (A) (A) (A) (A) (A) (A) (A)
                 (A) (A) (A) (A) (A) (A) (A) (A) (A) (A) (A) (A)
                 (A) (A) (A) (A) (A) (A) (A) (A) (A) (A) (A) (A)
                 (A) (A) (A) (A) (A) (A) (A) (A) (A) (A) (A) (A)
                 (A) (A) (A) (A) (A) (A) (A) (A) (A) (A) (A) (A)
                 (A) (A) (A) (A) (A) (A) (A)
 The electronic state is 2-A.
 Alpha  occ. eigenvalues --  -88.91816 -88.86248 -10.29225 -10.24575 -10.23600
 Alpha  occ. eigenvalues --  -10.21784 -10.21093 -10.20329 -10.19571 -10.19265
 Alpha  occ. eigenvalues --   -7.98063  -7.92710  -5.94526  -5.94128  -5.93720
 Alpha  occ. eigenvalues --   -5.89073  -5.88932  -5.88258  -0.91453  -0.86122
 Alpha  occ. eigenvalues --   -0.80396  -0.77315  -0.73141  -0.67832  -0.64424
 Alpha  occ. eigenvalues --   -0.58571  -0.56453  -0.52920  -0.47843  -0.47191
 Alpha  occ. eigenvalues --   -0.44607  -0.42260  -0.40949  -0.40058  -0.39531
 Alpha  occ. eigenvalues --   -0.38722  -0.36643  -0.35156  -0.27391  -0.25266
 Alpha  occ. eigenvalues --   -0.24041  -0.23090  -0.22928
 Alpha virt. eigenvalues --   -0.11952  -0.02900   0.02232   0.03577   0.05442
 Alpha virt. eigenvalues --    0.09196   0.10430   0.11045   0.11318   0.15290
 Alpha virt. eigenvalues --    0.15504   0.15921   0.18465   0.19681   0.23111
 Alpha virt. eigenvalues --    0.23535   0.24976   0.26796   0.29512   0.30139
 Alpha virt. eigenvalues --    0.33194   0.33541   0.34302   0.35196   0.35628
 Alpha virt. eigenvalues --    0.35936   0.38001   0.38614   0.39360   0.40491
 Alpha virt. eigenvalues --    0.43733   0.44588   0.45476   0.46884   0.47314
 Alpha virt. eigenvalues --    0.49175   0.50472   0.52059   0.52666   0.53030
 Alpha virt. eigenvalues --    0.54361   0.55213   0.55658   0.59100   0.60159
 Alpha virt. eigenvalues --    0.62144   0.64409   0.64628   0.66322   0.67931
 Alpha virt. eigenvalues --    0.69281   0.71862   0.72299   0.72430   0.73553
 Alpha virt. eigenvalues --    0.74292   0.76912   0.77553   0.77991   0.79766
 Alpha virt. eigenvalues --    0.80137   0.81098   0.81559   0.82664   0.85139
 Alpha virt. eigenvalues --    0.88998   0.89482   0.90711   0.92336   0.92795
 Alpha virt. eigenvalues --    0.95394   0.97038   0.98606   1.00000   1.06440
 Alpha virt. eigenvalues --    1.08811   1.10824   1.12424   1.18095   1.19786
 Alpha virt. eigenvalues --    1.21064   1.21947   1.22588   1.25368   1.27111
 Alpha virt. eigenvalues --    1.28643   1.29696   1.31929   1.35943   1.37042
 Alpha virt. eigenvalues --    1.37479   1.40313   1.41617   1.44319   1.45642
 Alpha virt. eigenvalues --    1.46353   1.48375   1.54228   1.54754   1.55941
 Alpha virt. eigenvalues --    1.60039   1.61798   1.64941   1.65349   1.65789
 Alpha virt. eigenvalues --    1.67450   1.68294   1.68525   1.70936   1.74976
 Alpha virt. eigenvalues --    1.75690   1.77280   1.79461   1.81489   1.82249
 Alpha virt. eigenvalues --    1.85289   1.86578   1.87167   1.90457   1.92572
 Alpha virt. eigenvalues --    1.94331   1.96031   1.98337   2.00093   2.02380
 Alpha virt. eigenvalues --    2.03841   2.09335   2.13426   2.15104   2.17121
 Alpha virt. eigenvalues --    2.17936   2.20295   2.21991   2.26907   2.29072
 Alpha virt. eigenvalues --    2.30940   2.33132   2.33319   2.34834   2.35133
 Alpha virt. eigenvalues --    2.37063   2.39349   2.39408   2.45870   2.51452
 Alpha virt. eigenvalues --    2.52624   2.53707   2.54161   2.59403   2.60867
 Alpha virt. eigenvalues --    2.65620   2.69303   2.73793   2.77788   2.79564
 Alpha virt. eigenvalues --    2.82709   2.83376   2.86029   2.87855   2.90805
 Alpha virt. eigenvalues --    2.91155   2.94446   2.94876   2.98509   3.00834
 Alpha virt. eigenvalues --    3.02501   3.03446   3.05534   3.09398   3.10204
 Alpha virt. eigenvalues --    3.12370   3.15160   3.17226   3.19131   3.20523
 Alpha virt. eigenvalues --    3.20797   3.24244   3.25534   3.29582   3.31995
 Alpha virt. eigenvalues --    3.32844   3.34222   3.35358   3.37480   3.39369
 Alpha virt. eigenvalues --    3.42892   3.46462   3.47977   3.49703   3.52700
 Alpha virt. eigenvalues --    3.53792   3.55193   3.56671   3.59783   3.63107
 Alpha virt. eigenvalues --    3.65189   3.69252   3.71121   3.74369   3.78857
 Alpha virt. eigenvalues --    3.79611   3.80507   3.84645   3.90138   3.96227
 Alpha virt. eigenvalues --    3.96568   3.99293   4.05728   4.06963   4.10315
 Alpha virt. eigenvalues --    4.13254   4.19417   4.23596   4.25067   4.31336
 Alpha virt. eigenvalues --    4.37373   4.39384   4.42359   4.42779   4.44950
 Alpha virt. eigenvalues --    4.46442   4.46762   4.49665   4.51201   4.52724
 Alpha virt. eigenvalues --    4.54743   4.56986   4.57530   4.60712   4.61427
 Alpha virt. eigenvalues --    4.62529   4.63347   4.68258   4.68962   4.71135
 Alpha virt. eigenvalues --    4.79169   4.80679   4.82249   4.83355   4.86333
 Alpha virt. eigenvalues --    4.92447   4.97386   4.97825   5.00488   5.07880
 Alpha virt. eigenvalues --    5.12077   5.14493   5.16874   5.23350   5.27761
 Alpha virt. eigenvalues --    5.33521   5.34172   5.42833   5.50481   5.66792
 Alpha virt. eigenvalues --    5.67746   5.74743   5.85286   6.01442   6.21726
 Alpha virt. eigenvalues --    6.42101   6.53328   9.73101  10.28939  10.65936
 Alpha virt. eigenvalues --   10.96894  11.57682  11.65132  12.05047  12.45924
  Beta  occ. eigenvalues --  -88.91775 -88.86205 -10.29258 -10.24567 -10.22123
  Beta  occ. eigenvalues --  -10.21844 -10.20912 -10.20363 -10.19607 -10.19182
  Beta  occ. eigenvalues --   -7.98024  -7.92667  -5.94443  -5.94056  -5.93695
  Beta  occ. eigenvalues --   -5.89018  -5.88867  -5.88191  -0.90906  -0.85718
  Beta  occ. eigenvalues --   -0.79753  -0.76582  -0.72905  -0.67572  -0.63467
  Beta  occ. eigenvalues --   -0.58115  -0.55922  -0.52572  -0.47777  -0.46869
  Beta  occ. eigenvalues --   -0.43966  -0.41946  -0.39819  -0.39658  -0.39248
  Beta  occ. eigenvalues --   -0.38393  -0.36572  -0.34888  -0.27035  -0.25102
  Beta  occ. eigenvalues --   -0.23005  -0.22942
  Beta virt. eigenvalues --   -0.11709  -0.09189  -0.02263   0.02962   0.03652
  Beta virt. eigenvalues --    0.05294   0.09255   0.10753   0.11377   0.11484
  Beta virt. eigenvalues --    0.15364   0.15607   0.15970   0.18955   0.20083
  Beta virt. eigenvalues --    0.23344   0.23960   0.25201   0.27013   0.29753
  Beta virt. eigenvalues --    0.30524   0.33323   0.33676   0.34535   0.35392
  Beta virt. eigenvalues --    0.35839   0.37086   0.38369   0.38774   0.39548
  Beta virt. eigenvalues --    0.40774   0.44470   0.44903   0.45679   0.47114
  Beta virt. eigenvalues --    0.47475   0.49167   0.50834   0.52408   0.53138
  Beta virt. eigenvalues --    0.53560   0.54729   0.55371   0.57221   0.59528
  Beta virt. eigenvalues --    0.60117   0.62822   0.64762   0.65078   0.67219
  Beta virt. eigenvalues --    0.68213   0.69710   0.72223   0.72446   0.72772
  Beta virt. eigenvalues --    0.73898   0.74640   0.77531   0.77821   0.79015
  Beta virt. eigenvalues --    0.79798   0.80195   0.81510   0.81719   0.83191
  Beta virt. eigenvalues --    0.85400   0.89219   0.89928   0.90810   0.93045
  Beta virt. eigenvalues --    0.93138   0.96101   0.97464   0.99460   1.00300
  Beta virt. eigenvalues --    1.06750   1.09344   1.11088   1.12611   1.18757
  Beta virt. eigenvalues --    1.20413   1.21369   1.22036   1.22638   1.25596
  Beta virt. eigenvalues --    1.27305   1.28705   1.30070   1.32293   1.36422
  Beta virt. eigenvalues --    1.37573   1.37868   1.40525   1.42018   1.44469
  Beta virt. eigenvalues --    1.45952   1.46500   1.48614   1.54420   1.55192
  Beta virt. eigenvalues --    1.56249   1.60200   1.62201   1.65188   1.65604
  Beta virt. eigenvalues --    1.65998   1.68009   1.68559   1.68910   1.71203
  Beta virt. eigenvalues --    1.75561   1.76101   1.77551   1.79820   1.81770
  Beta virt. eigenvalues --    1.82635   1.85521   1.86842   1.87435   1.91144
  Beta virt. eigenvalues --    1.93086   1.94806   1.96398   1.99537   2.00300
  Beta virt. eigenvalues --    2.02533   2.04110   2.09420   2.13525   2.15670
  Beta virt. eigenvalues --    2.17285   2.18198   2.20665   2.22748   2.27461
  Beta virt. eigenvalues --    2.29573   2.30991   2.33427   2.33916   2.34998
  Beta virt. eigenvalues --    2.35327   2.37301   2.39434   2.39746   2.46031
  Beta virt. eigenvalues --    2.52116   2.53287   2.54046   2.54456   2.59742
  Beta virt. eigenvalues --    2.61808   2.66005   2.70032   2.74119   2.78675
  Beta virt. eigenvalues --    2.79891   2.83941   2.84118   2.86863   2.89200
  Beta virt. eigenvalues --    2.91236   2.92270   2.94742   2.95158   2.98843
  Beta virt. eigenvalues --    3.01147   3.02727   3.03716   3.05805   3.09433
  Beta virt. eigenvalues --    3.10219   3.12577   3.15574   3.17542   3.19258
  Beta virt. eigenvalues --    3.20767   3.21251   3.24549   3.25577   3.30203
  Beta virt. eigenvalues --    3.32087   3.33305   3.34421   3.35695   3.37894
  Beta virt. eigenvalues --    3.39522   3.43073   3.46555   3.48432   3.50347
  Beta virt. eigenvalues --    3.53030   3.54176   3.55589   3.56864   3.60616
  Beta virt. eigenvalues --    3.63489   3.65584   3.69625   3.71389   3.74895
  Beta virt. eigenvalues --    3.79165   3.80139   3.80759   3.84942   3.91297
  Beta virt. eigenvalues --    3.96622   3.96813   3.99732   4.06317   4.07159
  Beta virt. eigenvalues --    4.10588   4.14092   4.20227   4.25277   4.27547
  Beta virt. eigenvalues --    4.31606   4.37318   4.39523   4.43186   4.43728
  Beta virt. eigenvalues --    4.45181   4.46424   4.49793   4.50855   4.51572
  Beta virt. eigenvalues --    4.53075   4.56510   4.57088   4.57839   4.61021
  Beta virt. eigenvalues --    4.61682   4.63020   4.63646   4.68463   4.69329
  Beta virt. eigenvalues --    4.71508   4.79520   4.81034   4.82392   4.83915
  Beta virt. eigenvalues --    4.86431   4.92686   4.97729   4.98683   5.00652
  Beta virt. eigenvalues --    5.08114   5.12477   5.14865   5.18374   5.24216
  Beta virt. eigenvalues --    5.28033   5.33879   5.34483   5.43241   5.51035
  Beta virt. eigenvalues --    5.67023   5.68408   5.75310   5.86258   6.01933
  Beta virt. eigenvalues --    6.22815   6.42350   6.53723   9.73591  10.30203
  Beta virt. eigenvalues --   10.66046  10.97127  11.58229  11.65188  12.05208
  Beta virt. eigenvalues --   12.46284
          Condensed to atoms (all electrons):
               1          2          3          4          5          6
     1  S   15.906639   0.455911  -0.020584   0.002908  -0.000423   0.000018
     2  C    0.455911   4.670177   0.460304  -0.013620   0.003972  -0.000066
     3  C   -0.020584   0.460304   5.430258   0.480117  -0.113588   0.009934
     4  C    0.002908  -0.013620   0.480117   4.459697   0.412790  -0.010366
     5  C   -0.000423   0.003972  -0.113588   0.412790   5.099812   0.559607
     6  C    0.000018  -0.000066   0.009934  -0.010366   0.559607   4.805048
     7  C   -0.000027   0.000121   0.018498   0.030514  -0.051506   0.438301
     8  C    0.000941  -0.022915  -0.053218   0.381912  -0.012775  -0.010746
     9  C    0.002104  -0.003696  -0.043732  -0.033591   0.011320   0.005348
    10  S   -0.075393   0.337991  -0.044181  -0.018127  -0.000821   0.000094
    11  H    0.000012  -0.000104  -0.006153  -0.040578   0.381453  -0.046754
    12  H   -0.000000   0.000003  -0.000232   0.003615  -0.039689   0.370414
    13  H   -0.000000  -0.000008  -0.000333   0.008028   0.005202  -0.049671
    14  H   -0.000039   0.000737   0.000168   0.001583   0.000066  -0.000176
    15  H   -0.000012   0.000252   0.000297   0.001135   0.000082  -0.000158
               7          8          9         10         11         12
     1  S   -0.000027   0.000941   0.002104  -0.075393   0.000012  -0.000000
     2  C    0.000121  -0.022915  -0.003696   0.337991  -0.000104   0.000003
     3  C    0.018498  -0.053218  -0.043732  -0.044181  -0.006153  -0.000232
     4  C    0.030514   0.381912  -0.033591  -0.018127  -0.040578   0.003615
     5  C   -0.051506  -0.012775   0.011320  -0.000821   0.381453  -0.039689
     6  C    0.438301  -0.010746   0.005348   0.000094  -0.046754   0.370414
     7  C    5.030686   0.537957  -0.099558   0.004003   0.003461  -0.044385
     8  C    0.537957   4.676745   0.385229  -0.016588   0.008128   0.004385
     9  C   -0.099558   0.385229   5.151569   0.274762  -0.000045  -0.000122
    10  S    0.004003  -0.016588   0.274762  15.630495  -0.000006   0.000005
    11  H    0.003461   0.008128  -0.000045  -0.000006   0.582867  -0.002194
    12  H   -0.044385   0.004385  -0.000122   0.000005  -0.002194   0.597099
    13  H    0.366438  -0.043027  -0.006228  -0.000093  -0.000122  -0.001627
    14  H   -0.003955  -0.022253   0.362716  -0.042826   0.000003  -0.000000
    15  H   -0.003867  -0.022442   0.361295  -0.043828   0.000002   0.000000
              13         14         15
     1  S   -0.000000  -0.000039  -0.000012
     2  C   -0.000008   0.000737   0.000252
     3  C   -0.000333   0.000168   0.000297
     4  C    0.008028   0.001583   0.001135
     5  C    0.005202   0.000066   0.000082
     6  C   -0.049671  -0.000176  -0.000158
     7  C    0.366438  -0.003955  -0.003867
     8  C   -0.043027  -0.022253  -0.022442
     9  C   -0.006228   0.362716   0.361295
    10  S   -0.000093  -0.042826  -0.043828
    11  H   -0.000122   0.000003   0.000002
    12  H   -0.001627  -0.000000   0.000000
    13  H    0.617158   0.001428   0.001121
    14  H    0.001428   0.576656  -0.037383
    15  H    0.001121  -0.037383   0.579392
          Atomic-Atomic Spin Densities.
               1          2          3          4          5          6
     1  S    0.065764   0.010015  -0.016125  -0.001357   0.000017  -0.000002
     2  C    0.010015  -0.033172  -0.008672  -0.006010  -0.000063   0.000003
     3  C   -0.016125  -0.008672   1.066224  -0.043826  -0.005409   0.001683
     4  C   -0.001357  -0.006010  -0.043826  -0.073557   0.006414   0.003172
     5  C    0.000017  -0.000063  -0.005409   0.006414   0.038317   0.001301
     6  C   -0.000002   0.000003   0.001683   0.003172   0.001301  -0.017428
     7  C    0.000003   0.000002   0.001351  -0.001912   0.000646  -0.005460
     8  C   -0.000024  -0.000436  -0.032929   0.017735  -0.003559  -0.006353
     9  C    0.000013  -0.000379  -0.004372   0.002848   0.000035   0.000076
    10  S    0.000849  -0.005285  -0.019912   0.003981  -0.000063  -0.000020
    11  H   -0.000008  -0.000017   0.002370  -0.003015  -0.003604   0.000994
    12  H    0.000000   0.000000   0.000013   0.000144   0.000379   0.000564
    13  H   -0.000000  -0.000001  -0.000279  -0.000145  -0.000069  -0.003940
    14  H    0.000002  -0.000032  -0.000490   0.000198  -0.000000  -0.000030
    15  H    0.000001  -0.000033  -0.000423   0.000192  -0.000000  -0.000025
               7          8          9         10         11         12
     1  S    0.000003  -0.000024   0.000013   0.000849  -0.000008   0.000000
     2  C    0.000002  -0.000436  -0.000379  -0.005285  -0.000017   0.000000
     3  C    0.001351  -0.032929  -0.004372  -0.019912   0.002370   0.000013
     4  C   -0.001912   0.017735   0.002848   0.003981  -0.003015   0.000144
     5  C    0.000646  -0.003559   0.000035  -0.000063  -0.003604   0.000379
     6  C   -0.005460  -0.006353   0.000076  -0.000020   0.000994   0.000564
     7  C   -0.026153   0.004963   0.002609   0.000043   0.000293  -0.000354
     8  C    0.004963   0.096007   0.000691   0.002076   0.000650  -0.000263
     9  C    0.002609   0.000691   0.003734  -0.005173  -0.000002  -0.000000
    10  S    0.000043   0.002076  -0.005173   0.092002   0.000014  -0.000000
    11  H    0.000293   0.000650  -0.000002   0.000014   0.004631  -0.000185
    12  H   -0.000354  -0.000263  -0.000000  -0.000000  -0.000185   0.000751
    13  H   -0.003386   0.001791  -0.000547  -0.000035   0.000022  -0.000171
    14  H   -0.000535  -0.000363   0.001480  -0.001135   0.000000  -0.000000
    15  H   -0.000424  -0.000390   0.001206  -0.000861   0.000000  -0.000000
              13         14         15
     1  S   -0.000000   0.000002   0.000001
     2  C   -0.000001  -0.000032  -0.000033
     3  C   -0.000279  -0.000490  -0.000423
     4  C   -0.000145   0.000198   0.000192
     5  C   -0.000069  -0.000000  -0.000000
     6  C   -0.003940  -0.000030  -0.000025
     7  C   -0.003386  -0.000535  -0.000424
     8  C    0.001791  -0.000363  -0.000390
     9  C   -0.000547   0.001480   0.001206
    10  S   -0.000035  -0.001135  -0.000861
    11  H    0.000022   0.000000   0.000000
    12  H   -0.000171  -0.000000  -0.000000
    13  H    0.014766   0.000147   0.000107
    14  H    0.000147   0.001036   0.000109
    15  H    0.000107   0.000109   0.000884
 Mulliken charges and spin densities:
               1          2
     1  S   -0.272054   0.059149
     2  C    0.110943  -0.044080
     3  C   -0.117554   0.939203
     4  C    0.333984  -0.095138
     5  C   -0.255503   0.034341
     6  C   -0.070826  -0.025464
     7  C   -0.226680  -0.028314
     8  C    0.208667   0.079596
     9  C   -0.367372   0.002218
    10  S   -0.005488   0.066480
    11  H    0.120030   0.002144
    12  H    0.112730   0.000878
    13  H    0.101734   0.008261
    14  H    0.163276   0.000385
    15  H    0.164113   0.000342
 Sum of Mulliken charges =  -0.00000   1.00000
 Mulliken charges and spin densities with hydrogens summed into heavy atoms:
               1          2
     1  S   -0.272054   0.059149
     2  C    0.110943  -0.044080
     3  C   -0.117554   0.939203
     4  C    0.333984  -0.095138
     5  C   -0.135473   0.036485
     6  C    0.041904  -0.024586
     7  C   -0.124946  -0.020053
     8  C    0.208667   0.079596
     9  C   -0.039983   0.002945
    10  S   -0.005488   0.066480
 Electronic spatial extent (au):  <R**2>=           1943.7197
 Charge=             -0.0000 electrons
 Dipole moment (field-independent basis, Debye):
    X=              4.0582    Y=              1.9250    Z=              0.0688  Tot=              4.4921
 Quadrupole moment (field-independent basis, Debye-Ang):
   XX=            -73.4377   YY=            -67.0589   ZZ=            -72.1446
   XY=             -0.7444   XZ=              0.0867   YZ=              0.1265
 Traceless Quadrupole moment (field-independent basis, Debye-Ang):
   XX=             -2.5573   YY=              3.8215   ZZ=             -1.2642
   XY=             -0.7444   XZ=              0.0867   YZ=              0.1265
 Octapole moment (field-independent basis, Debye-Ang**2):
  XXX=             45.1413  YYY=             12.6135  ZZZ=              0.3840  XYY=             14.6718
  XXY=              1.1639  XXZ=             -0.0355  XZZ=             -4.1890  YZZ=              3.6532
  YYZ=             -0.0143  XYZ=              0.1014
 Hexadecapole moment (field-independent basis, Debye-Ang**3):
 XXXX=          -1847.7061 YYYY=           -661.0810 ZZZZ=            -87.1873 XXXY=             -7.2044
 XXXZ=              0.7077 YYYX=            -12.3332 YYYZ=             -0.2957 ZZZX=              0.1930
 ZZZY=              0.6398 XXYY=           -422.8583 XXZZ=           -348.3947 YYZZ=           -130.9380
 XXYZ=              0.0147 YYXZ=              0.0356 ZZXY=              6.1354
 N-N= 6.118568962676D+02 E-N=-3.829351478883D+03  KE= 1.099653632728D+03
                          Isotropic Fermi Contact Couplings
        Atom                 a.u.       MegaHertz       Gauss      10(-4) cm-1
     1  S(33)              0.02447       8.40580       2.99940       2.80387
     2  C(13)              0.01679      18.87792       6.73611       6.29700
     3  C(13)              0.26993     303.44820     108.27786     101.21942
     4  C(13)             -0.00335      -3.76604      -1.34382      -1.25622
     5  C(13)              0.02675      30.06835      10.72913      10.02972
     6  C(13)             -0.00247      -2.78158      -0.99254      -0.92784
     7  C(13)             -0.00073      -0.82204      -0.29333      -0.27420
     8  C(13)              0.04364      49.06343      17.50705      16.36580
     9  C(13)              0.00409       4.60326       1.64256       1.53548
    10  S(33)             -0.00309      -1.05966      -0.37811      -0.35346
    11  H(1)               0.00001       0.04554       0.01625       0.01519
    12  H(1)               0.00039       1.72254       0.61465       0.57458
    13  H(1)               0.00334      14.93114       5.32780       4.98049
    14  H(1)               0.00051       2.26322       0.80757       0.75493
    15  H(1)               0.00041       1.83949       0.65638       0.61359
 --------------------------------------------------------
       Center         ----  Spin Dipole Couplings  ----
                      3XX-RR        3YY-RR        3ZZ-RR
 --------------------------------------------------------
     1   Atom        0.127749     -0.132483      0.004735
     2   Atom        0.043844      0.001195     -0.045039
     3   Atom       -0.429755      0.843243     -0.413487
     4   Atom        0.103768      0.015582     -0.119350
     5   Atom        0.040179     -0.024743     -0.015436
     6   Atom        0.020294      0.017728     -0.038022
     7   Atom        0.032991      0.009927     -0.042918
     8   Atom       -0.032827      0.076214     -0.043387
     9   Atom        0.005118      0.003357     -0.008476
    10   Atom       -0.183720      0.338202     -0.154482
    11   Atom        0.005726      0.001006     -0.006732
    12   Atom        0.001646      0.000291     -0.001938
    13   Atom        0.003592     -0.001124     -0.002468
    14   Atom       -0.001238      0.003933     -0.002695
    15   Atom       -0.001476      0.003728     -0.002252
 --------------------------------------------------------
                        XY            XZ            YZ
 --------------------------------------------------------
     1   Atom       -0.094230     -0.019122      0.011879
     2   Atom       -0.031191      0.000530     -0.001993
     3   Atom        0.404363     -0.000005     -0.002475
     4   Atom        0.039001      0.000164      0.001152
     5   Atom       -0.018908     -0.001297      0.000341
     6   Atom        0.002486      0.000053      0.000329
     7   Atom        0.001364      0.000599      0.000596
     8   Atom        0.065562      0.000403      0.000236
     9   Atom        0.002809      0.000767      0.000077
    10   Atom        0.029940      0.000542     -0.005018
    11   Atom       -0.006560     -0.000096      0.000057
    12   Atom        0.001404     -0.000012      0.000018
    13   Atom        0.000522     -0.000008     -0.000034
    14   Atom        0.001823     -0.000959     -0.002585
    15   Atom        0.001648      0.001047      0.002971
 --------------------------------------------------------


 ---------------------------------------------------------------------------------
              Anisotropic Spin Dipole Couplings in Principal Axis System
 ---------------------------------------------------------------------------------

       Atom             a.u.   MegaHertz   Gauss  10(-4) cm-1        Axes

              Baa    -0.1632    -6.691    -2.387    -2.232  0.3060  0.9515 -0.0325
     1 S(33)  Bbb     0.0019     0.076     0.027     0.025  0.1416 -0.0118  0.9899
              Bcc     0.1613     6.615     2.360     2.206  0.9414 -0.3075 -0.1383
 
              Baa    -0.0451    -6.057    -2.161    -2.020  0.0119  0.0510  0.9986
     2 C(13)  Bbb    -0.0152    -2.038    -0.727    -0.680  0.4669  0.8828 -0.0507
              Bcc     0.0603     8.095     2.888     2.700  0.8842 -0.4669  0.0133
 
              Baa    -0.5473   -73.448   -26.208   -24.500  0.9602 -0.2792 -0.0051
     3 C(13)  Bbb    -0.4135   -55.486   -19.799   -18.508  0.0054  0.0002  1.0000
              Bcc     0.9608   128.934    46.007    43.008  0.2792  0.9602 -0.0017
 
              Baa    -0.1194   -16.017    -5.715    -5.343  0.0008 -0.0088  1.0000
     4 C(13)  Bbb     0.0008     0.110     0.039     0.037 -0.3543  0.9351  0.0085
              Bcc     0.1185    15.907     5.676     5.306  0.9351  0.3543  0.0024
 
              Baa    -0.0298    -4.005    -1.429    -1.336  0.2607  0.9654  0.0006
     5 C(13)  Bbb    -0.0155    -2.075    -0.741    -0.692  0.0211 -0.0064  0.9998
              Bcc     0.0453     6.081     2.170     2.028  0.9652 -0.2606 -0.0221
 
              Baa    -0.0380    -5.102    -1.821    -1.702 -0.0007 -0.0059  1.0000
     6 C(13)  Bbb     0.0162     2.176     0.776     0.726 -0.5204  0.8539  0.0047
              Bcc     0.0218     2.927     1.044     0.976  0.8539  0.5204  0.0036
 
              Baa    -0.0429    -5.761    -2.056    -1.922 -0.0077 -0.0111  0.9999
     7 C(13)  Bbb     0.0099     1.322     0.472     0.441 -0.0591  0.9982  0.0106
              Bcc     0.0331     4.439     1.584     1.481  0.9982  0.0590  0.0083
 
              Baa    -0.0636    -8.532    -3.044    -2.846  0.9053 -0.4246 -0.0131
     8 C(13)  Bbb    -0.0434    -5.822    -2.077    -1.942  0.0108 -0.0079  0.9999
              Bcc     0.1070    14.354     5.122     4.788  0.4246  0.9054  0.0026
 
              Baa    -0.0085    -1.143    -0.408    -0.381 -0.0576  0.0071  0.9983
     9 C(13)  Bbb     0.0013     0.176     0.063     0.059 -0.5879  0.8080 -0.0397
              Bcc     0.0072     0.968     0.345     0.323  0.8069  0.5892  0.0424
 
              Baa    -0.1855    -7.603    -2.713    -2.536  0.9980 -0.0573 -0.0268
    10 S(33)  Bbb    -0.1545    -6.335    -2.260    -2.113  0.0273  0.0085  0.9996
              Bcc     0.3400    13.938     4.973     4.649  0.0571  0.9983 -0.0101
 
              Baa    -0.0067    -3.592    -1.282    -1.198  0.0069 -0.0016  1.0000
    11 H(1)   Bbb    -0.0036    -1.924    -0.686    -0.642  0.5751  0.8181 -0.0026
              Bcc     0.0103     5.516     1.968     1.840  0.8181 -0.5751 -0.0065
 
              Baa    -0.0019    -1.034    -0.369    -0.345  0.0087 -0.0135  0.9999
    12 H(1)   Bbb    -0.0006    -0.315    -0.112    -0.105 -0.5317  0.8468  0.0160
              Bcc     0.0025     1.349     0.481     0.450  0.8469  0.5317 -0.0002
 
              Baa    -0.0025    -1.317    -0.470    -0.439 -0.0010  0.0257  0.9997
    13 H(1)   Bbb    -0.0012    -0.630    -0.225    -0.210 -0.1088  0.9937 -0.0257
              Bcc     0.0036     1.947     0.695     0.649  0.9941  0.1088 -0.0019
 
              Baa    -0.0036    -1.940    -0.692    -0.647  0.1621  0.2838  0.9451
    14 H(1)   Bbb    -0.0018    -0.965    -0.344    -0.322  0.9426 -0.3279 -0.0632
              Bcc     0.0054     2.904     1.036     0.969  0.2919  0.9011 -0.3206
 
              Baa    -0.0035    -1.893    -0.675    -0.631 -0.2032 -0.3304  0.9217
    15 H(1)   Bbb    -0.0019    -1.034    -0.369    -0.345  0.9421 -0.3224  0.0922
              Bcc     0.0055     2.927     1.044     0.976  0.2667  0.8871  0.3768
 

 ---------------------------------------------------------------------------------

 PrsmSu:  requested number of processors reduced to:  13 ShMem   1 Linda.
 Calling FoFJK, ICntrl=      2127 FMM=F ISym2X=0 I1Cent= 0 IOpClX= 1 NMat=1 NMatS=1 NMatT=0.
 ***** Axes restored to original set *****
 -------------------------------------------------------------------
 Center     Atomic                   Forces (Hartrees/Bohr)
 Number     Number              X              Y              Z
 -------------------------------------------------------------------
      1       16           0.004322050    0.005756643   -0.000155805
      2        6           0.010301750   -0.012486385    0.000124486
      3        6          -0.074260790   -0.010021346    0.000331557
      4        6           0.017370040   -0.007981775    0.000176612
      5        6           0.009055424   -0.009366865   -0.000111806
      6        6           0.010058156   -0.001288649    0.000298749
      7        6           0.013463930    0.007967171    0.000487015
      8        6           0.012434029    0.015221450   -0.000602261
      9        6           0.012689371    0.002283962    0.000362204
     10       16          -0.010270760    0.003071818   -0.000526148
     11        1          -0.004642261    0.000100322   -0.000210300
     12        1           0.000452312   -0.002719272   -0.000208787
     13        1           0.003273302    0.000701712   -0.000479127
     14        1          -0.002092214    0.004200270    0.001279936
     15        1          -0.002154339    0.004560943   -0.000766324
 -------------------------------------------------------------------
 Cartesian Forces:  Max     0.074260790 RMS     0.012970749

 GradGradGradGradGradGradGradGradGradGradGradGradGradGradGradGradGradGrad
 Berny optimization.
 FormGI is forming the generalized inverse of G from B-inverse, IUseBI=4.
 Internal  Forces:  Max     0.058106105 RMS     0.009486863
 Search for a local minimum.
 Step number   1 out of a maximum of   87
 All quantities printed in internal units (Hartrees-Bohrs-Radians)
 Mixed Optimization -- RFO/linear search
 Second derivative matrix not updated -- first step.
 ITU=  0
     Eigenvalues ---    0.00636   0.01315   0.01396   0.01523   0.01882
     Eigenvalues ---    0.02044   0.02081   0.02152   0.02407   0.02666
     Eigenvalues ---    0.04623   0.07467   0.12344   0.12798   0.15997
     Eigenvalues ---    0.16000   0.16000   0.22249   0.23575   0.24172
     Eigenvalues ---    0.24548   0.24976   0.24999   0.24999   0.29831
     Eigenvalues ---    0.33076   0.34318   0.34321   0.34493   0.35980
     Eigenvalues ---    0.36071   0.36333   0.37552   0.38730   0.40210
     Eigenvalues ---    0.41983   0.51035   0.55487   0.69794
 RFO step:  Lambda=-1.53393323D-02 EMin= 6.35626524D-03
 Linear search not attempted -- first point.
 Iteration  1 RMS(Cart)=  0.03570365 RMS(Int)=  0.00069485
 Iteration  2 RMS(Cart)=  0.00097029 RMS(Int)=  0.00019755
 Iteration  3 RMS(Cart)=  0.00000028 RMS(Int)=  0.00019755
 Variable       Old X    -DE/DX   Delta X   Delta X   Delta X     New X
                                 (Linear)    (Quad)   (Total)
    R1        3.12645  -0.00570   0.00000  -0.01310  -0.01310   3.11336
    R2        2.70261  -0.01117   0.00000  -0.02450  -0.02436   2.67825
    R3        3.31322   0.00638   0.00000   0.01649   0.01662   3.32984
    R4        2.42687   0.05811   0.00000   0.08148   0.08152   2.50839
    R5        2.71611   0.01292   0.00000   0.03153   0.03173   2.74784
    R6        2.72392   0.03189   0.00000   0.08432   0.08431   2.80823
    R7        2.55090   0.01247   0.00000   0.02000   0.02001   2.57091
    R8        2.03563   0.00081   0.00000   0.00215   0.00215   2.03778
    R9        2.75297   0.00951   0.00000   0.02226   0.02208   2.77505
   R10        2.04112   0.00165   0.00000   0.00440   0.00440   2.04552
   R11        2.53576   0.01588   0.00000   0.02824   0.02811   2.56387
   R12        2.03971   0.00294   0.00000   0.00782   0.00782   2.04753
   R13        2.81241   0.00794   0.00000   0.02221   0.02205   2.83446
   R14        3.44175   0.01065   0.00000   0.03473   0.03469   3.47644
   R15        2.06796   0.00048   0.00000   0.00134   0.00134   2.06930
   R16        2.06792   0.00082   0.00000   0.00230   0.00230   2.07022
    A1        2.10656   0.00287   0.00000   0.01144   0.01129   2.11785
    A2        2.17554  -0.01089   0.00000  -0.04041  -0.04055   2.13500
    A3        2.00103   0.00802   0.00000   0.02892   0.02919   2.03022
    A4        2.44595  -0.02309   0.00000  -0.07251  -0.07230   2.37364
    A5        2.35146  -0.00038   0.00000  -0.01169  -0.01176   2.33970
    A6        2.01894   0.01133   0.00000   0.05382   0.05358   2.07251
    A7        1.91278  -0.01095   0.00000  -0.04210  -0.04180   1.87097
    A8        1.84029   0.00689   0.00000   0.02676   0.02691   1.86721
    A9        2.23317  -0.00810   0.00000  -0.03991  -0.03999   2.19318
   A10        2.20972   0.00121   0.00000   0.01316   0.01308   2.22279
   A11        1.91571   0.00283   0.00000   0.00594   0.00575   1.92146
   A12        2.22367  -0.00367   0.00000  -0.01580  -0.01571   2.20795
   A13        2.14379   0.00084   0.00000   0.00989   0.00998   2.15377
   A14        1.90411  -0.00261   0.00000  -0.00994  -0.01028   1.89383
   A15        2.18149  -0.00032   0.00000  -0.00424  -0.00408   2.17740
   A16        2.19747   0.00293   0.00000   0.01430   0.01446   2.21192
   A17        1.85188   0.00385   0.00000   0.01933   0.01942   1.87130
   A18        2.18290  -0.00597   0.00000  -0.02005  -0.02034   2.16256
   A19        2.24817   0.00213   0.00000   0.00078   0.00099   2.24916
   A20        2.08576  -0.00417   0.00000  -0.02391  -0.02398   2.06179
   A21        1.88738   0.00514   0.00000   0.03549   0.03526   1.92264
   A22        1.88269   0.00562   0.00000   0.03828   0.03804   1.92072
   A23        1.85448  -0.00171   0.00000  -0.01563  -0.01533   1.83914
   A24        1.85913  -0.00211   0.00000  -0.01591  -0.01566   1.84346
   A25        1.88681  -0.00315   0.00000  -0.02110  -0.02203   1.86478
   A26        1.82927   0.01387   0.00000   0.03342   0.03354   1.86280
    D1       -3.14047  -0.00026   0.00000  -0.00230  -0.00244   3.14028
    D2        0.01110  -0.00008   0.00000   0.00320   0.00319   0.01429
    D3        3.10285  -0.00018   0.00000  -0.00011  -0.00025   3.10260
    D4       -0.04916  -0.00028   0.00000  -0.00550  -0.00560  -0.05476
    D5       -3.13531   0.00028   0.00000   0.00638   0.00646  -3.12885
    D6        0.01282  -0.00007   0.00000  -0.00047  -0.00053   0.01229
    D7       -3.13758  -0.00034   0.00000  -0.00474  -0.00463   3.14097
    D8        0.00177  -0.00012   0.00000  -0.00057  -0.00059   0.00118
    D9       -0.00225   0.00005   0.00000   0.00207   0.00203  -0.00021
   D10        3.13710   0.00027   0.00000   0.00624   0.00608  -3.14000
   D11        3.13882   0.00025   0.00000   0.00325   0.00337  -3.14100
   D12        0.01864   0.00010   0.00000   0.00017   0.00027   0.01891
   D13        0.00216  -0.00003   0.00000  -0.00193  -0.00190   0.00026
   D14       -3.11802  -0.00018   0.00000  -0.00501  -0.00500  -3.12302
   D15        0.00148  -0.00003   0.00000  -0.00136  -0.00138   0.00009
   D16        3.13732   0.00022   0.00000   0.00515   0.00508  -3.14079
   D17       -3.13791  -0.00023   0.00000  -0.00536  -0.00543   3.13984
   D18       -0.00207   0.00003   0.00000   0.00114   0.00104  -0.00104
   D19       -0.00017   0.00003   0.00000   0.00026   0.00025   0.00008
   D20        3.12541   0.00030   0.00000   0.00865   0.00863   3.13404
   D21       -3.13632  -0.00019   0.00000  -0.00580  -0.00588   3.14098
   D22       -0.01074   0.00007   0.00000   0.00260   0.00250  -0.00824
   D23       -0.00122  -0.00001   0.00000   0.00100   0.00101  -0.00020
   D24        3.11788   0.00002   0.00000   0.00391   0.00398   3.12187
   D25       -3.12662  -0.00024   0.00000  -0.00728  -0.00736  -3.13398
   D26       -0.00751  -0.00021   0.00000  -0.00436  -0.00439  -0.01191
   D27       -0.06596   0.00018   0.00000  -0.00169  -0.00162  -0.06757
   D28       -2.18806   0.00111   0.00000   0.00640   0.00687  -2.18120
   D29        2.05842  -0.00086   0.00000  -0.00767  -0.00812   2.05031
   D30        3.10203   0.00001   0.00000  -0.00563  -0.00555   3.09649
   D31        0.97993   0.00094   0.00000   0.00246   0.00294   0.98286
   D32       -1.05677  -0.00103   0.00000  -0.01161  -0.01205  -1.06882
   D33        0.07450   0.00033   0.00000   0.00484   0.00479   0.07928
   D34        2.21287   0.00286   0.00000   0.02241   0.02236   2.23522
   D35       -2.06153  -0.00249   0.00000  -0.01623  -0.01616  -2.07769
         Item               Value     Threshold  Converged?
 Maximum Force            0.058106     0.000450     NO 
 RMS     Force            0.009487     0.000300     NO 
 Maximum Displacement     0.128269     0.001800     NO 
 RMS     Displacement     0.035480     0.001200     NO 
 Predicted change in Energy=-7.999718D-03
 GradGradGradGradGradGradGradGradGradGradGradGradGradGradGradGradGradGrad

                          Input orientation:                          
 ---------------------------------------------------------------------
 Center     Atomic      Atomic             Coordinates (Angstroms)
 Number     Number       Type             X           Y           Z
 ---------------------------------------------------------------------
      1         16           0        0.684489   -0.423411   -0.048402
      2          6           0        2.291850   -0.061962   -0.056014
      3          6           0        3.276713   -1.081081   -0.046566
      4          6           0        4.603295   -1.126992   -0.050148
      5          6           0        5.577641   -2.206357   -0.053241
      6          6           0        6.809736   -1.629470   -0.057103
      7          6           0        6.681805   -0.166560   -0.056538
      8          6           0        5.362617    0.150416   -0.052204
      9          6           0        4.720305    1.505626   -0.026937
     10         16           0        2.884403    1.596888   -0.100820
     11          1           0        5.348522   -3.260082   -0.054123
     12          1           0        7.761862   -2.144372   -0.060812
     13          1           0        7.514795    0.526326   -0.052396
     14          1           0        5.075074    2.107174   -0.870360
     15          1           0        5.005731    2.039565    0.886073
 ---------------------------------------------------------------------
                    Distance matrix (angstroms):
                    1          2          3          4          5
     1  S    0.000000
     2  C    1.647517   0.000000
     3  C    2.674352   1.417267   0.000000
     4  C    3.981466   2.545015   1.327381   0.000000
     5  C    5.207865   3.923628   2.561359   1.454094   0.000000
     6  C    6.242860   4.782089   3.575346   2.262944   1.360468
     7  C    6.002819   4.391201   3.525777   2.289689   2.319475
     8  C    4.713191   3.078105   2.422316   1.486051   2.366563
     9  C    4.473193   2.890601   2.962330   2.635320   3.809795
    10  S    2.987303   1.762076   2.707096   3.221285   4.660523
    11  H    5.458932   4.423936   3.006742   2.259524   1.078347
    12  H    7.283617   5.852990   4.609486   3.318392   2.185114
    13  H    6.896020   5.255973   4.532674   3.348179   3.349646
    14  H    5.133879   3.621415   3.752027   3.369741   4.418915
    15  H    5.060891   3.559367   3.687513   3.326492   4.386029
                    6          7          8          9         10
     6  C    0.000000
     7  C    1.468494   0.000000
     8  C    2.293943   1.356743   0.000000
     9  C    3.767687   2.577706   1.499932   0.000000
    10  S    5.081293   4.187120   2.869876   1.839653   0.000000
    11  H    2.189532   3.368609   3.410528   4.807012   5.446487
    12  H    1.082442   2.253504   3.320016   4.751285   6.147214
    13  H    2.268169   1.083504   2.184761   2.961225   4.752786
    14  H    4.199161   2.900648   2.140318   1.095027   2.377314
    15  H    4.195931   2.926556   2.139303   1.095512   2.381166
                   11         12         13         14         15
    11  H    0.000000
    12  H    2.658772   0.000000
    13  H    4.362296   2.682115   0.000000
    14  H    5.435848   5.094098   3.019997   0.000000
    15  H    5.393305   5.098841   3.076690   1.759102   0.000000
 Stoichiometry    C8H5S2(2)
 Framework group  C1[X(C8H5S2)]
 Deg. of freedom    39
 Full point group                 C1      NOp   1
 Largest Abelian subgroup         C1      NOp   1
 Largest concise Abelian subgroup C1      NOp   1
                         Standard orientation:                         
 ---------------------------------------------------------------------
 Center     Atomic      Atomic             Coordinates (Angstroms)
 Number     Number       Type             X           Y           Z
 ---------------------------------------------------------------------
      1         16           0       -2.969922   -1.018416    0.009771
      2          6           0       -1.488371   -0.297807    0.003285
      3          6           0       -0.295959   -1.063830    0.006018
      4          6           0        1.005765   -0.804148    0.001313
      5          6           0        2.201737   -1.631152   -0.008848
      6          6           0        3.268615   -0.786970   -0.010056
      7          6           0        2.808485    0.607542   -0.000676
      8          6           0        1.451773    0.613383    0.006395
      9          6           0        0.515740    1.784920    0.040164
     10         16           0       -1.292277    1.452968   -0.031996
     11          1           0        2.220467   -2.709313   -0.015874
     12          1           0        4.313463   -1.069670   -0.017449
     13          1           0        3.460307    1.473019    0.007069
     14          1           0        0.721361    2.456581   -0.799880
     15          1           0        0.672879    2.364921    0.956162
 ---------------------------------------------------------------------
 Rotational constants (GHZ):           2.1631323           0.6996519           0.5304630
 Standard basis: 6-31G(2df,p) (6D, 7F)
 There are   343 symmetry adapted cartesian basis functions of A   symmetry.
 There are   313 symmetry adapted basis functions of A   symmetry.
   313 basis functions,   523 primitive gaussians,   343 cartesian basis functions
    43 alpha electrons       42 beta electrons
       nuclear repulsion energy       607.1694888041 Hartrees.
 NAtoms=   15 NActive=   15 NUniq=   15 SFac= 1.00D+00 NAtFMM=   60 NAOKFM=F Big=F
 Integral buffers will be    131072 words long.
 Raffenetti 2 integral format.
 Two-electron integral symmetry is turned on.
 One-electron integrals computed using PRISM.
 PrsmSu:  requested number of processors reduced to:  13 ShMem   1 Linda.
 NBasis=   313 RedAO= T EigKep=  2.46D-04  NBF=   313
 NBsUse=   313 1.00D-06 EigRej= -1.00D+00 NBFU=   313
 Initial guess from the checkpoint file:  "SdC1[C]dC2CdCCdC2CS1.chk"
 B after Tr=     0.000000    0.000000    0.000000
         Rot=    0.999995    0.000267    0.000038    0.003044 Ang=   0.35 deg.
 Initial guess <Sx>= 0.0000 <Sy>= 0.0000 <Sz>= 0.5000 <S**2>= 0.7615 S= 0.5057
 ExpMin= 1.17D-01 ExpMax= 2.19D+04 ExpMxC= 3.30D+03 IAcc=2 IRadAn=         4 AccDes= 0.00D+00
 Harris functional with IExCor=  402 and IRadAn=       4 diagonalized for initial guess.
 HarFok:  IExCor=  402 AccDes= 0.00D+00 IRadAn=         4 IDoV= 1 UseB2=F ITyADJ=14
 ICtDFT=  3500011 ScaDFX=  1.000000  1.000000  1.000000  1.000000
 FoFCou: FMM=F IPFlag=           0 FMFlag=      100000 FMFlg1=           0
         NFxFlg=           0 DoJE=T BraDBF=F KetDBF=T FulRan=T
         wScrn=  0.000000 ICntrl=       500 IOpCl=  0 I1Cent=   200000004 NGrid=           0
         NMat0=    1 NMatS0=      1 NMatT0=    0 NMatD0=    1 NMtDS0=    0 NMtDT0=    0
 Petite list used in FoFCou.
 Requested convergence on RMS density matrix=1.00D-08 within 128 cycles.
 Requested convergence on MAX density matrix=1.00D-06.
 Requested convergence on             energy=1.00D-06.
 No special actions if energy rises.
 Integral accuracy reduced to 1.0D-05 until final iterations.
 Initial convergence to 1.0D-05 achieved.  Increase integral accuracy.
 SCF Done:  E(UB3LYP) =  -1104.13263042     A.U. after   21 cycles
            NFock= 21  Conv=0.74D-08     -V/T= 2.0044
 <Sx>= 0.0000 <Sy>= 0.0000 <Sz>= 0.5000 <S**2>= 0.7646 S= 0.5073
 <L.S>=  0.00000000000    
 Annihilation of the first spin contaminant:
 S**2 before annihilation     0.7646,   after     0.7501
 PrsmSu:  requested number of processors reduced to:  13 ShMem   1 Linda.
 Calling FoFJK, ICntrl=      2127 FMM=F ISym2X=0 I1Cent= 0 IOpClX= 1 NMat=1 NMatS=1 NMatT=0.
 ***** Axes restored to original set *****
 -------------------------------------------------------------------
 Center     Atomic                   Forces (Hartrees/Bohr)
 Number     Number              X              Y              Z
 -------------------------------------------------------------------
      1       16          -0.001450069    0.002475652    0.000003363
      2        6           0.006987507   -0.003805544   -0.000219199
      3        6          -0.007015138   -0.006358136    0.000251658
      4        6           0.002803444    0.003916702    0.000061522
      5        6           0.005305312    0.000834787    0.000044135
      6        6          -0.002361574   -0.001225062   -0.000031806
      7        6          -0.005578112    0.000435441    0.000222802
      8        6           0.005247355    0.004028127   -0.000057734
      9        6           0.006527735   -0.001946525    0.000358799
     10       16          -0.005228818    0.001962132   -0.000289143
     11        1          -0.001652664   -0.000064135   -0.000051945
     12        1          -0.000699066   -0.000982084   -0.000060822
     13        1          -0.000587581   -0.000574760   -0.000237165
     14        1          -0.001103567    0.000704301   -0.000022579
     15        1          -0.001194763    0.000599104    0.000028113
 -------------------------------------------------------------------
 Cartesian Forces:  Max     0.007015138 RMS     0.002912677

 GradGradGradGradGradGradGradGradGradGradGradGradGradGradGradGradGradGrad
 Berny optimization.
 Using GEDIIS/GDIIS optimizer.
 FormGI is forming the generalized inverse of G from B-inverse, IUseBI=4.
 Internal  Forces:  Max     0.006416321 RMS     0.001747388
 Search for a local minimum.
 Step number   2 out of a maximum of   87
 All quantities printed in internal units (Hartrees-Bohrs-Radians)
 Mixed Optimization -- RFO/linear search
 Update second derivatives using D2CorX and points    1    2
 DE= -8.38D-03 DEPred=-8.00D-03 R= 1.05D+00
 TightC=F SS=  1.41D+00  RLast= 2.07D-01 DXNew= 5.0454D-01 6.2036D-01
 Trust test= 1.05D+00 RLast= 2.07D-01 DXMaxT set to 5.05D-01
 ITU=  1  0
 Use linear search instead of GDIIS.
     Eigenvalues ---    0.00637   0.01330   0.01402   0.01530   0.01885
     Eigenvalues ---    0.02058   0.02084   0.02168   0.02410   0.02653
     Eigenvalues ---    0.04688   0.07309   0.12126   0.12679   0.15717
     Eigenvalues ---    0.16000   0.16009   0.21215   0.22413   0.23643
     Eigenvalues ---    0.24565   0.24793   0.24983   0.25180   0.29831
     Eigenvalues ---    0.33352   0.34318   0.34321   0.34660   0.35984
     Eigenvalues ---    0.36094   0.36328   0.37299   0.39001   0.40212
     Eigenvalues ---    0.42101   0.51159   0.57601   0.71097
 RFO step:  Lambda=-8.56044460D-04 EMin= 6.37305556D-03
 Quartic linear search produced a step of  0.14905.
 Iteration  1 RMS(Cart)=  0.01268862 RMS(Int)=  0.00017307
 Iteration  2 RMS(Cart)=  0.00020711 RMS(Int)=  0.00007225
 Iteration  3 RMS(Cart)=  0.00000001 RMS(Int)=  0.00007225
 Variable       Old X    -DE/DX   Delta X   Delta X   Delta X     New X
                                 (Linear)    (Quad)   (Total)
    R1        3.11336   0.00087  -0.00195   0.00359   0.00164   3.11499
    R2        2.67825  -0.00170  -0.00363  -0.00253  -0.00611   2.67213
    R3        3.32984   0.00122   0.00248   0.00266   0.00516   3.33501
    R4        2.50839   0.00356   0.01215  -0.00190   0.01027   2.51866
    R5        2.74784  -0.00040   0.00473  -0.00359   0.00117   2.74900
    R6        2.80823   0.00263   0.01257   0.00100   0.01356   2.82179
    R7        2.57091  -0.00458   0.00298  -0.01176  -0.00877   2.56214
    R8        2.03778   0.00041   0.00032   0.00111   0.00143   2.03921
    R9        2.77505   0.00128   0.00329   0.00110   0.00437   2.77942
   R10        2.04552  -0.00015   0.00066  -0.00087  -0.00022   2.04530
   R11        2.56387  -0.00423   0.00419  -0.01122  -0.00705   2.55682
   R12        2.04753  -0.00082   0.00116  -0.00332  -0.00216   2.04537
   R13        2.83446  -0.00126   0.00329  -0.00610  -0.00287   2.83160
   R14        3.47644   0.00294   0.00517   0.01034   0.01548   3.49192
   R15        2.06930   0.00005   0.00020   0.00003   0.00023   2.06953
   R16        2.07022   0.00000   0.00034  -0.00019   0.00015   2.07037
    A1        2.11785   0.00240   0.00168   0.01019   0.01183   2.12968
    A2        2.13500  -0.00610  -0.00604  -0.02418  -0.03027   2.10473
    A3        2.03022   0.00371   0.00435   0.01410   0.01851   2.04874
    A4        2.37364  -0.00642  -0.01078  -0.02188  -0.03257   2.34108
    A5        2.33970  -0.00405  -0.00175  -0.01922  -0.02098   2.31871
    A6        2.07251   0.00386   0.00799   0.01358   0.02153   2.09404
    A7        1.87097   0.00018  -0.00623   0.00565  -0.00056   1.87042
    A8        1.86721   0.00014   0.00401  -0.00150   0.00252   1.86973
    A9        2.19318  -0.00170  -0.00596  -0.00869  -0.01467   2.17851
   A10        2.22279   0.00156   0.00195   0.01019   0.01212   2.23491
   A11        1.92146  -0.00009   0.00086  -0.00274  -0.00190   1.91956
   A12        2.20795  -0.00118  -0.00234  -0.00630  -0.00863   2.19932
   A13        2.15377   0.00127   0.00149   0.00903   0.01053   2.16430
   A14        1.89383   0.00163  -0.00153   0.00839   0.00680   1.90064
   A15        2.17740  -0.00088  -0.00061  -0.00389  -0.00449   2.17291
   A16        2.21192  -0.00075   0.00215  -0.00445  -0.00229   2.20963
   A17        1.87130  -0.00187   0.00289  -0.00979  -0.00687   1.86443
   A18        2.16256   0.00011  -0.00303   0.00315   0.00003   2.16259
   A19        2.24916   0.00176   0.00015   0.00667   0.00688   2.25604
   A20        2.06179  -0.00156  -0.00357  -0.00681  -0.01044   2.05135
   A21        1.92264   0.00150   0.00526   0.00933   0.01447   1.93710
   A22        1.92072   0.00148   0.00567   0.00920   0.01476   1.93549
   A23        1.83914  -0.00060  -0.00229  -0.00820  -0.01039   1.82875
   A24        1.84346  -0.00056  -0.00233  -0.00727  -0.00949   1.83397
   A25        1.86478  -0.00033  -0.00328   0.00360  -0.00004   1.86473
   A26        1.86280   0.00029   0.00500  -0.00277   0.00220   1.86500
    D1        3.14028  -0.00003  -0.00036   0.00380   0.00350  -3.13941
    D2        0.01429  -0.00009   0.00048  -0.00292  -0.00245   0.01183
    D3        3.10260  -0.00019  -0.00004  -0.01066  -0.01062   3.09198
    D4       -0.05476  -0.00004  -0.00083  -0.00353  -0.00435  -0.05911
    D5       -3.12885   0.00019   0.00096   0.00801   0.00896  -3.11989
    D6        0.01229   0.00010  -0.00008   0.00397   0.00390   0.01619
    D7        3.14097  -0.00014  -0.00069  -0.00692  -0.00749   3.13348
    D8        0.00118  -0.00003  -0.00009  -0.00149  -0.00157  -0.00039
    D9       -0.00021  -0.00006   0.00030  -0.00321  -0.00290  -0.00312
   D10       -3.14000   0.00005   0.00091   0.00222   0.00302  -3.13698
   D11       -3.14100   0.00011   0.00050   0.00526   0.00580  -3.13520
   D12        0.01891   0.00006   0.00004   0.00351   0.00359   0.02250
   D13        0.00026   0.00004  -0.00028   0.00221   0.00190   0.00216
   D14       -3.12302  -0.00001  -0.00074   0.00046  -0.00030  -3.12332
   D15        0.00009   0.00005  -0.00021   0.00301   0.00280   0.00290
   D16       -3.14079   0.00010   0.00076   0.00476   0.00550  -3.13529
   D17        3.13984  -0.00006  -0.00081  -0.00257  -0.00341   3.13643
   D18       -0.00104  -0.00001   0.00015  -0.00082  -0.00072  -0.00175
   D19        0.00008  -0.00003   0.00004  -0.00167  -0.00165  -0.00158
   D20        3.13404   0.00010   0.00129   0.00455   0.00584   3.13988
   D21        3.14098  -0.00007  -0.00088  -0.00336  -0.00429   3.13669
   D22       -0.00824   0.00005   0.00037   0.00286   0.00320  -0.00503
   D23       -0.00020  -0.00001   0.00015  -0.00042  -0.00024  -0.00044
   D24        3.12187   0.00002   0.00059   0.00138   0.00202   3.12388
   D25       -3.13398  -0.00014  -0.00110  -0.00680  -0.00792   3.14129
   D26       -0.01191  -0.00011  -0.00065  -0.00500  -0.00566  -0.01757
   D27       -0.06757  -0.00008  -0.00024  -0.00946  -0.00972  -0.07730
   D28       -2.18120   0.00064   0.00102  -0.00109   0.00011  -2.18108
   D29        2.05031  -0.00076  -0.00121  -0.01669  -0.01807   2.03223
   D30        3.09649  -0.00010  -0.00083  -0.01142  -0.01228   3.08421
   D31        0.98286   0.00062   0.00044  -0.00305  -0.00244   0.98042
   D32       -1.06882  -0.00077  -0.00180  -0.01864  -0.02063  -1.08944
   D33        0.07928   0.00002   0.00071   0.00838   0.00909   0.08838
   D34        2.23522   0.00045   0.00333   0.00933   0.01265   2.24787
   D35       -2.07769  -0.00041  -0.00241   0.00688   0.00448  -2.07321
         Item               Value     Threshold  Converged?
 Maximum Force            0.006416     0.000450     NO 
 RMS     Force            0.001747     0.000300     NO 
 Maximum Displacement     0.050430     0.001800     NO 
 RMS     Displacement     0.012721     0.001200     NO 
 Predicted change in Energy=-5.274406D-04
 GradGradGradGradGradGradGradGradGradGradGradGradGradGradGradGradGradGrad

                          Input orientation:                          
 ---------------------------------------------------------------------
 Center     Atomic      Atomic             Coordinates (Angstroms)
 Number     Number       Type             X           Y           Z
 ---------------------------------------------------------------------
      1         16           0        0.686226   -0.405431   -0.049976
      2          6           0        2.302224   -0.080474   -0.061177
      3          6           0        3.273730   -1.107767   -0.042965
      4          6           0        4.606437   -1.124939   -0.044293
      5          6           0        5.581981   -2.204051   -0.048255
      6          6           0        6.810869   -1.631339   -0.058346
      7          6           0        6.682588   -0.166141   -0.057314
      8          6           0        5.369194    0.158768   -0.048560
      9          6           0        4.727363    1.512533   -0.023589
     10         16           0        2.883066    1.585238   -0.111926
     11          1           0        5.338021   -3.255212   -0.050623
     12          1           0        7.757421   -2.156084   -0.069086
     13          1           0        7.517717    0.522365   -0.062649
     14          1           0        5.071656    2.125418   -0.863343
     15          1           0        4.990347    2.052826    0.892512
 ---------------------------------------------------------------------
                    Distance matrix (angstroms):
                    1          2          3          4          5
     1  S    0.000000
     2  C    1.648384   0.000000
     3  C    2.681138   1.414032   0.000000
     4  C    3.985696   2.529939   1.332818   0.000000
     5  C    5.215692   3.907243   2.555364   1.454711   0.000000
     6  C    6.246133   4.767921   3.575712   2.261893   1.355827
     7  C    6.001138   4.381203   3.536549   2.286890   2.316138
     8  C    4.716832   3.076313   2.448492   1.493225   2.372381
     9  C    4.473262   2.901790   2.996564   2.640324   3.813656
    10  S    2.965249   1.764809   2.722067   3.212420   4.652623
    11  H    5.455314   4.392623   2.978738   2.252403   1.079103
    12  H    7.284706   5.836728   4.604686   3.315505   2.176069
    13  H    6.894217   5.250218   4.546333   3.345071   3.343744
    14  H    5.128231   3.630315   3.789333   3.384094   4.434986
    15  H    5.045470   3.561811   3.716347   3.335143   4.399553
                    6          7          8          9         10
     6  C    0.000000
     7  C    1.470804   0.000000
     8  C    2.298479   1.353013   0.000000
     9  C    3.771755   2.577205   1.498416   0.000000
    10  S    5.077094   4.184098   2.866996   1.847843   0.000000
    11  H    2.192328   3.369015   3.414123   4.806769   5.427755
    12  H    1.082328   2.261698   3.326047   4.758368   6.144808
    13  H    2.266736   1.082363   2.179117   2.961086   4.755220
    14  H    4.217358   2.914794   2.149445   1.095150   2.376205
    15  H    4.217997   2.947823   2.148626   1.095590   2.380792
                   11         12         13         14         15
    11  H    0.000000
    12  H    2.657427   0.000000
    13  H    4.361342   2.689161   0.000000
    14  H    5.448178   5.116194   3.032178   0.000000
    15  H    5.402374   5.127991   3.105196   1.759235   0.000000
 Stoichiometry    C8H5S2(2)
 Framework group  C1[X(C8H5S2)]
 Deg. of freedom    39
 Full point group                 C1      NOp   1
 Largest Abelian subgroup         C1      NOp   1
 Largest concise Abelian subgroup C1      NOp   1
                         Standard orientation:                         
 ---------------------------------------------------------------------
 Center     Atomic      Atomic             Coordinates (Angstroms)
[...]
 ! D29   D(4,8,9,15)            91.5888         -DE/DX =    0.0                 !
 ! D30   D(7,8,9,10)           158.2197         -DE/DX =    0.0                 !
 ! D31   D(7,8,9,14)            37.972          -DE/DX =    0.0                 !
 ! D32   D(7,8,9,15)           -81.8158         -DE/DX =    0.0                 !
 ! D33   D(8,9,10,2)            28.5696         -DE/DX =    0.0                 !
 ! D34   D(14,9,10,2)          152.4702         -DE/DX =    0.0                 !
 ! D35   D(15,9,10,2)          -94.2465         -DE/DX =    0.0                 !
 --------------------------------------------------------------------------------
 GradGradGradGradGradGradGradGradGradGradGradGradGradGradGradGradGradGrad


 ----------------------------------------------------------------------

 Electric dipole moment (input orientation):
 (Debye = 10**-18 statcoulomb cm , SI units = C m)
                  (au)            (Debye)         (10**-30 SI)
   Tot        0.181917D+01      0.462386D+01      0.154235D+02
   x          0.179562D+01      0.456401D+01      0.152239D+02
   y          0.256441D+00      0.651808D+00      0.217420D+01
   z          0.139090D+00      0.353531D+00      0.117925D+01

 Dipole polarizability, Alpha (input orientation).
 (esu units = cm**3 , SI units = C**2 m**2 J**-1)
 Alpha(0;0):
               (au)            (10**-24 esu)      (10**-40 SI)
   iso        0.131942D+03      0.195518D+02      0.217543D+02
   aniso      0.141097D+03      0.209085D+02      0.232638D+02
   xx         0.218234D+03      0.323390D+02      0.359820D+02
   yx        -0.809013D+01     -0.119883D+01     -0.133388D+01
   yy         0.119740D+03      0.177436D+02      0.197424D+02
   zx        -0.996503D+00     -0.147666D+00     -0.164301D+00
   zy        -0.523428D+01     -0.775640D+00     -0.863016D+00
   zz         0.578520D+02      0.857278D+01      0.953850D+01

 ----------------------------------------------------------------------

 Dipole orientation:
    16          0.46772908         -0.82819756          1.18800301
     6          0.62398817         -0.66723978          4.29653538
     6          0.68007541         -2.84854999          5.85055453
     6          0.97148624         -3.19606184          8.32803604
     6          1.42876427         -5.44569400          9.84980959
     6          1.83479422         -4.65986984         12.25230289
     6          1.60158050         -1.88959508         12.39147074
     6          1.06486970         -0.98395809         10.06484934
     6          0.40377700          1.61768423          9.20877735
    16          0.96367231          2.29055110          5.81894283
     1          1.51003315         -7.34496437          9.11169025
     1          2.29181496         -5.85041465         13.85078275
     1          1.81014153         -0.79409437         14.10654134
     1          1.47920804          3.05970059         10.22581279
     1         -1.60602701          2.00687171          9.52443153

 Electric dipole moment (dipole orientation):
 (Debye = 10**-18 statcoulomb cm , SI units = C m)
                  (au)            (Debye)         (10**-30 SI)
   Tot        0.181917D+01      0.462386D+01      0.154235D+02
   x          0.000000D+00      0.000000D+00      0.000000D+00
   y          0.000000D+00      0.000000D+00      0.000000D+00
   z          0.181917D+01      0.462386D+01      0.154235D+02

 Dipole polarizability, Alpha (dipole orientation).
 (esu units = cm**3 , SI units = C**2 m**2 J**-1)
 Alpha(0;0):
               (au)            (10**-24 esu)      (10**-40 SI)
   iso        0.131942D+03      0.195518D+02      0.217543D+02
   aniso      0.141097D+03      0.209085D+02      0.232638D+02
   xx         0.593805D+02      0.879929D+01      0.979053D+01
   yx        -0.584651D+01     -0.866364D+00     -0.963960D+00
   yy         0.123621D+03      0.183187D+02      0.203823D+02
   zx         0.165661D+02      0.245485D+01      0.273138D+01
   zy        -0.197304D+02     -0.292375D+01     -0.325311D+01
   zz         0.212825D+03      0.315374D+02      0.350901D+02

 ----------------------------------------------------------------------
 1\1\GINC-LEWIS4-R630-HPC4-NODE227\Freq\UB3LYP\6-31G(2df,p)\C8H5S2(2)\Y
 XIE\17-May-2023\0\\#N Geom=AllCheck Guess=TCheck SCRF=Check GenChk UB3
 LYP/6-31G(2df,p) Freq\\Title Card Required\\0,2\S,0.7006704478,-0.3735
 455585,-0.1344614661\C,2.3211841419,-0.0687464784,-0.1023162241\C,3.28
 49131823,-1.0896502815,0.093980437\C,4.6173793305,-1.1052731336,0.0679
 297583\C,5.5890900536,-2.191511143,0.0584649893\C,6.8106236876,-1.6319
 034501,-0.1150310017\C,6.6821117897,-0.1666656053,-0.1942379351\C,5.37
 79468635,0.1668845415,-0.0755903223\C,4.7196358585,1.4995595105,0.0410
 081945\S,2.931127054,1.5578864473,-0.4387863402\H,5.3375431567,-3.2386
 28151,0.1278300019\H,7.7499448545,-2.1623028259,-0.2002616824\H,7.5134
 843234,0.5160187178,-0.3155039709\H,5.2062443798,2.250861633,-0.587139
 7447\H,4.7569408761,1.8627257772,1.0745253065\\Version=ES64L-G16RevA.0
 3\State=2-A\HF=-1104.133982\S2=0.766024\S2-1=0.\S2A=0.750119\RMSD=2.88
 3e-09\RMSF=2.174e-05\ZeroPoint=0.1014465\Thermal=0.1099887\Dipole=1.79
 56214,0.256441,0.1390897\DipoleDeriv=-0.9917687,-0.2833138,0.0330776,-
 0.0098772,-0.3220845,0.0161415,-0.0287856,-0.0010038,-0.1510995,1.1858
 801,0.4171848,-0.0773565,0.1120598,0.845247,-0.1108689,-0.0886994,-0.1
 336924,-0.0048711,-0.0457093,0.0974261,-0.0131926,0.129696,-0.197325,0
 .0347629,0.063289,0.0383967,-0.0060716,-0.2195041,-0.082926,0.0250477,
 -0.2669316,0.0815125,-0.0094643,-0.0245732,-0.0068152,0.0851556,0.1107
 652,-0.0912484,-0.0043004,-0.0612913,-0.0172717,-0.0184176,0.0052452,0
 .026125,-0.1767572,-0.1422885,-0.0440794,-0.0293652,-0.512696,0.259493
 4,-0.0075398,0.0439636,-0.0227068,-0.0825379,-0.3603947,0.2703502,-0.0
 20527,0.6184984,-0.0771189,-0.01268,-0.0057404,-0.0254546,-0.1192832,0
 .443628,-0.0215309,-0.0431819,0.2638951,-0.1178788,0.0319647,-0.117711
 2,0.0925438,-0.0654831,0.2363489,-0.0924705,0.0304047,-0.015068,-0.000
 059,0.0390832,0.0177761,-0.135484,0.1778852,-0.1298499,-0.1179574,0.06
 88711,-0.2819076,-0.4505245,0.0080091,0.1571124,0.1557013,-0.0450567,0
 .0591329,-0.0234949,0.0052303,0.0166958,-0.02529,0.0121465,0.0025863,-
 0.0022701,0.1367717,-0.028821,0.0707313,0.0110656,0.0746991,0.0293246,
 -0.0029482,0.0042884,-0.0016866,0.1207839,-0.0021629,-0.0475395,0.0118
 721,-0.087682,-0.0086262,0.0164615,-0.0010673,0.0136206,0.1211614,-0.0
 259989,-0.0566293,0.0164432,-0.0103899,-0.001211,0.0336681,0.0026962,0
 .0514498,0.0444201,-0.089257,0.0054977,-0.0140887,0.0302993,0.0018122,
 -0.0303187,-0.0303801,-0.0487238,-0.0350176\Polar=218.2344588,-8.09013
 49,119.7396808,-0.9965028,-5.2342807,57.8519685\Quadrupole=-1.5827544,
 2.8493058,-1.2665514,0.6189076,-0.3657293,0.4160444\PG=C01 [X(C8H5S2)]
 \NImag=0\\0.34772028,0.05786130,0.03875749,0.00714810,-0.00161279,0.01
 272421,-0.27784581,-0.03460296,-0.00715434,0.48533959,-0.04344685,-0.0
 3549819,-0.00000893,-0.06769221,0.31201956,-0.00742898,-0.00178237,-0.
 03347705,0.03056994,-0.04166303,0.11629202,-0.05163986,0.00135279,-0.0
 0310535,-0.12052152,0.12415575,-0.02383283,0.70207669,0.01120342,0.008
 38349,-0.00072869,0.08925914,-0.16866591,0.02266583,-0.12200204,0.2777
 1938,-0.00407203,0.00156416,0.01208968,-0.01882138,0.01992449,-0.05692
 285,0.01661417,-0.03609754,0.05836846,0.00843900,0.00524700,-0.0004283
 6,-0.04228282,0.01054544,-0.00104739,-0.46415722,0.01626118,0.00467715
 ,0.81346538,0.00030586,-0.00193195,0.00124071,0.03710548,0.00249348,0.
 00053706,-0.00964954,-0.06950011,0.00154259,-0.05058071,0.39407291,0.0
 0043478,0.00084230,0.00054513,-0.00369901,-0.00072088,0.00269839,0.006
 88283,0.00170993,-0.03579091,-0.02245557,-0.01375427,0.14028007,-0.003
 40821,-0.00128257,0.00006981,0.00540356,-0.00330233,0.00075630,-0.0437
 4148,0.03019108,-0.00193121,-0.10842630,0.04513752,0.00125567,0.611758
 84,0.00044170,0.00178933,-0.00039634,-0.00572180,-0.00238812,0.0005362
 9,0.00605927,0.00778726,-0.00082567,0.06755641,-0.17268085,0.00241838,
 0.14256859,0.76524880,-0.00033950,-0.00050279,-0.00112801,0.00023022,0
 .00230627,0.01006678,0.00244799,-0.00210424,-0.00195183,-0.00032334,0.
 00348430,-0.06490132,-0.05691819,-0.05192886,0.11768487,0.00068554,0.0
 0104919,-0.00017946,-0.00243419,-0.00092358,-0.00001815,0.00598753,0.0
 0302773,0.00022308,-0.07073364,0.02228036,0.00504031,-0.38648685,-0.13
 531177,0.04597999,0.83356364,0.00040681,0.00089347,-0.00024634,0.00239
 013,-0.00354011,0.00166500,0.00267640,-0.00736500,0.00140759,0.0013061
 9,0.02955048,-0.00406805,-0.10936038,-0.16062675,0.01581422,-0.0412590
 6,0.53432793,0.00015729,-0.00011120,-0.00010630,-0.00019437,0.00028401
 ,-0.00108143,-0.00012080,-0.00006748,0.00366366,0.00616902,-0.00316901
 ,0.00203318,0.04606006,0.02054325,-0.06185398,-0.08063552,-0.01862473,
 0.13627642,0.00032674,0.00121745,-0.00016844,0.00052776,-0.00308495,0.
 00119548,0.00420631,-0.00463042,-0.00013563,-0.05935916,-0.02250236,0.
 00688856,0.00708485,-0.02035761,0.00033074,-0.09876866,-0.00231963,0.0
 0479518,0.80721218,0.00136772,-0.00037442,0.00020001,-0.00329834,0.005
 45677,-0.00117955,0.00247140,-0.00898732,0.00009211,-0.01925922,0.0001
 3156,0.00419438,-0.03576647,-0.04981735,0.00779076,0.01892320,-0.21410
 218,0.00719511,0.08200984,0.56026508,0.00000024,-0.00010452,-0.0001894
 5,0.00003153,0.00013244,0.00072313,-0.00037630,0.00077530,-0.00058592,
 0.00712121,0.00234818,0.00541746,0.00259889,0.00631244,0.00878729,0.00
 371622,0.00972401,-0.05673415,-0.07764376,-0.03167483,0.13048673,0.001
 67059,-0.00191097,-0.00010635,0.00465417,0.00714915,-0.00091187,-0.037
 66653,-0.03171485,0.00583271,-0.08156761,-0.03016461,0.00539385,0.0030
 8243,-0.00406531,0.00122056,-0.00995927,0.04556669,-0.00041643,-0.4298
 5555,0.06489663,0.03454381,0.68870287,0.00021636,-0.00295275,0.0001224
 6,-0.00063763,0.00542743,-0.00036887,-0.01771421,-0.00056643,0.0021098
 0,-0.02832260,-0.14337338,0.00559413,0.01545409,-0.05470621,0.00189086
 ,0.02607825,-0.04457969,0.00086215,0.08143544,-0.10808586,-0.00373342,
 -0.13324925,0.58049177,0.00082441,0.00014247,-0.00046469,0.00020924,0.
 00052692,-0.00370105,0.00334228,0.00074666,0.01694082,0.00327483,0.007
 25249,-0.07011643,-0.00109900,0.00725467,0.01829397,0.00251981,0.00053
 892,0.00662729,0.03776645,-0.00700447,-0.06365051,-0.05968743,0.007656
 97,0.14610654,0.00051957,0.00019902,-0.00110822,-0.00647666,-0.0099697
 9,0.00404217,-0.00252069,0.00207183,-0.00036790,0.00905169,-0.01040967
 ,-0.00320919,-0.00104599,-0.00457729,-0.00003288,-0.00587914,-0.001243
 49,0.00211158,-0.00756462,0.03082405,0.00440095,-0.10154634,0.05182293
 ,0.00782852,0.33273185,-0.00539886,-0.00590249,0.00173356,-0.01964906,
 0.00935404,-0.00697208,0.00238891,0.00408856,-0.00054644,0.00857274,-0
 .02714706,-0.00048489,-0.00570757,-0.00118580,0.00123684,0.00119041,0.
 00663222,0.00033106,0.00821907,-0.01059331,-0.00313542,0.05581757,-0.1
 9481177,-0.01050787,0.02186758,0.51093933,-0.00103644,0.00263579,0.002
 92298,0.00916053,-0.00282914,-0.00401206,-0.00057593,0.00247096,-0.002
 17621,-0.00095770,-0.00091157,0.00131647,-0.00254034,0.00047835,-0.000
 37804,0.00031274,0.00382062,0.00608465,0.00256522,-0.00365512,0.003280
 25,0.01512647,-0.00956525,-0.06232601,-0.05725795,-0.02434067,0.507368
 37,-0.02321089,-0.02585940,0.00387014,-0.04172937,-0.02114269,0.000024
 00,0.00695030,0.00668594,-0.00164001,-0.00207913,-0.00283717,0.0007459
 6,0.00118942,-0.00085341,-0.00028926,-0.00146573,-0.00101676,0.0008454
 3,0.00123924,0.00232544,-0.00271104,-0.02725706,0.00734259,-0.00332250
 ,-0.09173781,0.02237526,-0.03088984,0.20779375,-0.02377347,-0.00407431
 ,-0.00065293,0.00326091,-0.12111010,0.02724253,0.01073072,-0.04608489,
 0.01119153,-0.00670590,0.00514828,0.00100371,0.00166122,0.00100320,-0.
 00033146,0.00106982,0.00004005,-0.00070944,0.00064939,-0.00322164,0.00
 070902,0.02277120,-0.00262290,0.00661451,0.00229839,-0.05363924,0.0043
 3026,0.01443660,0.22008689,0.00469505,-0.00003376,0.00672674,-0.007193
 38,0.02132043,-0.02964629,-0.00126510,0.01115618,0.00845012,0.00006159
 ,0.00132717,0.00017770,0.00261302,-0.00098685,-0.00135522,-0.00055337,
 -0.00329519,0.00083184,-0.00135619,0.00110492,0.00059960,-0.00198750,0
 .00185709,0.00056586,-0.02350334,0.01117747,-0.03544818,0.04212035,-0.
 04213832,0.04723821,-0.00018064,-0.00002579,-0.00000818,0.00010048,-0.
 00011864,-0.00006501,0.00175555,-0.00043154,-0.00005634,0.00738025,0.0
 1939128,-0.00156489,-0.07212222,-0.06767311,0.00689845,0.00265118,-0.0
 2594812,0.00108661,-0.00455229,-0.00169066,0.00141300,-0.00357039,0.00
 326635,0.00019638,0.00080923,0.00049152,-0.00023708,0.00013622,-0.0001
 2256,0.00013169,0.06637771,0.00018755,-0.00003940,0.00001420,-0.000012
 55,0.00014508,0.00003699,-0.00051454,0.00031211,-0.00013842,-0.0078002
 0,-0.01035691,0.00097780,-0.06796343,-0.33822330,0.02095314,0.00319744
 ,-0.00389933,-0.00028191,-0.00140507,0.00034365,0.00032640,0.00187181,
 -0.00135944,-0.00032710,-0.00051306,-0.00030629,0.00053230,-0.00004492
 ,0.00007043,-0.00007950,0.07308876,0.35322553,-0.00000763,-0.00003635,
 -0.00001144,-0.00002029,0.00007472,-0.00012465,-0.00006684,0.00006483,
 -0.00109753,-0.00031689,-0.00130184,-0.00082748,0.00599894,0.01921326,
 -0.02821707,0.00039716,0.00442111,0.00208548,0.00214047,-0.00004628,0.
 00673814,-0.00044030,-0.00004476,0.00003015,0.00028028,-0.00040527,0.0
 0202811,-0.00018492,-0.00005107,-0.00001472,-0.00740564,-0.02187991,0.
 02282680,-0.00014649,0.00009420,0.00002234,-0.00024735,-0.00021021,-0.
 00020777,-0.00026004,0.00105152,-0.00003283,-0.00433774,-0.00156745,0.
 00189020,-0.01243009,0.01733634,0.00122217,-0.27587762,0.12227056,0.02
 250246,0.00402444,-0.00404007,-0.00014121,-0.00015308,-0.00129805,0.00
 025734,0.00026391,-0.00000041,0.00008464,0.00012436,-0.00003550,-0.000
 02468,0.00072479,-0.00032936,-0.00059713,0.28842112,0.00005774,0.00023
 109,-0.00001590,-0.00039073,-0.00059102,-0.00002969,0.00005513,0.00116
 692,-0.00005038,-0.00311004,-0.00185012,0.00106156,-0.01298531,0.01159
 412,0.00122404,0.12453921,-0.12782153,-0.00974002,0.02397430,-0.004138
 99,-0.00268368,0.00037635,-0.00574097,0.00023978,0.00103466,0.00040007
 ,-0.00005736,0.00027761,-0.00007408,-0.00006896,0.00077317,0.00031689,
 -0.00033649,-0.13399713,0.12603071,-0.00006120,0.00005861,0.00030533,0
 .00018217,-0.00038500,-0.00149855,-0.00019996,-0.00002841,0.00037403,0
 .00226498,0.00068412,0.01017872,0.00208358,-0.00254748,0.00509340,0.02
 261585,-0.00955199,-0.03845891,-0.00181547,0.00120632,0.00139565,0.000
 49864,0.00039431,0.00075534,-0.00055807,0.00014732,0.00073192,0.000417
 26,-0.00012647,-0.00001319,-0.00058833,-0.00016408,-0.00438036,-0.0248
 9230,0.01037481,0.02592403,-0.00002146,0.00022240,0.00000095,0.0003448
 9,-0.00032728,0.00007071,-0.00065086,-0.00136975,-0.00001987,-0.004666
 59,0.00140022,0.00136960,-0.00032784,0.00238704,-0.00011080,0.00743159
 ,0.00577349,-0.00111567,-0.22652317,-0.13825726,0.02725732,-0.01269935
 ,-0.02094565,0.00336589,0.00112813,-0.00097588,-0.00054703,-0.00016397
 ,0.00050399,-0.00018467,0.00059032,0.00018026,0.00002927,-0.00007736,-
 0.00071560,0.00001727,0.23578852,-0.00013328,-0.00002457,0.00000506,0.
 00006174,-0.00019226,0.00000357,-0.00041815,0.00097028,-0.00011027,0.0
 0281856,-0.00106640,0.00031597,0.00056049,-0.00545481,0.00017923,-0.02
 245077,-0.00699909,0.00254195,-0.13932585,-0.17135274,0.02194555,0.009
 10828,0.00878015,-0.00109135,-0.00058359,0.00090048,-0.00050609,-0.000
 09156,-0.00002757,0.00009809,-0.00135512,-0.00006244,0.00032274,0.0006
 5217,0.00056056,-0.00014632,0.15139007,0.17393555,-0.00014735,-0.00000
 449,0.00013003,0.00013362,-0.00011834,0.00036585,-0.00002035,0.0001017
 3,-0.00151232,0.00136154,0.00115510,0.00923593,0.00047567,0.00000065,-
 0.00004119,0.00070890,-0.00055531,0.00052968,0.02718104,0.02141226,-0.
 03780469,0.00044376,0.00166377,0.00680689,-0.00085698,-0.00008323,-0.0
 0418273,-0.00004826,0.00010427,-0.00020597,0.00016468,0.00011229,0.001
 03965,-0.00008242,0.00006641,-0.00043420,-0.03000584,-0.02372378,0.026
 37114,-0.00130101,-0.00241628,-0.00008571,-0.00526901,0.00461061,0.000
 16174,-0.00002014,0.00059657,-0.00042240,-0.00054896,0.00219468,0.0001
 6977,0.00052108,0.00085160,-0.00030224,0.00023720,-0.00046741,-0.00036
 907,0.00055660,0.00000530,0.00051624,0.00827912,0.00877195,-0.00824704
 ,-0.09584118,-0.08190745,0.07413727,-0.01274758,-0.01819975,0.00939225
 ,-0.00009017,0.00011725,0.00032568,-0.00002060,0.00000002,-0.00000045,
 -0.00009927,-0.00027054,0.00026082,0.10431438,0.00044605,0.00041470,0.
 00021823,0.00032440,-0.00115523,-0.00055719,0.00051778,0.00042265,0.00
 023436,0.00307073,-0.00260290,0.00102911,-0.00028662,-0.00113829,0.000
 12129,-0.00052077,-0.00081128,-0.00043146,-0.00158954,0.00269192,-0.00
 128560,-0.01262120,-0.02233271,0.01443819,-0.07944637,-0.16713105,0.10
 773085,-0.00090110,0.00181266,-0.00093738,0.00030384,-0.00021184,-0.00
 039993,0.00004980,0.00005103,0.00000173,0.00074849,0.00002939,0.000681
 14,0.08528596,0.18294109,-0.00060183,-0.00087018,-0.00001994,-0.002875
 63,0.00074295,0.00005281,0.00014084,-0.00007487,-0.00010605,0.00013573
 ,-0.00116371,0.00025493,-0.00007184,-0.00003767,0.00005999,-0.00002289
 ,0.00008679,-0.00015129,-0.00005526,-0.00026206,0.00062757,-0.00262224
 ,-0.00471572,0.00305336,0.07080048,0.10790561,-0.13610776,-0.00381981,
 -0.00750964,0.00460287,0.00002621,-0.00007495,-0.00002276,0.00001182,0
 .00004895,-0.00000466,-0.00014430,0.00017432,-0.00002837,-0.07532094,-
 0.11516255,0.14572659,-0.00160734,-0.00114538,0.00123307,0.00043628,0.
 00375758,-0.00330832,0.00020197,-0.00019981,0.00015248,-0.00017714,-0.
 00010391,0.00085712,-0.00105119,0.00135936,-0.00001391,0.00104841,0.00
 122455,-0.00087577,0.00144532,-0.00051157,-0.00072708,-0.00211399,0.00
 777943,0.01277084,-0.03189195,-0.00728382,-0.00734456,-0.01704173,-0.0
 0854506,-0.02294572,-0.00001003,-0.00005995,-0.00013218,-0.00000825,0.
 00011063,0.00003603,-0.00005358,0.00003756,0.00043117,0.00202953,0.004
 61854,0.01441967,0.04879369,0.00025794,0.00032850,0.00012769,-0.000396
 52,-0.00175542,-0.00013450,-0.00010967,0.00031903,-0.00029789,0.000400
 39,-0.00088703,-0.00011917,0.00108167,-0.00120124,-0.00013360,-0.00088
 967,-0.00169921,0.00137772,-0.00229005,0.00178482,0.00034414,0.0061685
 2,-0.01356724,-0.02648080,-0.00337522,-0.07159769,-0.08013395,-0.00069
 642,0.00269322,-0.00050140,0.00005063,0.00004525,0.00040525,0.00002359
 ,-0.00013468,0.00008251,-0.00001453,0.00000346,-0.00081248,0.00082750,
 0.00701986,0.02091272,-0.00103814,0.07864836,0.00043509,-0.00018489,-0
 .00004722,-0.00055884,0.00041308,0.00026494,0.00013535,-0.00059019,0.0
 0025684,0.00046320,0.00072866,-0.00050183,0.00064864,-0.00003443,-0.00
 015965,-0.00010465,-0.00113665,0.00025385,-0.00168838,0.00062644,0.000
 90890,0.00311230,-0.00372353,0.00107846,-0.00256945,-0.07605600,-0.279
 10176,-0.00511750,0.00032350,-0.00250938,0.00000845,-0.00000725,-0.000
 05232,-0.00001263,-0.00003307,0.00003145,0.00001718,-0.00000865,-0.000
 26970,-0.00021592,-0.00568080,-0.01793729,0.00544715,0.08536377,0.2977
 8471\\-0.00001260,-0.00000957,-0.00001492,0.00001861,0.00009126,-0.000
 00440,0.00003740,-0.00000436,0.00001665,-0.00001938,-0.00000531,-0.000
 01924,0.00002554,-0.00000403,-0.00000183,-0.00002723,0.00001881,0.0000
 1033,-0.00001010,-0.00000742,-0.00001579,-0.00000585,-0.00000118,0.000
 00849,0.00003180,-0.00001696,0.00001854,-0.00003341,-0.00006489,0.0000
 0542,0.00000572,0.00000061,0.00000084,0.00000104,-0.00000491,-0.000002
 06,-0.00000815,-0.00000392,0.00000161,-0.00000098,0.00000434,-0.000003
 84,-0.00000241,0.00000752,0.00000021\\\@


 ONLY A FOOL KNOWS EVERYTHING.

               -- THE CHEMIST ANALYST, SEPTEMBER 1946
 Job cpu time:       0 days  4 hours  9 minutes 13.6 seconds.
 Elapsed time:       0 days  1 hours  2 minutes 38.9 seconds.
 File lengths (MBytes):  RWF=    261 Int=      0 D2E=      0 Chk=     12 Scr=      1
 Normal termination of Gaussian 16 at Wed May 17 02:49:46 2023.
### All Done ###
