### Starting Gaussian ###
 Entering Gaussian System, Link 0=g16
 Initial command:
 /cluster/software/gaussian/gaussian-16-A.03/avx2/g16/l1.exe "/local/scratch/ks29c/Gau-24958.inp" -scrdir="/local/scratch/ks29c/"
 Entering Link 1 = /cluster/software/gaussian/gaussian-16-A.03/avx2/g16/l1.exe PID=     24959.
  
 Copyright (c) 1988,1990,1992,1993,1995,1998,2003,2009,2016,
            Gaussian, Inc.  All Rights Reserved.
  
 This is part of the Gaussian(R) 16 program.  It is based on
 the Gaussian(R) 09 system (copyright 2009, Gaussian, Inc.),
 the Gaussian(R) 03 system (copyright 2003, Gaussian, Inc.),
 the Gaussian(R) 98 system (copyright 1998, Gaussian, Inc.),
 the Gaussian(R) 94 system (copyright 1995, Gaussian, Inc.),
 the Gaussian 92(TM) system (copyright 1992, Gaussian, Inc.),
 the Gaussian 90(TM) system (copyright 1990, Gaussian, Inc.),
 the Gaussian 88(TM) system (copyright 1988, Gaussian, Inc.),
 the Gaussian 86(TM) system (copyright 1986, Carnegie Mellon
 University), and the Gaussian 82(TM) system (copyright 1983,
 Carnegie Mellon University). Gaussian is a federally registered
 trademark of Gaussian, Inc.
  
 This software contains proprietary and confidential information,
 including trade secrets, belonging to Gaussian, Inc.
  
 This software is provided under written license and may be
 used, copied, transmitted, or stored only in accord with that
 written license.
  
 The following legend is applicable only to US Government
 contracts under FAR:
  
                    RESTRICTED RIGHTS LEGEND
  
 Use, reproduction and disclosure by the US Government is
 subject to restrictions as set forth in subparagraphs (a)
 and (c) of the Commercial Computer Software - Restricted
 Rights clause in FAR 52.227-19.
  
 Gaussian, Inc.
 340 Quinnipiac St., Bldg. 40, Wallingford CT 06492
  
  
 ---------------------------------------------------------------
 Warning -- This program may not be used in any manner that
 competes with the business of Gaussian, Inc. or will provide
 assistance to any competitor of Gaussian, Inc.  The licensee
 of this program is prohibited from giving any competitor of
 Gaussian, Inc. access to this program.  By using this program,
 the user acknowledges that Gaussian, Inc. is engaged in the
 business of creating and licensing software in the field of
 computational chemistry and represents and warrants to the
 licensee that it is not a competitor of Gaussian, Inc. and that
 it will not use this program in any manner prohibited above.
 ---------------------------------------------------------------
  

 Cite this work as:
 Gaussian 16, Revision A.03,
 M. J. Frisch, G. W. Trucks, H. B. Schlegel, G. E. Scuseria, 
 M. A. Robb, J. R. Cheeseman, G. Scalmani, V. Barone, 
 G. A. Petersson, H. Nakatsuji, X. Li, M. Caricato, A. V. Marenich, 
 J. Bloino, B. G. Janesko, R. Gomperts, B. Mennucci, H. P. Hratchian, 
 J. V. Ortiz, A. F. Izmaylov, J. L. Sonnenberg, D. Williams-Young, 
 F. Ding, F. Lipparini, F. Egidi, J. Goings, B. Peng, A. Petrone, 
 T. Henderson, D. Ranasinghe, V. G. Zakrzewski, J. Gao, N. Rega, 
 G. Zheng, W. Liang, M. Hada, M. Ehara, K. Toyota, R. Fukuda, 
 J. Hasegawa, M. Ishida, T. Nakajima, Y. Honda, O. Kitao, H. Nakai, 
 T. Vreven, K. Throssell, J. A. Montgomery, Jr., J. E. Peralta, 
 F. Ogliaro, M. J. Bearpark, J. J. Heyd, E. N. Brothers, K. N. Kudin, 
 V. N. Staroverov, T. A. Keith, R. Kobayashi, J. Normand, 
 K. Raghavachari, A. P. Rendell, J. C. Burant, S. S. Iyengar, 
 J. Tomasi, M. Cossi, J. M. Millam, M. Klene, C. Adamo, R. Cammi, 
 J. W. Ochterski, R. L. Martin, K. Morokuma, O. Farkas, 
 J. B. Foresman, and D. J. Fox, Gaussian, Inc., Wallingford CT, 2016.
 
 ******************************************
 Gaussian 16:  ES64L-G16RevA.03 25-Dec-2016
                18-May-2023 
 ******************************************
 %chk=SdC1CCdC2CdCCdCCdCC2dCS1.chk
 %NProcShared=20
 Will use up to   20 processors via shared memory.
 -----------------------------
 # opt freq b3lyp/6-31g(2df,p)
 -----------------------------
 1/18=20,19=15,26=3,38=1/1,3;
 2/9=110,12=2,17=6,18=5,40=1/2;
 3/5=1,6=6,7=104,11=2,25=1,30=1,71=1,74=-5/1,2,3;
 4//1;
 5/5=2,38=5/2;
 6/7=2,8=2,9=2,10=2,28=1/1;
 7//1,2,3,16;
 1/18=20,19=15,26=3/3(2);
 2/9=110/2;
 99//99;
 2/9=110/2;
 3/5=1,6=6,7=104,11=2,25=1,30=1,71=1,74=-5/1,2,3;
 4/5=5,16=3,69=1/1;
 5/5=2,38=5/2;
 7//1,2,3,16;
 1/18=20,19=15,26=3/3(-5);
 2/9=110/2;
 6/7=2,8=2,9=2,10=2,19=2,28=1/1;
 99/9=1/99;
 -------------------
 Title Card Required
 -------------------
 Symbolic Z-matrix:
 Charge =  0 Multiplicity = 1
 S                     1.60139  -0.14839   0.02018 
 C                     3.26973   0.04173   0.22927 
 C                     4.15673  -1.16749   0.25872 
 C                     4.77752  -1.27782   1.62253 
 C                     5.26724  -0.38814   2.52586 
 C                     5.18717  -0.87238   3.8991 
 C                     4.85326   0.07621   4.79847 
 C                     5.54075   0.22717   6.05309 
 C                     6.39771   1.28307   5.88952 
 C                     7.28939   1.38761   4.72356 
 C                     7.04542   1.5281    3.36236 
 C                     5.85487   1.00312   2.3384 
 C                     5.46584   1.73464   1.25764 
 S                     4.06876   1.60715   0.1855 
 H                     4.81727  -1.19117  -0.61192 
 H                     3.51312  -2.06325   0.13702 
 H                     4.61382  -2.29694   1.97728 
 H                     5.59372  -1.84795   4.12287 
 H                     4.55643   1.06132   4.41014 
 H                     6.02359  -0.69479   6.34646 
 H                     6.01215   2.26281   6.1743 
 H                     8.22905   1.57948   5.27127 
 H                     7.81537   2.11497   2.84423 
 H                     6.00813   2.6462    1.01736 
 

 GradGradGradGradGradGradGradGradGradGradGradGradGradGradGradGradGradGrad
 Berny optimization.
 Initialization pass.
                           ----------------------------
                           !    Initial Parameters    !
                           ! (Angstroms and Degrees)  !
 --------------------------                            --------------------------
 ! Name  Definition              Value          Derivative Info.                !
 --------------------------------------------------------------------------------
 ! R1    R(1,2)                  1.6921         estimate D2E/DX2                !
 ! R2    R(2,3)                  1.4999         estimate D2E/DX2                !
 ! R3    R(2,14)                 1.7581         estimate D2E/DX2                !
 ! R4    R(3,4)                  1.5025         estimate D2E/DX2                !
 ! R5    R(3,15)                 1.0931         estimate D2E/DX2                !
 ! R6    R(3,16)                 1.1097         estimate D2E/DX2                !
 ! R7    R(4,5)                  1.3592         estimate D2E/DX2                !
 ! R8    R(4,17)                 1.0914         estimate D2E/DX2                !
 ! R9    R(5,6)                  1.4583         estimate D2E/DX2                !
 ! R10   R(5,12)                 1.5219         estimate D2E/DX2                !
 ! R11   R(6,7)                  1.3491         estimate D2E/DX2                !
 ! R12   R(6,18)                 1.0803         estimate D2E/DX2                !
 ! R13   R(7,8)                  1.4386         estimate D2E/DX2                !
 ! R14   R(7,19)                 1.0997         estimate D2E/DX2                !
 ! R15   R(8,9)                  1.3697         estimate D2E/DX2                !
 ! R16   R(8,20)                 1.0813         estimate D2E/DX2                !
 ! R17   R(9,10)                 1.4716         estimate D2E/DX2                !
 ! R18   R(9,21)                 1.0907         estimate D2E/DX2                !
 ! R19   R(10,11)                1.39           estimate D2E/DX2                !
 ! R20   R(10,22)                1.1044         estimate D2E/DX2                !
 ! R21   R(11,12)                1.6557         estimate D2E/DX2                !
 ! R22   R(11,23)                1.098          estimate D2E/DX2                !
 ! R23   R(12,13)                1.3618         estimate D2E/DX2                !
 ! R24   R(13,14)                1.7657         estimate D2E/DX2                !
 ! R25   R(13,24)                1.0875         estimate D2E/DX2                !
 ! A1    A(1,2,3)              119.6628         estimate D2E/DX2                !
 ! A2    A(1,2,14)             123.0294         estimate D2E/DX2                !
 ! A3    A(3,2,14)             116.7148         estimate D2E/DX2                !
 ! A4    A(2,3,4)              108.7445         estimate D2E/DX2                !
 ! A5    A(2,3,15)             111.049          estimate D2E/DX2                !
 ! A6    A(2,3,16)             107.7956         estimate D2E/DX2                !
 ! A7    A(4,3,15)             118.1445         estimate D2E/DX2                !
 ! A8    A(4,3,16)             106.2545         estimate D2E/DX2                !
 ! A9    A(15,3,16)            104.2194         estimate D2E/DX2                !
 ! A10   A(3,4,5)              134.7541         estimate D2E/DX2                !
 ! A11   A(3,4,17)             107.5549         estimate D2E/DX2                !
 ! A12   A(5,4,17)             116.6936         estimate D2E/DX2                !
 ! A13   A(4,5,6)              112.874          estimate D2E/DX2                !
 ! A14   A(4,5,12)             130.9696         estimate D2E/DX2                !
 ! A15   A(6,5,12)             116.1518         estimate D2E/DX2                !
 ! A16   A(5,6,7)              114.07           estimate D2E/DX2                !
 ! A17   A(5,6,18)             118.3101         estimate D2E/DX2                !
 ! A18   A(7,6,18)             126.1563         estimate D2E/DX2                !
 ! A19   A(6,7,8)              122.4717         estimate D2E/DX2                !
 ! A20   A(6,7,19)             117.4674         estimate D2E/DX2                !
 ! A21   A(8,7,19)             110.0572         estimate D2E/DX2                !
 ! A22   A(7,8,9)              106.0065         estimate D2E/DX2                !
 ! A23   A(7,8,20)             111.1335         estimate D2E/DX2                !
 ! A24   A(9,8,20)             114.2252         estimate D2E/DX2                !
 ! A25   A(8,9,10)             121.9041         estimate D2E/DX2                !
 ! A26   A(8,9,21)             116.1117         estimate D2E/DX2                !
 ! A27   A(10,9,21)            110.932          estimate D2E/DX2                !
 ! A28   A(9,10,11)            132.5891         estimate D2E/DX2                !
 ! A29   A(9,10,22)             97.7558         estimate D2E/DX2                !
 ! A30   A(11,10,22)           128.1277         estimate D2E/DX2                !
 ! A31   A(10,11,12)           134.4083         estimate D2E/DX2                !
 ! A32   A(10,11,23)           113.1434         estimate D2E/DX2                !
 ! A33   A(12,11,23)           112.4476         estimate D2E/DX2                !
 ! A34   A(5,12,11)            119.4273         estimate D2E/DX2                !
 ! A35   A(5,12,13)            118.5891         estimate D2E/DX2                !
 ! A36   A(11,12,13)           121.7282         estimate D2E/DX2                !
 ! A37   A(12,13,14)           132.0017         estimate D2E/DX2                !
 ! A38   A(12,13,24)           118.8907         estimate D2E/DX2                !
 ! A39   A(14,13,24)           108.7179         estimate D2E/DX2                !
 ! A40   A(2,14,13)            114.1286         estimate D2E/DX2                !
 ! D1    D(1,2,3,4)           -115.3451         estimate D2E/DX2                !
 ! D2    D(1,2,3,15)           113.0241         estimate D2E/DX2                !
 ! D3    D(1,2,3,16)            -0.551          estimate D2E/DX2                !
 ! D4    D(14,2,3,4)            73.216          estimate D2E/DX2                !
 ! D5    D(14,2,3,15)          -58.4148         estimate D2E/DX2                !
 ! D6    D(14,2,3,16)         -171.99           estimate D2E/DX2                !
 ! D7    D(1,2,14,13)          146.8303         estimate D2E/DX2                !
 ! D8    D(3,2,14,13)          -42.0453         estimate D2E/DX2                !
 ! D9    D(2,3,4,5)            -38.2871         estimate D2E/DX2                !
 ! D10   D(2,3,4,17)           129.4364         estimate D2E/DX2                !
 ! D11   D(15,3,4,5)            89.4238         estimate D2E/DX2                !
 ! D12   D(15,3,4,17)         -102.8528         estimate D2E/DX2                !
 ! D13   D(16,3,4,5)          -154.0798         estimate D2E/DX2                !
 ! D14   D(16,3,4,17)           13.6437         estimate D2E/DX2                !
 ! D15   D(3,4,5,6)            152.9577         estimate D2E/DX2                !
 ! D16   D(3,4,5,12)           -26.2184         estimate D2E/DX2                !
 ! D17   D(17,4,5,6)           -13.927          estimate D2E/DX2                !
 ! D18   D(17,4,5,12)          166.8969         estimate D2E/DX2                !
 ! D19   D(4,5,6,7)           -141.1953         estimate D2E/DX2                !
 ! D20   D(4,5,6,18)            51.7496         estimate D2E/DX2                !
 ! D21   D(12,5,6,7)            38.1117         estimate D2E/DX2                !
 ! D22   D(12,5,6,18)         -128.9435         estimate D2E/DX2                !
 ! D23   D(4,5,12,11)         -147.6376         estimate D2E/DX2                !
 ! D24   D(4,5,12,13)           26.659          estimate D2E/DX2                !
 ! D25   D(6,5,12,11)           33.2081         estimate D2E/DX2                !
 ! D26   D(6,5,12,13)         -152.4953         estimate D2E/DX2                !
 ! D27   D(5,6,7,8)           -134.6341         estimate D2E/DX2                !
 ! D28   D(5,6,7,19)             7.4559         estimate D2E/DX2                !
 ! D29   D(18,6,7,8)            31.2277         estimate D2E/DX2                !
 ! D30   D(18,6,7,19)          173.3177         estimate D2E/DX2                !
 ! D31   D(6,7,8,9)            101.3449         estimate D2E/DX2                !
 ! D32   D(6,7,8,20)           -23.3036         estimate D2E/DX2                !
 ! D33   D(19,7,8,9)           -43.1793         estimate D2E/DX2                !
 ! D34   D(19,7,8,20)         -167.8277         estimate D2E/DX2                !
 ! D35   D(7,8,9,10)           -48.5938         estimate D2E/DX2                !
 ! D36   D(7,8,9,21)            92.103          estimate D2E/DX2                !
 ! D37   D(20,8,9,10)           74.1156         estimate D2E/DX2                !
 ! D38   D(20,8,9,21)         -145.1876         estimate D2E/DX2                !
 ! D39   D(8,9,10,11)           64.1406         estimate D2E/DX2                !
 ! D40   D(8,9,10,22)         -129.5575         estimate D2E/DX2                !
 ! D41   D(21,9,10,11)         -78.3448         estimate D2E/DX2                !
 ! D42   D(21,9,10,22)          87.9571         estimate D2E/DX2                !
 ! D43   D(9,10,11,12)         -32.8615         estimate D2E/DX2                !
 ! D44   D(9,10,11,23)         147.4676         estimate D2E/DX2                !
 ! D45   D(22,10,11,12)        164.4929         estimate D2E/DX2                !
 ! D46   D(22,10,11,23)        -15.1779         estimate D2E/DX2                !
 ! D47   D(10,11,12,5)         -38.1854         estimate D2E/DX2                !
 ! D48   D(10,11,12,13)        147.7032         estimate D2E/DX2                !
 ! D49   D(23,11,12,5)         141.4872         estimate D2E/DX2                !
 ! D50   D(23,11,12,13)        -32.6242         estimate D2E/DX2                !
 ! D51   D(5,12,13,14)          19.0074         estimate D2E/DX2                !
 ! D52   D(5,12,13,24)        -169.0559         estimate D2E/DX2                !
 ! D53   D(11,12,13,14)       -166.8335         estimate D2E/DX2                !
 ! D54   D(11,12,13,24)          5.1033         estimate D2E/DX2                !
 ! D55   D(12,13,14,2)         -18.8658         estimate D2E/DX2                !
 ! D56   D(24,13,14,2)         168.5845         estimate D2E/DX2                !
 --------------------------------------------------------------------------------
 Trust Radius=3.00D-01 FncErr=1.00D-07 GrdErr=1.00D-06 EigMax=2.50D+02 EigMin=1.00D-04
 Number of steps in this run=    131 maximum allowed number of steps=    144.
 GradGradGradGradGradGradGradGradGradGradGradGradGradGradGradGradGradGrad

                          Input orientation:                          
 ---------------------------------------------------------------------
 Center     Atomic      Atomic             Coordinates (Angstroms)
 Number     Number       Type             X           Y           Z
 ---------------------------------------------------------------------
      1         16           0        1.601390   -0.148390    0.020180
      2          6           0        3.269730    0.041730    0.229270
      3          6           0        4.156730   -1.167490    0.258720
      4          6           0        4.777520   -1.277820    1.622530
      5          6           0        5.267240   -0.388140    2.525860
      6          6           0        5.187170   -0.872380    3.899100
      7          6           0        4.853260    0.076210    4.798470
      8          6           0        5.540750    0.227170    6.053090
      9          6           0        6.397710    1.283070    5.889520
     10          6           0        7.289390    1.387610    4.723560
     11          6           0        7.045420    1.528100    3.362360
     12          6           0        5.854870    1.003120    2.338400
     13          6           0        5.465840    1.734640    1.257640
     14         16           0        4.068760    1.607150    0.185500
     15          1           0        4.817270   -1.191170   -0.611920
     16          1           0        3.513120   -2.063250    0.137020
     17          1           0        4.613820   -2.296940    1.977280
     18          1           0        5.593720   -1.847950    4.122870
     19          1           0        4.556430    1.061320    4.410140
     20          1           0        6.023590   -0.694790    6.346460
     21          1           0        6.012150    2.262810    6.174300
     22          1           0        8.229050    1.579480    5.271270
     23          1           0        7.815370    2.114970    2.844230
     24          1           0        6.008130    2.646200    1.017360
 ---------------------------------------------------------------------
                    Distance matrix (angstroms):
                    1          2          3          4          5
     1  S    0.000000
     2  C    1.692106   0.000000
     3  C    2.761382   1.499950   0.000000
     4  C    3.732417   2.440454   1.502508   0.000000
     5  C    4.446838   3.073949   2.642072   1.359177   0.000000
     6  C    5.331791   4.240262   3.794900   2.348396   1.458317
     7  C    5.784216   4.835943   4.758285   3.453365   2.356217
     8  C    7.214957   6.253703   6.118440   4.741031   3.590928
     9  C    7.713813   6.585105   6.537059   5.233582   3.922386
    10  C    7.538861   6.178001   6.023030   4.798999   3.474516
    11  C    6.604411   5.126537   5.024273   4.005442   2.744746
    12  C    4.979178   3.472125   3.452578   2.622182   1.521859
    13  C    4.473375   2.957429   3.336760   3.111566   2.480730
    14  S    3.032683   1.758097   2.777000   3.300068   3.300730
    15  H    3.439306   2.150005   1.093109   2.236483   3.270014
    16  H    2.708330   2.121011   1.109698   2.102938   3.404334
    17  H    4.185838   3.214264   2.106665   1.091444   2.090793
    18  H    5.971538   4.912427   4.178471   2.691269   2.188167
    19  H    5.428389   4.491641   4.728810   3.645713   2.481269
    20  H    7.737973   6.748794   6.385076   4.920176   3.906800
    21  H    7.946187   6.913570   7.085452   5.897371   4.570945
    22  H    8.630490   7.237492   7.018211   5.778454   4.492340
    23  H    7.191078   5.639076   5.553832   4.715094   3.586068
    24  H    5.312576   3.860464   4.306675   4.156749   3.468675
                    6          7          8          9         10
     6  C    0.000000
     7  C    1.349142   0.000000
     8  C    2.444116   1.438577   0.000000
     9  C    3.173822   2.243263   1.369694   0.000000
    10  C    3.194780   2.767691   2.484354   1.471559   0.000000
    11  C    3.082773   2.995991   3.346114   2.620325   1.390009
    12  C    2.529646   2.813242   3.807846   3.603262   2.809745
    13  C    3.721763   3.957666   5.027367   4.746221   3.931713
    14  S    4.603231   4.923282   6.204814   6.169674   5.569079
    15  H    4.537373   5.556966   6.852552   7.133609   6.420968
    16  H    4.286474   5.301168   6.660119   7.253273   6.870589
    17  H    2.459978   3.694359   4.882884   5.595030   5.317578
    18  H    1.080321   2.169587   2.834551   3.683848   3.702023
    19  H    2.097186   1.099704   2.089013   2.372351   2.770157
    20  H    2.592433   2.088154   1.081300   2.064144   2.927874
    21  H    3.960624   2.831458   2.093022   1.090709   2.121783
    22  H    4.140954   3.725496   3.109171   1.955479   1.104428
    23  H    4.116363   4.092639   4.362851   3.460579   2.082688
    24  H    4.621559   4.715439   5.606133   5.074233   4.118446
                   11         12         13         14         15
    11  C    0.000000
    12  C    1.655750   0.000000
    13  C    2.639617   1.361803   0.000000
    14  S    4.354216   2.861821   1.765664   0.000000
    15  H    5.306033   3.820459   3.532175   3.004453   0.000000
    16  H    5.981451   4.442127   4.415073   3.712536   1.738460
    17  H    4.739415   3.544151   4.182996   4.330068   2.822778
    18  H    3.752802   3.373593   4.589210   5.455832   4.842775
    19  H    2.740583   2.445698   3.349424   4.287579   5.510248
    20  H    3.858786   4.356135   5.666507   6.861320   7.079594
    21  H    3.084551   4.040506   4.975034   6.330275   7.707821
    22  H    2.246677   3.817152   4.875308   6.570680   7.343614
    23  H    1.098043   2.309899   2.860456   4.622100   5.644833
    24  H    2.797346   2.113847   1.087545   2.352185   4.335679
                   16         17         18         19         20
    16  H    0.000000
    17  H    2.157014   0.000000
    18  H    4.501361   2.401115   0.000000
    19  H    5.395460   4.147290   3.101991   0.000000
    20  H    6.836102   4.862517   2.541440   2.997635   0.000000
    21  H    7.836370   6.353080   4.613220   2.583594   2.962629
    22  H    7.865749   6.240744   4.473373   3.807647   3.345503
    23  H    6.579959   5.519644   4.719680   3.766025   4.834340
    24  H    5.401758   5.224957   5.478441   4.016246   6.289814
                   21         22         23         24
    21  H    0.000000
    22  H    2.489387   0.000000
    23  H    3.789832   2.519604   0.000000
    24  H    5.171173   4.915906   2.624076   0.000000
 Stoichiometry    C12H10S2
 Framework group  C1[X(C12H10S2)]
 Deg. of freedom    66
 Full point group                 C1      NOp   1
 Largest Abelian subgroup         C1      NOp   1
 Largest concise Abelian subgroup C1      NOp   1
                         Standard orientation:                         
 ---------------------------------------------------------------------
 Center     Atomic      Atomic             Coordinates (Angstroms)
 Number     Number       Type             X           Y           Z
 ---------------------------------------------------------------------
      1         16           0        3.664278   -0.874600   -0.921016
      2          6           0        2.516907   -0.065907    0.023853
      3          6           0        2.128766   -0.625066    1.360467
      4          6           0        0.680069   -1.021077    1.315942
      5          6           0       -0.438769   -0.495364    0.750974
      6          6           0       -1.449455   -1.502991    0.451157
      7          6           0       -2.100523   -1.299947   -0.712917
      8          6           0       -3.529855   -1.414527   -0.828614
      9          6           0       -4.013174   -0.132953   -0.823004
     10          6           0       -3.590227    0.853337    0.183888
     11          6           0       -2.362969    1.441278    0.467238
     12          6           0       -0.788330    0.937580    0.376095
     13          6           0        0.224296    1.801243    0.087680
     14         16           0        1.909067    1.536223   -0.369356
     15          1           0        2.459697    0.029490    2.170979
     16          1           0        2.702343   -1.562291    1.515542
     17          1           0        0.607016   -2.044656    1.687692
     18          1           0       -1.747908   -2.179484    1.238796
     19          1           0       -1.732523   -0.495583   -1.366312
     20          1           0       -3.934814   -2.044852   -0.048929
     21          1           0       -4.139789    0.336624   -1.799279
     22          1           0       -4.595317    1.189435    0.494682
     23          1           0       -2.453146    2.470144    0.840068
     24          1           0        0.000504    2.861572   -0.003829
 ---------------------------------------------------------------------
 Rotational constants (GHZ):           1.1617634           0.3276389           0.2936163
 Standard basis: 6-31G(2df,p) (6D, 7F)
 There are   492 symmetry adapted cartesian basis functions of A   symmetry.
 There are   450 symmetry adapted basis functions of A   symmetry.
   450 basis functions,   734 primitive gaussians,   492 cartesian basis functions
    57 alpha electrons       57 beta electrons
       nuclear repulsion energy       996.5057685884 Hartrees.
 NAtoms=   24 NActive=   24 NUniq=   24 SFac= 1.00D+00 NAtFMM=   60 NAOKFM=F Big=F
 Integral buffers will be    131072 words long.
 Raffenetti 2 integral format.
 Two-electron integral symmetry is turned on.
 One-electron integrals computed using PRISM.
 PrsmSu:  requested number of processors reduced to:  12 ShMem   1 Linda.
 NBasis=   450 RedAO= T EigKep=  5.46D-04  NBF=   450
 NBsUse=   450 1.00D-06 EigRej= -1.00D+00 NBFU=   450
 ExpMin= 1.17D-01 ExpMax= 2.19D+04 ExpMxC= 3.30D+03 IAcc=3 IRadAn=         5 AccDes= 0.00D+00
 Harris functional with IExCor=  402 and IRadAn=       5 diagonalized for initial guess.
 HarFok:  IExCor=  402 AccDes= 0.00D+00 IRadAn=         5 IDoV= 1 UseB2=F ITyADJ=14
 ICtDFT=  3500011 ScaDFX=  1.000000  1.000000  1.000000  1.000000
 FoFCou: FMM=F IPFlag=           0 FMFlag=      100000 FMFlg1=           0
         NFxFlg=           0 DoJE=T BraDBF=F KetDBF=T FulRan=T
         wScrn=  0.000000 ICntrl=       500 IOpCl=  0 I1Cent=   200000004 NGrid=           0
         NMat0=    1 NMatS0=      1 NMatT0=    0 NMatD0=    1 NMtDS0=    0 NMtDT0=    0
 Petite list used in FoFCou.
 Requested convergence on RMS density matrix=1.00D-08 within 128 cycles.
 Requested convergence on MAX density matrix=1.00D-06.
 Requested convergence on             energy=1.00D-06.
 No special actions if energy rises.
 Integral accuracy reduced to 1.0D-05 until final iterations.
 EnCoef did     5 forward-backward iterations
 EnCoef did     4 forward-backward iterations
 EnCoef did   100 forward-backward iterations
 EnCoef did     5 forward-backward iterations
 EnCoef did     3 forward-backward iterations
 Initial convergence to 1.0D-05 achieved.  Increase integral accuracy.
 SCF Done:  E(RB3LYP) =  -1259.35825375     A.U. after   23 cycles
            NFock= 23  Conv=0.60D-08     -V/T= 2.0052

 **********************************************************************

            Population analysis using the SCF density.

 **********************************************************************

 Orbital symmetries:
       Occupied  (A) (A) (A) (A) (A) (A) (A) (A) (A) (A) (A) (A)
                 (A) (A) (A) (A) (A) (A) (A) (A) (A) (A) (A) (A)
                 (A) (A) (A) (A) (A) (A) (A) (A) (A) (A) (A) (A)
                 (A) (A) (A) (A) (A) (A) (A) (A) (A) (A) (A) (A)
                 (A) (A) (A) (A) (A) (A) (A) (A) (A)
       Virtual   (A) (A) (A) (A) (A) (A) (A) (A) (A) (A) (A) (A)
                 (A) (A) (A) (A) (A) (A) (A) (A) (A) (A) (A) (A)
                 (A) (A) (A) (A) (A) (A) (A) (A) (A) (A) (A) (A)
                 (A) (A) (A) (A) (A) (A) (A) (A) (A) (A) (A) (A)
                 (A) (A) (A) (A) (A) (A) (A) (A) (A) (A) (A) (A)
                 (A) (A) (A) (A) (A) (A) (A) (A) (A) (A) (A) (A)
                 (A) (A) (A) (A) (A) (A) (A) (A) (A) (A) (A) (A)
                 (A) (A) (A) (A) (A) (A) (A) (A) (A) (A) (A) (A)
                 (A) (A) (A) (A) (A) (A) (A) (A) (A) (A) (A) (A)
                 (A) (A) (A) (A) (A) (A) (A) (A) (A) (A) (A) (A)
                 (A) (A) (A) (A) (A) (A) (A) (A) (A) (A) (A) (A)
                 (A) (A) (A) (A) (A) (A) (A) (A) (A) (A) (A) (A)
                 (A) (A) (A) (A) (A) (A) (A) (A) (A) (A) (A) (A)
                 (A) (A) (A) (A) (A) (A) (A) (A) (A) (A) (A) (A)
                 (A) (A) (A) (A) (A) (A) (A) (A) (A) (A) (A) (A)
                 (A) (A) (A) (A) (A) (A) (A) (A) (A) (A) (A) (A)
                 (A) (A) (A) (A) (A) (A) (A) (A) (A) (A) (A) (A)
                 (A) (A) (A) (A) (A) (A) (A) (A) (A) (A) (A) (A)
                 (A) (A) (A) (A) (A) (A) (A) (A) (A) (A) (A) (A)
                 (A) (A) (A) (A) (A) (A) (A) (A) (A) (A) (A) (A)
                 (A) (A) (A) (A) (A) (A) (A) (A) (A) (A) (A) (A)
                 (A) (A) (A) (A) (A) (A) (A) (A) (A) (A) (A) (A)
                 (A) (A) (A) (A) (A) (A) (A) (A) (A) (A) (A) (A)
                 (A) (A) (A) (A) (A) (A) (A) (A) (A) (A) (A) (A)
                 (A) (A) (A) (A) (A) (A) (A) (A) (A) (A) (A) (A)
                 (A) (A) (A) (A) (A) (A) (A) (A) (A) (A) (A) (A)
                 (A) (A) (A) (A) (A) (A) (A) (A) (A) (A) (A) (A)
                 (A) (A) (A) (A) (A) (A) (A) (A) (A) (A) (A) (A)
                 (A) (A) (A) (A) (A) (A) (A) (A) (A) (A) (A) (A)
                 (A) (A) (A) (A) (A) (A) (A) (A) (A) (A) (A) (A)
                 (A) (A) (A) (A) (A) (A) (A) (A) (A) (A) (A) (A)
                 (A) (A) (A) (A) (A) (A) (A) (A) (A) (A) (A) (A)
                 (A) (A) (A) (A) (A) (A) (A) (A) (A)
 The electronic state is 1-A.
 Alpha  occ. eigenvalues --  -88.92161 -88.85656 -10.28587 -10.24240 -10.23942
 Alpha  occ. eigenvalues --  -10.23778 -10.22804 -10.21885 -10.21356 -10.21224
 Alpha  occ. eigenvalues --  -10.21180 -10.21055 -10.20370 -10.18510  -7.98262
 Alpha  occ. eigenvalues --   -7.92033  -5.94719  -5.94288  -5.93971  -5.88403
 Alpha  occ. eigenvalues --   -5.88261  -5.87561  -0.87599  -0.85602  -0.81548
 Alpha  occ. eigenvalues --   -0.80772  -0.77667  -0.73430  -0.70998  -0.69093
 Alpha  occ. eigenvalues --   -0.63130  -0.62249  -0.57421  -0.55103  -0.53644
 Alpha  occ. eigenvalues --   -0.52134  -0.47985  -0.47529  -0.47037  -0.45692
 Alpha  occ. eigenvalues --   -0.44756  -0.42749  -0.41922  -0.40578  -0.39116
 Alpha  occ. eigenvalues --   -0.37985  -0.37614  -0.35906  -0.34385  -0.33148
 Alpha  occ. eigenvalues --   -0.30660  -0.29509  -0.27165  -0.26073  -0.22851
 Alpha  occ. eigenvalues --   -0.21582  -0.16451
 Alpha virt. eigenvalues --   -0.11541  -0.08703  -0.06150  -0.02546   0.01182
 Alpha virt. eigenvalues --    0.03026   0.03635   0.06125   0.07767   0.09026
 Alpha virt. eigenvalues --    0.11508   0.11983   0.12607   0.13703   0.14237
 Alpha virt. eigenvalues --    0.15543   0.15686   0.16915   0.18980   0.20579
 Alpha virt. eigenvalues --    0.21575   0.21843   0.23371   0.24640   0.26489
 Alpha virt. eigenvalues --    0.27426   0.28725   0.29752   0.31294   0.31730
 Alpha virt. eigenvalues --    0.32428   0.33441   0.34792   0.35019   0.36443
 Alpha virt. eigenvalues --    0.37253   0.38170   0.38849   0.40481   0.40570
 Alpha virt. eigenvalues --    0.41644   0.42685   0.43175   0.44077   0.44112
 Alpha virt. eigenvalues --    0.45310   0.46009   0.46695   0.47288   0.48916
 Alpha virt. eigenvalues --    0.50161   0.50248   0.52274   0.52407   0.53511
 Alpha virt. eigenvalues --    0.53870   0.55044   0.56299   0.57293   0.58049
 Alpha virt. eigenvalues --    0.58490   0.58980   0.60763   0.61412   0.63155
 Alpha virt. eigenvalues --    0.63597   0.64842   0.65928   0.67522   0.68324
 Alpha virt. eigenvalues --    0.68609   0.69333   0.70742   0.71739   0.72140
 Alpha virt. eigenvalues --    0.73492   0.74300   0.74568   0.75513   0.75752
 Alpha virt. eigenvalues --    0.76445   0.77321   0.77904   0.78580   0.79459
 Alpha virt. eigenvalues --    0.80402   0.81500   0.81891   0.83650   0.84146
 Alpha virt. eigenvalues --    0.84402   0.86858   0.87118   0.87684   0.89367
 Alpha virt. eigenvalues --    0.90050   0.91964   0.93420   0.94996   0.95239
 Alpha virt. eigenvalues --    0.97226   0.99225   1.00173   1.02362   1.02674
 Alpha virt. eigenvalues --    1.04228   1.06243   1.08434   1.09536   1.11383
 Alpha virt. eigenvalues --    1.13232   1.15192   1.16641   1.18475   1.19818
 Alpha virt. eigenvalues --    1.20259   1.23089   1.24397   1.26318   1.26624
 Alpha virt. eigenvalues --    1.27214   1.28467   1.31302   1.32249   1.33705
 Alpha virt. eigenvalues --    1.34620   1.35867   1.38022   1.39061   1.41627
 Alpha virt. eigenvalues --    1.42345   1.44687   1.46241   1.46928   1.48297
 Alpha virt. eigenvalues --    1.49271   1.50076   1.52229   1.52654   1.53659
 Alpha virt. eigenvalues --    1.54291   1.56494   1.57172   1.58533   1.59186
 Alpha virt. eigenvalues --    1.60631   1.62531   1.63838   1.66259   1.66891
 Alpha virt. eigenvalues --    1.67208   1.68019   1.70080   1.70457   1.71283
 Alpha virt. eigenvalues --    1.73574   1.74442   1.74609   1.76224   1.78431
 Alpha virt. eigenvalues --    1.80427   1.80825   1.82096   1.82799   1.85463
 Alpha virt. eigenvalues --    1.88141   1.89934   1.90070   1.91589   1.95268
 Alpha virt. eigenvalues --    1.95680   1.97546   1.98950   2.00371   2.00857
 Alpha virt. eigenvalues --    2.01450   2.04835   2.04986   2.09207   2.11209
 Alpha virt. eigenvalues --    2.12623   2.16416   2.17176   2.18432   2.18844
 Alpha virt. eigenvalues --    2.20448   2.22779   2.25344   2.26467   2.27219
 Alpha virt. eigenvalues --    2.28377   2.29794   2.31919   2.32462   2.34813
 Alpha virt. eigenvalues --    2.35856   2.36878   2.39158   2.39911   2.41113
 Alpha virt. eigenvalues --    2.42361   2.44665   2.47043   2.48423   2.49119
 Alpha virt. eigenvalues --    2.51497   2.53543   2.55346   2.58304   2.62066
 Alpha virt. eigenvalues --    2.64495   2.65367   2.69508   2.70739   2.72909
 Alpha virt. eigenvalues --    2.73961   2.75626   2.77414   2.79297   2.81044
 Alpha virt. eigenvalues --    2.82539   2.83464   2.83755   2.86019   2.87364
 Alpha virt. eigenvalues --    2.89273   2.90963   2.93378   2.95541   2.96754
 Alpha virt. eigenvalues --    2.98727   2.98943   3.00472   3.01367   3.02658
 Alpha virt. eigenvalues --    3.04819   3.06136   3.07943   3.08346   3.09116
 Alpha virt. eigenvalues --    3.09690   3.12735   3.13652   3.15931   3.16872
 Alpha virt. eigenvalues --    3.17742   3.17979   3.19337   3.21661   3.22099
 Alpha virt. eigenvalues --    3.23362   3.24902   3.25736   3.27212   3.27893
 Alpha virt. eigenvalues --    3.29586   3.31097   3.31966   3.32839   3.33989
 Alpha virt. eigenvalues --    3.34608   3.36898   3.37816   3.39151   3.40180
 Alpha virt. eigenvalues --    3.40827   3.42874   3.43937   3.47290   3.48868
 Alpha virt. eigenvalues --    3.49437   3.49813   3.52718   3.54632   3.54908
 Alpha virt. eigenvalues --    3.56925   3.58130   3.61019   3.62061   3.62804
 Alpha virt. eigenvalues --    3.65103   3.65397   3.68169   3.71916   3.74687
 Alpha virt. eigenvalues --    3.75102   3.77272   3.77412   3.80841   3.82971
 Alpha virt. eigenvalues --    3.86173   3.86516   3.87794   3.90058   3.94221
 Alpha virt. eigenvalues --    3.95248   3.96444   4.00019   4.01015   4.04922
 Alpha virt. eigenvalues --    4.07081   4.09595   4.12291   4.15347   4.16240
 Alpha virt. eigenvalues --    4.17642   4.24380   4.28096   4.29663   4.30425
 Alpha virt. eigenvalues --    4.30728   4.32864   4.36232   4.37027   4.38352
 Alpha virt. eigenvalues --    4.41482   4.43854   4.44478   4.45191   4.48361
 Alpha virt. eigenvalues --    4.49562   4.51125   4.52815   4.54329   4.55058
 Alpha virt. eigenvalues --    4.56235   4.57200   4.58067   4.59679   4.62858
 Alpha virt. eigenvalues --    4.63791   4.64751   4.65909   4.67762   4.68315
 Alpha virt. eigenvalues --    4.69943   4.70968   4.72302   4.73185   4.74628
 Alpha virt. eigenvalues --    4.78610   4.79590   4.81309   4.82139   4.85527
 Alpha virt. eigenvalues --    4.87240   4.89399   4.90224   4.92672   4.93802
 Alpha virt. eigenvalues --    4.96522   4.98420   5.00419   5.00496   5.02523
 Alpha virt. eigenvalues --    5.05771   5.09207   5.09797   5.12002   5.15722
 Alpha virt. eigenvalues --    5.18509   5.23205   5.26180   5.28796   5.31747
 Alpha virt. eigenvalues --    5.32577   5.37705   5.40506   5.42760   5.44553
 Alpha virt. eigenvalues --    5.49862   5.53391   5.55709   5.60478   5.63834
 Alpha virt. eigenvalues --    5.73400   5.76540   5.79939   5.86543   5.93093
 Alpha virt. eigenvalues --    6.24814   9.99751  10.40684  10.52131  10.85553
 Alpha virt. eigenvalues --   11.19404  11.44096  11.55733  11.68369  11.79074
 Alpha virt. eigenvalues --   11.95267  12.17589  12.33585
          Condensed to atoms (all electrons):
               1          2          3          4          5          6
     1  S   15.949875   0.475041  -0.061204  -0.001144   0.000362  -0.000054
     2  C    0.475041   4.649282   0.407824  -0.022794  -0.004434  -0.000294
     3  C   -0.061204   0.407824   5.074190   0.330573  -0.004570   0.007186
     4  C   -0.001144  -0.022794   0.330573   4.985850   0.604502  -0.048748
     5  C    0.000362  -0.004434  -0.004570   0.604502   4.518154   0.374278
     6  C   -0.000054  -0.000294   0.007186  -0.048748   0.374278   5.010556
     7  C    0.000013  -0.000014  -0.000116  -0.005061  -0.022767   0.627568
     8  C    0.000001   0.000000   0.000001   0.000246   0.006363  -0.029895
     9  C    0.000000  -0.000001   0.000002   0.000048   0.004713  -0.032446
    10  C   -0.000000   0.000001  -0.000003   0.000020  -0.005650   0.017271
    11  C    0.000001   0.000003  -0.000042   0.003427  -0.028261  -0.012023
    12  C    0.000617  -0.001866  -0.010328  -0.017998   0.422905  -0.041689
    13  C    0.001099  -0.008103   0.003152  -0.025234  -0.021407   0.008604
    14  S   -0.063980   0.352410  -0.057619  -0.001107  -0.010099   0.000236
    15  H    0.006319  -0.030078   0.341684  -0.019489  -0.004297  -0.000139
    16  H   -0.004889  -0.023150   0.359526  -0.019859   0.003230  -0.000101
    17  H   -0.000035   0.002988  -0.066045   0.371231  -0.028947  -0.020556
    18  H    0.000003   0.000011  -0.000226  -0.000933  -0.037735   0.359725
    19  H    0.000017  -0.000012  -0.000018   0.001029  -0.016405  -0.042617
    20  H    0.000000  -0.000000   0.000000   0.000012   0.000347  -0.016914
    21  H    0.000000  -0.000000   0.000000   0.000001   0.000047  -0.000148
    22  H   -0.000000  -0.000000  -0.000000   0.000003  -0.000052  -0.000203
    23  H    0.000000   0.000000  -0.000001  -0.000075   0.002055  -0.000160
    24  H   -0.000103   0.001402  -0.000243   0.000193   0.004259  -0.000225
               7          8          9         10         11         12
     1  S    0.000013   0.000001   0.000000  -0.000000   0.000001   0.000617
     2  C   -0.000014   0.000000  -0.000001   0.000001   0.000003  -0.001866
     3  C   -0.000116   0.000001   0.000002  -0.000003  -0.000042  -0.010328
     4  C   -0.005061   0.000246   0.000048   0.000020   0.003427  -0.017998
     5  C   -0.022767   0.006363   0.004713  -0.005650  -0.028261   0.422905
     6  C    0.627568  -0.029895  -0.032446   0.017271  -0.012023  -0.041689
     7  C    4.930283   0.416361  -0.114796   0.017890  -0.004309   0.000327
     8  C    0.416361   5.004426   0.556611  -0.061612  -0.011605  -0.000445
     9  C   -0.114796   0.556611   5.113368   0.396207  -0.027360  -0.007757
    10  C    0.017890  -0.061612   0.396207   4.868882   0.624851  -0.012961
    11  C   -0.004309  -0.011605  -0.027360   0.624851   5.005297   0.358180
    12  C    0.000327  -0.000445  -0.007757  -0.012961   0.358180   4.738186
    13  C    0.000700  -0.000107  -0.000228   0.001476  -0.047258   0.553198
    14  S    0.000166  -0.000002   0.000001  -0.000027   0.003551  -0.016648
    15  H   -0.000003  -0.000000  -0.000000   0.000000   0.000001   0.000899
    16  H    0.000003  -0.000000   0.000000   0.000000   0.000000  -0.000081
    17  H    0.000795   0.000003  -0.000001  -0.000006  -0.000059   0.005958
    18  H   -0.039899  -0.005860  -0.000135  -0.000296   0.000426   0.002380
    19  H    0.356244  -0.053202  -0.001717  -0.008087  -0.000459   0.008871
    20  H   -0.064250   0.358179  -0.054774  -0.014962  -0.000152  -0.000097
    21  H   -0.009619  -0.049138   0.367319  -0.069356  -0.008689   0.000042
    22  H    0.000721   0.007931  -0.071644   0.356674  -0.037400   0.002919
    23  H   -0.000144   0.000321   0.004369  -0.039008   0.364390  -0.039704
    24  H    0.000009  -0.000000  -0.000019  -0.000020  -0.007605  -0.023763
              13         14         15         16         17         18
     1  S    0.001099  -0.063980   0.006319  -0.004889  -0.000035   0.000003
     2  C   -0.008103   0.352410  -0.030078  -0.023150   0.002988   0.000011
     3  C    0.003152  -0.057619   0.341684   0.359526  -0.066045  -0.000226
     4  C   -0.025234  -0.001107  -0.019489  -0.019859   0.371231  -0.000933
     5  C   -0.021407  -0.010099  -0.004297   0.003230  -0.028947  -0.037735
     6  C    0.008604   0.000236  -0.000139  -0.000101  -0.020556   0.359725
     7  C    0.000700   0.000166  -0.000003   0.000003   0.000795  -0.039899
     8  C   -0.000107  -0.000002  -0.000000  -0.000000   0.000003  -0.005860
     9  C   -0.000228   0.000001  -0.000000   0.000000  -0.000001  -0.000135
    10  C    0.001476  -0.000027   0.000000   0.000000  -0.000006  -0.000296
    11  C   -0.047258   0.003551   0.000001   0.000000  -0.000059   0.000426
    12  C    0.553198  -0.016648   0.000899  -0.000081   0.005958   0.002380
    13  C    5.118262   0.297067   0.000669   0.000016  -0.000167  -0.000161
    14  S    0.297067  15.535703  -0.002402   0.005839   0.000018   0.000009
    15  H    0.000669  -0.002402   0.603962  -0.040564   0.005320   0.000015
    16  H    0.000016   0.005839  -0.040564   0.584743  -0.013963  -0.000011
    17  H   -0.000167   0.000018   0.005320  -0.013963   0.631995   0.004592
    18  H   -0.000161   0.000009   0.000015  -0.000011   0.004592   0.600573
    19  H    0.000915   0.000071  -0.000001   0.000001   0.000005   0.006058
    20  H   -0.000002   0.000000  -0.000000   0.000000  -0.000002   0.005154
    21  H    0.000009  -0.000002  -0.000000   0.000000  -0.000000   0.000010
    22  H   -0.000047   0.000002   0.000000   0.000000  -0.000000   0.000009
    23  H   -0.004379  -0.000106  -0.000000  -0.000000   0.000002   0.000013
    24  H    0.348238  -0.046978   0.000025   0.000002   0.000007   0.000003
              19         20         21         22         23         24
     1  S    0.000017   0.000000   0.000000  -0.000000   0.000000  -0.000103
     2  C   -0.000012  -0.000000  -0.000000  -0.000000   0.000000   0.001402
     3  C   -0.000018   0.000000   0.000000  -0.000000  -0.000001  -0.000243
     4  C    0.001029   0.000012   0.000001   0.000003  -0.000075   0.000193
     5  C   -0.016405   0.000347   0.000047  -0.000052   0.002055   0.004259
     6  C   -0.042617  -0.016914  -0.000148  -0.000203  -0.000160  -0.000225
     7  C    0.356244  -0.064250  -0.009619   0.000721  -0.000144   0.000009
     8  C   -0.053202   0.358179  -0.049138   0.007931   0.000321  -0.000000
     9  C   -0.001717  -0.054774   0.367319  -0.071644   0.004369  -0.000019
    10  C   -0.008087  -0.014962  -0.069356   0.356674  -0.039008  -0.000020
    11  C   -0.000459  -0.000152  -0.008689  -0.037400   0.364390  -0.007605
    12  C    0.008871  -0.000097   0.000042   0.002919  -0.039704  -0.023763
    13  C    0.000915  -0.000002   0.000009  -0.000047  -0.004379   0.348238
    14  S    0.000071   0.000000  -0.000002   0.000002  -0.000106  -0.046978
    15  H   -0.000001  -0.000000  -0.000000   0.000000  -0.000000   0.000025
    16  H    0.000001   0.000000   0.000000   0.000000  -0.000000   0.000002
    17  H    0.000005  -0.000002  -0.000000  -0.000000   0.000002   0.000007
    18  H    0.006058   0.005154   0.000010   0.000009   0.000013   0.000003
    19  H    0.620915   0.008125   0.005124   0.000191   0.000154   0.000039
    20  H    0.008125   0.671954   0.008494   0.000475   0.000009  -0.000000
    21  H    0.005124   0.008494   0.631086   0.004818  -0.000097  -0.000003
    22  H    0.000191   0.000475   0.004818   0.621672  -0.008232  -0.000010
    23  H    0.000154   0.000009  -0.000097  -0.008232   0.584405   0.003750
    24  H    0.000039  -0.000000  -0.000003  -0.000010   0.003750   0.584821
 Mulliken charges:
               1
     1  S   -0.301937
     2  C    0.201784
     3  C   -0.323724
     4  C   -0.134695
     5  C    0.243408
     6  C   -0.159214
     7  C   -0.090104
     8  C   -0.138578
     9  C   -0.131763
    10  C   -0.071283
    11  C   -0.174906
    12  C    0.078855
    13  C   -0.226310
    14  S    0.003894
    15  H    0.138079
    16  H    0.149257
    17  H    0.106866
    18  H    0.106275
    19  H    0.114759
    20  H    0.098403
    21  H    0.120101
    22  H    0.122174
    23  H    0.132438
    24  H    0.136220
 Sum of Mulliken charges =  -0.00000
 Mulliken charges with hydrogens summed into heavy atoms:
               1
     1  S   -0.301937
     2  C    0.201784
     3  C   -0.036388
     4  C   -0.027829
     5  C    0.243408
     6  C   -0.052938
     7  C    0.024655
     8  C   -0.040175
     9  C   -0.011661
    10  C    0.050890
    11  C   -0.042468
    12  C    0.078855
    13  C   -0.090090
    14  S    0.003894
 Electronic spatial extent (au):  <R**2>=           3748.0599
 Charge=             -0.0000 electrons
 Dipole moment (field-independent basis, Debye):
    X=             -3.3818    Y=              1.2908    Z=              2.3735  Tot=              4.3286
 Quadrupole moment (field-independent basis, Debye-Ang):
   XX=           -101.8562   YY=            -91.7850   ZZ=            -96.3433
   XY=             -0.5433   XZ=              5.9749   YZ=             -2.7622
 Traceless Quadrupole moment (field-independent basis, Debye-Ang):
   XX=             -5.1947   YY=              4.8765   ZZ=              0.3182
   XY=             -0.5433   XZ=              5.9749   YZ=             -2.7622
 Octapole moment (field-independent basis, Debye-Ang**2):
  XXX=            -47.1197  YYY=             15.9461  ZZZ=              3.2150  XYY=             -4.8887
  XXY=             12.2709  XXZ=             20.7327  XZZ=              1.9771  YZZ=             -3.7766
  YYZ=              9.3301  XYZ=              0.8741
 Hexadecapole moment (field-independent basis, Debye-Ang**3):
 XXXX=          -3947.1341 YYYY=           -890.9168 ZZZZ=           -469.0890 XXXY=             -5.4007
 XXXZ=             25.0292 YYYX=             -9.0919 YYYZ=            -15.5988 ZZZX=             25.5334
 ZZZY=             -9.6993 XXYY=           -802.0480 XXZZ=           -722.9949 YYZZ=           -230.1276
 XXYZ=            -11.1927 YYXZ=            -14.7936 ZZXY=             -9.9236
 N-N= 9.965057685884D+02 E-N=-4.957094751778D+03  KE= 1.252856103547D+03
 PrsmSu:  requested number of processors reduced to:  13 ShMem   1 Linda.
 Calling FoFJK, ICntrl=      2127 FMM=F ISym2X=0 I1Cent= 0 IOpClX= 0 NMat=1 NMatS=1 NMatT=0.
 ***** Axes restored to original set *****
 -------------------------------------------------------------------
 Center     Atomic                   Forces (Hartrees/Bohr)
 Number     Number              X              Y              Z
 -------------------------------------------------------------------
      1       16           0.033306715    0.014044118    0.003484520
      2        6          -0.029327177   -0.006160818   -0.009289721
      3        6           0.003111860   -0.012321761   -0.001525593
      4        6           0.001261189   -0.005772866   -0.009480126
      5        6           0.002388439    0.005844702    0.002114317
      6        6           0.002973476    0.001646724    0.003461158
      7        6          -0.028601617    0.031401846    0.021712027
      8        6           0.003394275   -0.057031410   -0.014487673
      9        6          -0.020701016    0.035285790    0.001841923
     10        6           0.030248057    0.004158270    0.018548416
     11        6          -0.024550879   -0.025952563   -0.005684594
     12        6           0.010498948   -0.008752084    0.018647338
     13        6           0.011474486   -0.000817602    0.010838262
     14       16          -0.006587252    0.007566666    0.002870043
     15        1           0.007775751    0.005354726    0.000086267
     16        1           0.005145552    0.009683363    0.000965477
     17        1          -0.002273342    0.006454340    0.011106766
     18        1          -0.001656702   -0.002385395    0.006092276
     19        1          -0.006071467   -0.009930623   -0.002731840
     20        1           0.007645965   -0.013732129   -0.005988799
     21        1          -0.004955396    0.009415195   -0.012441555
     22        1           0.012336027    0.019713656   -0.038392949
     23        1          -0.002790936   -0.010303929   -0.000865281
     24        1          -0.004044956    0.002591786   -0.000880658
 -------------------------------------------------------------------
 Cartesian Forces:  Max     0.057031410 RMS     0.015292285

 GradGradGradGradGradGradGradGradGradGradGradGradGradGradGradGradGradGrad
 Berny optimization.
 FormGI is forming the generalized inverse of G from B-inverse, IUseBI=4.
 Internal  Forces:  Max     0.053829843 RMS     0.014043753
 Search for a local minimum.
 Step number   1 out of a maximum of  131
 All quantities printed in internal units (Hartrees-Bohrs-Radians)
 Mixed Optimization -- RFO/linear search
 Second derivative matrix not updated -- first step.
 ITU=  0
     Eigenvalues ---    0.00790   0.00851   0.01044   0.01219   0.01319
     Eigenvalues ---    0.01428   0.01531   0.01624   0.01805   0.01848
     Eigenvalues ---    0.02089   0.02178   0.02240   0.02287   0.02633
     Eigenvalues ---    0.03033   0.03351   0.04714   0.05780   0.05984
     Eigenvalues ---    0.06769   0.09418   0.10054   0.10911   0.13226
     Eigenvalues ---    0.14100   0.15161   0.15583   0.15679   0.15793
     Eigenvalues ---    0.15937   0.16000   0.18268   0.19743   0.20082
     Eigenvalues ---    0.20436   0.21474   0.22323   0.23027   0.23671
     Eigenvalues ---    0.24492   0.24821   0.28580   0.28892   0.29780
     Eigenvalues ---    0.31438   0.31610   0.32632   0.33197   0.33715
     Eigenvalues ---    0.33899   0.34287   0.34456   0.34646   0.34731
     Eigenvalues ---    0.35098   0.35838   0.35956   0.36484   0.36857
     Eigenvalues ---    0.39044   0.46302   0.50109   0.50992   0.51898
     Eigenvalues ---    0.53177
 RFO step:  Lambda=-9.16890441D-02 EMin= 7.90276214D-03
 Linear search not attempted -- first point.
 Maximum step size (   0.300) exceeded in Quadratic search.
    -- Step size scaled by   0.670
 Iteration  1 RMS(Cart)=  0.10406470 RMS(Int)=  0.00460670
 Iteration  2 RMS(Cart)=  0.00675539 RMS(Int)=  0.00061702
 Iteration  3 RMS(Cart)=  0.00001473 RMS(Int)=  0.00061691
 Iteration  4 RMS(Cart)=  0.00000002 RMS(Int)=  0.00061691
 Variable       Old X    -DE/DX   Delta X   Delta X   Delta X     New X
                                 (Linear)    (Quad)   (Total)
    R1        3.19762  -0.03485   0.00000  -0.05074  -0.05074   3.14687
    R2        2.83449   0.01268   0.00000   0.02148   0.02115   2.85564
    R3        3.32232  -0.00664   0.00000  -0.01317  -0.01339   3.30894
    R4        2.83933   0.00712   0.00000   0.01077   0.01062   2.84995
    R5        2.06568   0.00451   0.00000   0.00694   0.00694   2.07261
    R6        2.09703  -0.01091   0.00000  -0.01749  -0.01749   2.07954
    R7        2.56847  -0.00368   0.00000  -0.00402  -0.00392   2.56455
    R8        2.06253  -0.00208   0.00000  -0.00317  -0.00317   2.05936
    R9        2.75582   0.00896   0.00000   0.01343   0.01368   2.76950
   R10        2.87590  -0.01569   0.00000  -0.02606  -0.02512   2.85078
   R11        2.54951   0.00083   0.00000   0.00198   0.00118   2.55069
   R12        2.04151   0.00279   0.00000   0.00415   0.00415   2.04566
   R13        2.71852  -0.00502   0.00000  -0.00611  -0.00602   2.71250
   R14        2.07814  -0.00629   0.00000  -0.00983  -0.00983   2.06831
   R15        2.58835   0.04959   0.00000   0.05573   0.05517   2.64352
   R16        2.04336   0.01350   0.00000   0.02010   0.02010   2.06346
   R17        2.78084   0.01807   0.00000   0.02624   0.02644   2.80728
   R18        2.06114   0.00696   0.00000   0.01063   0.01063   2.07177
   R19        2.62674  -0.03305   0.00000  -0.03980  -0.03989   2.58685
   R20        2.08707  -0.00512   0.00000  -0.00810  -0.00810   2.07897
   R21        3.12891  -0.04983   0.00000  -0.11451  -0.11444   3.01447
   R22        2.07500  -0.00706   0.00000  -0.01098  -0.01098   2.06402
   R23        2.57344  -0.01204   0.00000  -0.01232  -0.01206   2.56138
   R24        3.33662  -0.01055   0.00000  -0.01939  -0.01925   3.31738
   R25        2.05516   0.00035   0.00000   0.00053   0.00053   2.05569
    A1        2.08851   0.01464   0.00000   0.02534   0.02562   2.11413
    A2        2.14727  -0.01951   0.00000  -0.04069  -0.04036   2.10691
    A3        2.03706   0.00506   0.00000   0.01659   0.01593   2.05298
    A4        1.89795   0.00867   0.00000   0.02130   0.02152   1.91947
    A5        1.93817  -0.00310   0.00000  -0.00274  -0.00281   1.93536
    A6        1.88139  -0.00265   0.00000  -0.01209  -0.01204   1.86935
    A7        2.06201  -0.00521   0.00000  -0.01889  -0.01911   2.04290
    A8        1.85449  -0.00183   0.00000   0.00004   0.00025   1.85474
    A9        1.81897   0.00382   0.00000   0.01141   0.01140   1.83038
   A10        2.35190  -0.00616   0.00000  -0.01385  -0.01374   2.33817
   A11        1.87719   0.01455   0.00000   0.03707   0.03708   1.91427
   A12        2.03669  -0.00830   0.00000  -0.02176  -0.02186   2.01482
   A13        1.97002   0.02372   0.00000   0.04291   0.04188   2.01190
   A14        2.28585  -0.01685   0.00000  -0.03764  -0.03821   2.24764
   A15        2.02723  -0.00682   0.00000  -0.00489  -0.00376   2.02347
   A16        1.99090   0.00175   0.00000   0.01589   0.01662   2.00752
   A17        2.06490   0.00156   0.00000  -0.00223  -0.00306   2.06184
   A18        2.20184  -0.00477   0.00000  -0.02305  -0.02389   2.17795
   A19        2.13753  -0.01864   0.00000  -0.06023  -0.06144   2.07609
   A20        2.05019   0.00518   0.00000   0.01419   0.01445   2.06464
   A21        1.92086   0.00911   0.00000   0.02880   0.02902   1.94988
   A22        1.85016  -0.00135   0.00000   0.01596   0.01347   1.86363
   A23        1.93965   0.01124   0.00000   0.02982   0.03002   1.96966
   A24        1.99360   0.00372   0.00000   0.01433   0.01391   2.00752
   A25        2.12763  -0.00668   0.00000  -0.01555  -0.01588   2.11174
   A26        2.02653   0.00077   0.00000   0.00935   0.00900   2.03553
   A27        1.93613   0.00549   0.00000   0.00958   0.00990   1.94603
   A28        2.31412  -0.02044   0.00000  -0.05022  -0.05156   2.26255
   A29        1.70616   0.05383   0.00000   0.14470   0.14505   1.85121
   A30        2.23625  -0.03396   0.00000  -0.09564  -0.09468   2.14157
   A31        2.34587   0.02296   0.00000   0.05063   0.04955   2.39542
   A32        1.97472  -0.00802   0.00000  -0.01607  -0.01564   1.95909
   A33        1.96258  -0.01494   0.00000  -0.03447  -0.03400   1.92858
   A34        2.08440   0.01641   0.00000   0.04125   0.04138   2.12578
   A35        2.06977   0.02127   0.00000   0.04078   0.04085   2.11062
   A36        2.12456  -0.03792   0.00000  -0.08300  -0.08323   2.04133
   A37        2.30387   0.00630   0.00000   0.01562   0.01563   2.31949
   A38        2.07503   0.00037   0.00000   0.00160   0.00158   2.07661
   A39        1.89749  -0.00653   0.00000  -0.01682  -0.01685   1.88063
   A40        1.99192  -0.01357   0.00000  -0.02862  -0.02899   1.96293
    D1       -2.01315   0.00131   0.00000   0.00561   0.00532  -2.00783
    D2        1.97264   0.00366   0.00000   0.01561   0.01556   1.98820
    D3       -0.00962   0.00221   0.00000   0.01021   0.01016   0.00054
    D4        1.27786   0.00172   0.00000   0.00035  -0.00003   1.27783
    D5       -1.01953   0.00407   0.00000   0.01035   0.01020  -1.00933
    D6       -3.00179   0.00261   0.00000   0.00496   0.00481  -2.99698
    D7        2.56267   0.00796   0.00000   0.03544   0.03509   2.59776
    D8       -0.73383   0.01082   0.00000   0.04728   0.04656  -0.68727
    D9       -0.66824  -0.00022   0.00000  -0.02019  -0.02003  -0.68827
   D10        2.25909   0.00006   0.00000  -0.01219  -0.01177   2.24732
   D11        1.56074  -0.00086   0.00000  -0.01998  -0.02015   1.54059
   D12       -1.79512  -0.00058   0.00000  -0.01198  -0.01188  -1.80700
   D13       -2.68920  -0.00042   0.00000  -0.01654  -0.01670  -2.70589
   D14        0.23813  -0.00014   0.00000  -0.00854  -0.00843   0.22970
   D15        2.66962   0.01167   0.00000   0.05910   0.05983   2.72945
   D16       -0.45760   0.00687   0.00000   0.02480   0.02490  -0.43270
   D17       -0.24307   0.00932   0.00000   0.04525   0.04586  -0.19721
   D18        2.91290   0.00453   0.00000   0.01094   0.01093   2.92383
   D19       -2.46432  -0.00034   0.00000  -0.02060  -0.02218  -2.48650
   D20        0.90320   0.00666   0.00000   0.02335   0.02256   0.92576
   D21        0.66517   0.00356   0.00000   0.00789   0.00773   0.67291
   D22       -2.25049   0.01056   0.00000   0.05183   0.05248  -2.19801
   D23       -2.57676   0.00977   0.00000   0.04178   0.04118  -2.53559
   D24        0.46529   0.00487   0.00000   0.02609   0.02525   0.49053
   D25        0.57959   0.00465   0.00000   0.00627   0.00575   0.58534
   D26       -2.66155  -0.00025   0.00000  -0.00943  -0.01018  -2.67173
   D27       -2.34981   0.01811   0.00000   0.09528   0.09569  -2.25412
   D28        0.13013   0.01453   0.00000   0.07809   0.07820   0.20833
   D29        0.54503   0.01153   0.00000   0.05106   0.05125   0.59628
   D30        3.02496   0.00795   0.00000   0.03387   0.03376   3.05872
   D31        1.76880   0.00830   0.00000   0.04047   0.04007   1.80887
   D32       -0.40672  -0.00233   0.00000  -0.00626  -0.00683  -0.41355
   D33       -0.75362   0.01202   0.00000   0.05844   0.05859  -0.69503
   D34       -2.92915   0.00140   0.00000   0.01171   0.01170  -2.91745
   D35       -0.84812  -0.03038   0.00000  -0.14084  -0.14078  -0.98891
   D36        1.60750  -0.02881   0.00000  -0.13139  -0.13185   1.47565
   D37        1.29356  -0.01479   0.00000  -0.08264  -0.08260   1.21096
   D38       -2.53400  -0.01322   0.00000  -0.07319  -0.07367  -2.60767
   D39        1.11947  -0.00545   0.00000  -0.01302  -0.01381   1.10565
   D40       -2.26120  -0.00989   0.00000  -0.02429  -0.02594  -2.28714
   D41       -1.36737  -0.00560   0.00000  -0.02259  -0.02266  -1.39003
   D42        1.53514  -0.01004   0.00000  -0.03385  -0.03478   1.50036
   D43       -0.57354   0.01016   0.00000   0.08010   0.07907  -0.49447
   D44        2.57380   0.00935   0.00000   0.05759   0.05631   2.63010
   D45        2.87094   0.00523   0.00000   0.06493   0.06399   2.93493
   D46       -0.26490   0.00442   0.00000   0.04242   0.04123  -0.22368
   D47       -0.66646  -0.00162   0.00000  -0.01580  -0.01700  -0.68346
   D48        2.57791  -0.00017   0.00000  -0.00718  -0.00867   2.56924
   D49        2.46942  -0.00080   0.00000   0.00664   0.00553   2.47495
   D50       -0.56940   0.00065   0.00000   0.01526   0.01387  -0.55553
   D51        0.33174  -0.00416   0.00000  -0.02182  -0.02149   0.31025
   D52       -2.95058  -0.00330   0.00000  -0.01913  -0.01922  -2.96980
   D53       -2.91179  -0.00583   0.00000  -0.03026  -0.02963  -2.94142
   D54        0.08907  -0.00497   0.00000  -0.02758  -0.02736   0.06171
   D55       -0.32927  -0.00197   0.00000  -0.01666  -0.01694  -0.34622
   D56        2.94235  -0.00308   0.00000  -0.02000  -0.01986   2.92249
         Item               Value     Threshold  Converged?
 Maximum Force            0.053830     0.000450     NO 
 RMS     Force            0.014044     0.000300     NO 
 Maximum Displacement     0.431807     0.001800     NO 
 RMS     Displacement     0.104905     0.001200     NO 
 Predicted change in Energy=-5.011731D-02
 GradGradGradGradGradGradGradGradGradGradGradGradGradGradGradGradGradGrad

                          Input orientation:                          
 ---------------------------------------------------------------------
 Center     Atomic      Atomic             Coordinates (Angstroms)
 Number     Number       Type             X           Y           Z
 ---------------------------------------------------------------------
      1         16           0        1.692797   -0.031973   -0.136789
      2          6           0        3.323545    0.088793    0.178091
      3          6           0        4.196985   -1.141751    0.258172
      4          6           0        4.734932   -1.301560    1.658004
      5          6           0        5.200130   -0.435114    2.593200
      6          6           0        5.123952   -0.908841    3.977987
      7          6           0        4.805091    0.035829    4.887824
      8          6           0        5.627945    0.182438    6.054772
      9          6           0        6.417921    1.318910    5.851653
     10          6           0        7.300402    1.434523    4.662236
     11          6           0        6.973813    1.478604    3.333596
     12          6           0        5.803970    0.933227    2.396229
     13          6           0        5.463930    1.697862    1.329983
     14         16           0        4.115747    1.650089    0.206671
     15          1           0        4.925934   -1.157884   -0.561156
     16          1           0        3.548092   -2.011673    0.076092
     17          1           0        4.538940   -2.312988    2.013232
     18          1           0        5.562559   -1.870087    4.213507
     19          1           0        4.439253    1.001917    4.526203
     20          1           0        6.180885   -0.726464    6.300699
     21          1           0        5.967365    2.283617    6.112967
     22          1           0        8.285365    1.743323    5.042768
     23          1           0        7.697376    2.050686    2.748660
     24          1           0        6.031500    2.603775    1.128611
 ---------------------------------------------------------------------
                    Distance matrix (angstroms):
                    1          2          3          4          5
     1  S    0.000000
     2  C    1.665254   0.000000
     3  C    2.767410   1.511142   0.000000
     4  C    3.753360   2.472901   1.508130   0.000000
     5  C    4.462819   3.103032   2.637801   1.357104   0.000000
     6  C    5.428913   4.321568   3.840643   2.384929   1.465556
     7  C    5.910813   4.937547   4.815617   3.496465   2.375529
     8  C    7.339399   6.313034   6.115692   4.725599   3.542156
     9  C    7.746813   6.578576   6.501880   5.223601   3.895784
    10  C    7.525057   6.142796   5.971949   4.805538   3.491073
    11  C    6.497272   5.021279   4.902578   3.943287   2.712278
    12  C    4.924381   3.433033   3.385147   2.584974   1.508568
    13  C    4.400590   2.914996   3.288971   3.104121   2.492969
    14  S    2.969509   1.751013   2.793497   3.346938   3.349550
    15  H    3.449773   2.160634   1.096779   2.231994   3.247699
    16  H    2.721515   2.114895   1.100445   2.101260   3.398618
    17  H    4.233928   3.257833   2.137514   1.089764   2.073631
    18  H    6.105636   5.013479   4.247345   2.745685   2.194515
    19  H    5.509578   4.580904   4.782269   3.690528   2.525963
    20  H    7.878229   6.805539   6.373418   4.896543   3.846077
    21  H    7.917912   6.857827   7.010422   5.849708   4.513192
    22  H    8.569798   7.142983   6.923212   5.773518   4.501626
    23  H    6.979846   5.439416   5.352282   4.604689   3.526982
    24  H    5.231896   3.815972   4.260525   4.148853   3.474341
                    6          7          8          9         10
     6  C    0.000000
     7  C    1.349769   0.000000
     8  C    2.399569   1.435391   0.000000
     9  C    3.185570   2.275189   1.398889   0.000000
    10  C    3.270549   2.869462   2.510774   1.485548   0.000000
    11  C    3.088223   3.033246   3.300940   2.583627   1.368900
    12  C    2.521428   2.830394   3.738931   3.530672   2.761412
    13  C    3.731275   3.981791   4.964579   4.636724   3.813908
    14  S    4.667701   4.999423   6.216191   6.105368   5.480927
    15  H    4.550280   5.579510   6.786736   7.034533   6.296229
    16  H    4.350213   5.378204   6.699591   7.258499   6.854839
    17  H    2.484779   3.721700   4.873102   5.608452   5.356000
    18  H    1.082515   2.158929   2.758149   3.685766   3.760572
    19  H    2.102462   1.094501   2.102630   2.402588   2.896865
    20  H    2.558390   2.114264   1.091936   2.107459   2.933896
    21  H    3.932083   2.811478   2.129213   1.096333   2.145360
    22  H    4.261721   3.879672   3.243825   2.078887   1.100142
    23  H    4.110056   4.123225   4.324729   3.435269   2.049151
    24  H    4.613140   4.714882   5.503889   4.909922   3.932401
                   11         12         13         14         15
    11  C    0.000000
    12  C    1.595189   0.000000
    13  C    2.518390   1.355424   0.000000
    14  S    4.239766   2.856248   1.755480   0.000000
    15  H    5.129715   3.726904   3.467150   3.021700   0.000000
    16  H    5.876132   4.375438   4.359280   3.707800   1.741691
    17  H    4.695545   3.504982   4.172451   4.375927   2.848070
    18  H    3.738932   3.349530   4.588540   5.526268   4.869284
    19  H    2.841397   2.530605   3.427846   4.379857   5.548227
    20  H    3.780841   4.259287   5.576684   6.859299   6.988997
    21  H    3.063640   3.957827   4.844945   6.222073   7.581057
    22  H    2.170602   3.717223   4.663404   6.386098   7.148898
    23  H    1.092233   2.226636   2.669347   4.410244   5.378726
    24  H    2.648759   2.109349   1.087826   2.330150   4.269387
                   16         17         18         19         20
    16  H    0.000000
    17  H    2.196607   0.000000
    18  H    4.603947   2.466813   0.000000
    19  H    5.447878   4.160956   3.099677   0.000000
    20  H    6.879614   4.857511   2.458978   3.028104   0.000000
    21  H    7.793989   6.322737   4.585311   2.548667   3.023479
    22  H    7.823657   6.298210   4.599791   3.950835   3.480097
    23  H    6.392334   5.436747   4.698477   3.856805   4.757026
    24  H    5.345789   5.213909   5.454533   4.079808   6.153317
                   21         22         23         24
    21  H    0.000000
    22  H    2.609669   0.000000
    23  H    3.790219   2.388124   0.000000
    24  H    4.995040   4.597925   2.388642   0.000000
 Stoichiometry    C12H10S2
 Framework group  C1[X(C12H10S2)]
 Deg. of freedom    66
 Full point group                 C1      NOp   1
 Largest Abelian subgroup         C1      NOp   1
 Largest concise Abelian subgroup C1      NOp   1
                         Standard orientation:                         
 ---------------------------------------------------------------------
 Center     Atomic      Atomic             Coordinates (Angstroms)
 Number     Number       Type             X           Y           Z
 ---------------------------------------------------------------------
      1         16           0        3.706767   -0.745105   -0.916358
      2          6           0        2.523345   -0.066102    0.038388
      3          6           0        2.093104   -0.718548    1.331739
      4          6           0        0.656603   -1.166393    1.229972
      5          6           0       -0.460506   -0.630175    0.676557
      6          6           0       -1.509430   -1.592274    0.327304
      7          6           0       -2.175006   -1.321514   -0.815314
      8          6           0       -3.610189   -1.305960   -0.796427
      9          6           0       -3.999655    0.037564   -0.808594
     10          6           0       -3.526333    0.980746    0.236981
     11          6           0       -2.254949    1.398040    0.525661
     12          6           0       -0.774317    0.818616    0.396728
     13          6           0        0.215973    1.711537    0.153436
     14         16           0        1.899122    1.531942   -0.311822
     15          1           0        2.361107   -0.094225    2.192739
     16          1           0        2.693677   -1.633267    1.448269
     17          1           0        0.576053   -2.211547    1.527884
     18          1           0       -1.851518   -2.275312    1.094294
     19          1           0       -1.770359   -0.553485   -1.481890
     20          1           0       -4.030075   -1.901199    0.017029
     21          1           0       -4.060009    0.522789   -1.789849
     22          1           0       -4.421529    1.507356    0.599775
     23          1           0       -2.236154    2.405111    0.948068
     24          1           0       -0.027255    2.771160    0.115972
 ---------------------------------------------------------------------
 Rotational constants (GHZ):           1.1867181           0.3278500           0.2934783
 Standard basis: 6-31G(2df,p) (6D, 7F)
 There are   492 symmetry adapted cartesian basis functions of A   symmetry.
 There are   450 symmetry adapted basis functions of A   symmetry.
   450 basis functions,   734 primitive gaussians,   492 cartesian basis functions
    57 alpha electrons       57 beta electrons
       nuclear repulsion energy       998.9438211660 Hartrees.
 NAtoms=   24 NActive=   24 NUniq=   24 SFac= 1.00D+00 NAtFMM=   60 NAOKFM=F Big=F
 Integral buffers will be    131072 words long.
 Raffenetti 2 integral format.
 Two-electron integral symmetry is turned on.
 One-electron integrals computed using PRISM.
 PrsmSu:  requested number of processors reduced to:  12 ShMem   1 Linda.
 NBasis=   450 RedAO= T EigKep=  5.21D-04  NBF=   450
 NBsUse=   450 1.00D-06 EigRej= -1.00D+00 NBFU=   450
 Initial guess from the checkpoint file:  "SdC1CCdC2CdCCdCCdCC2dCS1.chk"
 B after Tr=     0.000000   -0.000000   -0.000000
         Rot=    0.999563   -0.029259    0.000458    0.004226 Ang=  -3.39 deg.
 ExpMin= 1.17D-01 ExpMax= 2.19D+04 ExpMxC= 3.30D+03 IAcc=2 IRadAn=         4 AccDes= 0.00D+00
 Harris functional with IExCor=  402 and IRadAn=       4 diagonalized for initial guess.
 HarFok:  IExCor=  402 AccDes= 0.00D+00 IRadAn=         4 IDoV= 1 UseB2=F ITyADJ=14
 ICtDFT=  3500011 ScaDFX=  1.000000  1.000000  1.000000  1.000000
 FoFCou: FMM=F IPFlag=           0 FMFlag=      100000 FMFlg1=           0
         NFxFlg=           0 DoJE=T BraDBF=F KetDBF=T FulRan=T
         wScrn=  0.000000 ICntrl=       500 IOpCl=  0 I1Cent=   200000004 NGrid=           0
         NMat0=    1 NMatS0=      1 NMatT0=    0 NMatD0=    1 NMtDS0=    0 NMtDT0=    0
 Petite list used in FoFCou.
 Requested convergence on RMS density matrix=1.00D-08 within 128 cycles.
 Requested convergence on MAX density matrix=1.00D-06.
 Requested convergence on             energy=1.00D-06.
 No special actions if energy rises.
 Integral accuracy reduced to 1.0D-05 until final iterations.
 Initial convergence to 1.0D-05 achieved.  Increase integral accuracy.
 SCF Done:  E(RB3LYP) =  -1259.40929433     A.U. after   15 cycles
            NFock= 15  Conv=0.75D-08     -V/T= 2.0052
 PrsmSu:  requested number of processors reduced to:  13 ShMem   1 Linda.
 Calling FoFJK, ICntrl=      2127 FMM=F ISym2X=0 I1Cent= 0 IOpClX= 0 NMat=1 NMatS=1 NMatT=0.
 ***** Axes restored to original set *****
 -------------------------------------------------------------------
 Center     Atomic                   Forces (Hartrees/Bohr)
 Number     Number              X              Y              Z
 -------------------------------------------------------------------
      1       16           0.018498123    0.007128697    0.002884420
      2        6          -0.015943924   -0.005320683   -0.008413281
      3        6           0.004920172   -0.006393823    0.001098910
      4        6          -0.001534924   -0.003977295   -0.006104188
      5        6          -0.000309277    0.004038457    0.002017926
      6        6           0.000698489   -0.001913830   -0.004654236
      7        6          -0.018084488    0.023753158    0.020162540
      8        6           0.026280163   -0.026963946   -0.015943925
      9        6          -0.024094800    0.012990837    0.005538383
     10        6           0.021379181    0.003573421    0.027561889
     11        6          -0.019019430   -0.022128465   -0.012337401
     12        6           0.010633805   -0.001857941    0.017130902
     13        6           0.006472595    0.002044320    0.001187346
     14       16          -0.004477355    0.005155735    0.002992775
     15        1           0.005282565    0.005042636    0.002004051
     16        1           0.002648312    0.004796916    0.000211245
     17        1          -0.004008529    0.004201017    0.006978139
     18        1          -0.000535325   -0.000996534    0.004884101
     19        1          -0.005493841   -0.007032813   -0.002051624
     20        1           0.001966049   -0.004997683   -0.006605192
     21        1          -0.004879214    0.002342016   -0.012240615
     22        1           0.000828936    0.012067075   -0.025284809
     23        1           0.001005001   -0.007208767   -0.001605020
     24        1          -0.002232281    0.001657495    0.000587665
 -------------------------------------------------------------------
 Cartesian Forces:  Max     0.027561889 RMS     0.011054273

 GradGradGradGradGradGradGradGradGradGradGradGradGradGradGradGradGradGrad
 Berny optimization.
 Using GEDIIS/GDIIS optimizer.
 FormGI is forming the generalized inverse of G from B-inverse, IUseBI=4.
 Internal  Forces:  Max     0.034772325 RMS     0.008616190
 Search for a local minimum.
 Step number   2 out of a maximum of  131
 All quantities printed in internal units (Hartrees-Bohrs-Radians)
 Mixed Optimization -- RFO/linear search
 Update second derivatives using D2CorX and points    1    2
 DE= -5.10D-02 DEPred=-5.01D-02 R= 1.02D+00
 TightC=F SS=  1.41D+00  RLast= 4.50D-01 DXNew= 5.0454D-01 1.3487D+00
 Trust test= 1.02D+00 RLast= 4.50D-01 DXMaxT set to 5.05D-01
 ITU=  1  0
 Use linear search instead of GDIIS.
 Linear search step of   0.506 exceeds DXMaxT=   0.505 but not scaled.
 Quartic linear search produced a step of  1.68690.
 Iteration  1 RMS(Cart)=  0.17156563 RMS(Int)=  0.01297882
 Iteration  2 RMS(Cart)=  0.01938856 RMS(Int)=  0.00293691
 Iteration  3 RMS(Cart)=  0.00028385 RMS(Int)=  0.00292942
 Iteration  4 RMS(Cart)=  0.00000172 RMS(Int)=  0.00292942
 Iteration  5 RMS(Cart)=  0.00000001 RMS(Int)=  0.00292942
 Variable       Old X    -DE/DX   Delta X   Delta X   Delta X     New X
                                 (Linear)    (Quad)   (Total)
    R1        3.14687  -0.01918  -0.08560   0.00000  -0.08560   3.06128
    R2        2.85564   0.00598   0.03568   0.00000   0.03403   2.88968
    R3        3.30894  -0.00288  -0.02258   0.00000  -0.02366   3.28528
    R4        2.84995   0.00194   0.01792   0.00000   0.01721   2.86716
    R5        2.07261   0.00194   0.01170   0.00000   0.01170   2.08431
    R6        2.07954  -0.00539  -0.02950   0.00000  -0.02950   2.05004
    R7        2.56455  -0.00245  -0.00661   0.00000  -0.00609   2.55846
    R8        2.05936  -0.00090  -0.00536   0.00000  -0.00536   2.05400
    R9        2.76950   0.00236   0.02308   0.00000   0.02453   2.79403
   R10        2.85078  -0.00950  -0.04237   0.00000  -0.03799   2.81279
   R11        2.55069   0.00317   0.00200   0.00000  -0.00159   2.54910
   R12        2.04566   0.00173   0.00700   0.00000   0.00700   2.05265
   R13        2.71250  -0.00103  -0.01015   0.00000  -0.00893   2.70357
   R14        2.06831  -0.00369  -0.01659   0.00000  -0.01659   2.05172
   R15        2.64352   0.01070   0.09307   0.00000   0.09005   2.73357
   R16        2.06346   0.00367   0.03390   0.00000   0.03390   2.09737
   R17        2.80728   0.00393   0.04460   0.00000   0.04532   2.85260
   R18        2.07177   0.00115   0.01793   0.00000   0.01793   2.08970
   R19        2.58685  -0.01154  -0.06729   0.00000  -0.06776   2.51909
   R20        2.07897  -0.00462  -0.01366   0.00000  -0.01366   2.06531
   R21        3.01447  -0.03477  -0.19306   0.00000  -0.19302   2.82145
   R22        2.06402  -0.00225  -0.01852   0.00000  -0.01852   2.04550
   R23        2.56138  -0.00283  -0.02034   0.00000  -0.01904   2.54234
   R24        3.31738  -0.00616  -0.03247   0.00000  -0.03173   3.28565
   R25        2.05569   0.00011   0.00089   0.00000   0.00089   2.05659
    A1        2.11413   0.00830   0.04321   0.00000   0.04439   2.15852
    A2        2.10691  -0.01094  -0.06808   0.00000  -0.06661   2.04030
    A3        2.05298   0.00276   0.02687   0.00000   0.02399   2.07697
    A4        1.91947   0.00740   0.03630   0.00000   0.03748   1.95695
    A5        1.93536  -0.00230  -0.00474   0.00000  -0.00506   1.93030
    A6        1.86935  -0.00275  -0.02031   0.00000  -0.02023   1.84912
    A7        2.04290  -0.00468  -0.03224   0.00000  -0.03334   2.00956
    A8        1.85474  -0.00100   0.00042   0.00000   0.00134   1.85608
    A9        1.83038   0.00311   0.01924   0.00000   0.01923   1.84960
   A10        2.33817  -0.00429  -0.02317   0.00000  -0.02262   2.31555
   A11        1.91427   0.00866   0.06255   0.00000   0.06254   1.97680
   A12        2.01482  -0.00416  -0.03688   0.00000  -0.03736   1.97746
   A13        2.01190   0.01602   0.07065   0.00000   0.06521   2.07711
   A14        2.24764  -0.01012  -0.06445   0.00000  -0.06659   2.18105
   A15        2.02347  -0.00599  -0.00634   0.00000  -0.00112   2.02235
   A16        2.00752   0.00278   0.02804   0.00000   0.03151   2.03902
   A17        2.06184   0.00033  -0.00517   0.00000  -0.00880   2.05303
   A18        2.17795  -0.00472  -0.04031   0.00000  -0.04448   2.13347
   A19        2.07609  -0.01262  -0.10365   0.00000  -0.10976   1.96633
   A20        2.06464   0.00377   0.02437   0.00000   0.02551   2.09015
   A21        1.94988   0.00631   0.04895   0.00000   0.05042   2.00030
   A22        1.86363   0.00124   0.02271   0.00000   0.01216   1.87579
   A23        1.96966   0.00741   0.05063   0.00000   0.05154   2.02120
   A24        2.00752   0.00317   0.02347   0.00000   0.02162   2.02914
   A25        2.11174  -0.00645  -0.02679   0.00000  -0.02773   2.08401
   A26        2.03553   0.00034   0.01518   0.00000   0.01324   2.04877
   A27        1.94603   0.00517   0.01670   0.00000   0.01788   1.96391
   A28        2.26255  -0.01238  -0.08698   0.00000  -0.09241   2.17015
   A29        1.85121   0.03248   0.24468   0.00000   0.24563   2.09684
   A30        2.14157  -0.02048  -0.15972   0.00000  -0.15516   1.98640
   A31        2.39542   0.01505   0.08359   0.00000   0.07820   2.47362
[...]
 54257,0.00068870,-0.00325090,-0.02256762,-0.01339973,-0.04476520,-0.21
 058789,-0.12667455,0.00243758,0.01000853,0.00882050,-0.00013395,-0.000
 61598,0.00181895,0.00049411,0.00004046,0.00023383,-0.00010978,-0.00009
 935,0.00005422,-0.00003053,-0.00003287,-0.00008355,0.00010509,0.000114
 93,0.00008582,-0.00013456,-0.00000015,0.00003441,0.00011306,0.00003883
 ,-0.00013956,-0.00008548,0.00006523,0.00030160,0.00105680,0.00019456,0
 .00064310,0.00167447,-0.00288020,-0.00055086,-0.00118974,-0.00737522,-
 0.00553784,0.04495235,0.23028099,-0.00003903,0.00128263,0.00015972,0.0
 0023930,0.00481452,0.00280534,-0.02953997,-0.12637852,-0.14188812,-0.0
 0743784,-0.02486693,-0.02022752,0.00191519,0.00275902,-0.00395979,-0.0
 0125463,-0.00007688,-0.00027449,0.00024365,0.00026110,-0.00027995,0.00
 012325,0.00004107,0.00020036,-0.00026355,-0.00025561,-0.00020159,0.000
 16879,0.00001180,-0.00002658,-0.00006947,-0.00004022,0.00009695,0.0005
 1985,0.00016707,-0.00012566,-0.00066675,-0.00003890,-0.00017343,-0.000
 61835,0.00129795,0.00085504,0.00107641,0.00676030,0.00504704,0.0360566
 6,0.13400101,0.15658835,-0.00042360,-0.00016432,0.00025484,0.00046230,
 -0.00129837,0.00007972,0.00351631,0.00049143,-0.00161473,-0.11932273,-
 0.12831975,0.02884442,-0.00164847,-0.01291283,0.00296349,-0.00391348,0
 .00396148,0.00216825,0.00034252,-0.00009774,0.00063887,-0.00015808,0.0
 0026933,-0.00003785,0.00011429,-0.00016054,0.00016657,0.00005561,0.000
 12582,-0.00043787,0.00049662,0.00094188,0.00034628,0.00777139,-0.00565
 460,-0.00200849,-0.00262510,-0.00033114,-0.00005929,0.00166685,0.00035
 495,-0.00008018,-0.00022722,-0.00060732,0.00018302,0.00025721,0.000125
 26,-0.00015720,0.11434069,0.00064640,0.00001570,0.00001885,-0.00062068
 ,0.00099604,-0.00017694,-0.00529178,-0.00264710,-0.00017663,-0.1266377
 7,-0.24028864,0.05246385,-0.01042474,-0.01077404,0.00625060,0.00399994
 ,-0.00071156,-0.00050941,-0.00074705,-0.00015911,-0.00070549,0.0002333
 1,-0.00027066,-0.00008358,0.00026690,0.00045619,0.00017682,-0.00056475
 ,-0.00011491,0.00050758,-0.00010770,-0.00134830,-0.00027898,-0.0061049
 7,0.00370653,-0.00182313,0.00119697,0.00057320,-0.00013634,-0.00074581
 ,-0.00024531,0.00023587,0.00091537,0.00063631,0.00058916,0.00055566,0.
 00088098,0.00021469,0.14321279,0.24985692,-0.00063337,0.00006472,0.000
 08677,0.00253729,-0.00160083,-0.00096224,0.01386776,0.02292465,-0.0077
 3570,0.03167040,0.05630001,-0.06553237,-0.01336664,-0.02189080,0.00504
 820,0.00121001,-0.00003155,0.00154521,-0.00045517,-0.00063944,-0.00024
 775,0.00006049,0.00002688,-0.00034988,0.00035460,0.00019923,0.00034902
 ,-0.00049518,0.00002907,0.00019781,0.00015885,-0.00099847,0.00037664,-
 0.00281340,-0.00041380,-0.00286821,-0.00027507,-0.00024219,-0.00021237
 ,-0.00029339,0.00058518,0.00038758,-0.00015373,0.00213273,-0.00407527,
 0.00008130,-0.00029113,0.00147922,-0.03121188,-0.05592792,0.07259957,-
 0.00009095,-0.00010845,-0.00009110,-0.00002572,0.00030359,0.00027666,0
 .00043181,-0.00078941,-0.00005212,0.00069714,-0.00086223,-0.00173094,-
 0.00056164,0.00196385,0.00551279,-0.17212660,0.14399279,-0.04846115,-0
 .00775606,0.00949382,-0.00003209,-0.00129515,-0.00453139,0.00136240,0.
 00196238,0.00205079,0.00110651,-0.00118903,-0.00006267,0.00082800,-0.0
 0038722,-0.00071282,-0.00060669,-0.00141777,0.00071206,0.00050979,0.00
 010204,0.00035563,-0.00027100,0.00013920,-0.00017365,0.00003006,0.0000
 0443,0.00006093,-0.00001292,-0.00001282,0.00004456,-0.00014730,-0.0003
 4867,-0.00002088,-0.00026439,0.17537209,0.00005908,-0.00010153,-0.0000
 1167,-0.00030642,0.00045619,0.00009188,0.00034871,-0.00067864,0.000483
 51,-0.00078445,-0.00136530,-0.00241151,0.00408976,-0.00058158,0.007463
 05,0.13397828,-0.16511104,0.02911847,0.01401203,-0.01131616,0.00651822
 ,0.00139098,-0.00162291,0.00214933,0.00155467,0.00276400,0.00168152,-0
 .00121740,0.00006994,0.00059134,-0.00016851,-0.00026215,-0.00029539,-0
 .00032167,0.00086938,0.00096908,-0.00018540,0.00003185,-0.00009303,0.0
 0001852,-0.00008538,-0.00002025,0.00003357,0.00006155,0.00004871,-0.00
 004117,0.00000040,-0.00003347,0.00007862,-0.00026067,-0.00011361,-0.15
 558244,0.17713980,-0.00017413,0.00006466,-0.00008134,0.00052013,-0.000
 43716,0.00028408,0.00088876,-0.00086911,-0.00065213,0.00164259,0.00188
 450,0.00070814,-0.02158711,0.01740129,-0.01020820,-0.04417020,0.042252
 02,-0.06138282,0.01851441,-0.01698513,0.00620982,0.00174886,-0.0008539
 3,0.00007119,-0.00029102,-0.00060212,-0.00046946,0.00015197,0.00004485
 ,-0.00016477,0.00000037,0.00016413,0.00010481,-0.00041955,0.00037211,-
 0.00173957,0.00061949,-0.00012475,0.00020453,-0.00011163,0.00009403,-0
 .00010238,-0.00003748,0.00002365,-0.00028769,0.00007717,0.00011010,-0.
 00040179,-0.00116366,0.00030505,0.00002314,0.04507378,-0.03942182,0.06
 977033,-0.00015553,-0.00005292,-0.00008275,0.00016689,0.00007569,0.000
 09888,0.00011864,-0.00007711,-0.00010451,-0.00024603,0.00003542,-0.000
 25384,-0.00154109,-0.00097947,0.00013041,0.00026362,-0.00231503,-0.003
 11439,-0.17044050,0.13140971,-0.04277964,-0.01454509,0.01332304,-0.005
 33997,-0.00090971,0.00195935,-0.00084733,0.00065219,0.00006004,-0.0002
 5878,-0.00043732,0.00011406,0.00008246,-0.00002070,-0.00005914,-0.0001
 1443,0.00031309,0.00000813,-0.00020358,0.00010874,-0.00013335,0.000174
 43,0.00000915,0.00005055,-0.00001916,-0.00000560,-0.00000013,-0.000035
 20,-0.00003551,0.00011457,0.00003497,0.00538508,0.00388389,-0.00062544
 ,0.18325378,-0.00005350,-0.00000664,-0.00000658,0.00004253,-0.00006300
 ,0.00002688,0.00026485,-0.00029739,-0.00002783,-0.00046716,0.00017305,
 -0.00097718,-0.00269825,-0.00055369,0.00140991,0.01682063,-0.01733384,
 0.00621805,0.13815949,-0.18737654,0.04071331,-0.00722026,0.00372852,-0
 .00268445,-0.00269933,0.00197042,-0.00041294,-0.00036490,-0.00000578,-
 0.00033010,0.00015537,0.00008666,0.00010929,0.00012473,-0.00001328,0.0
 0049657,-0.00019418,0.00025190,-0.00005277,0.00000589,0.00002401,-0.00
 000603,0.00002387,0.00004563,-0.00004733,0.00001393,0.00002407,-0.0000
 5646,-0.00007150,0.00008917,0.00001530,0.00497713,0.00110304,-0.003830
 88,-0.14482183,0.19893347,0.00018853,0.00004188,0.00010668,-0.00022628
 ,-0.00008197,-0.00019792,-0.00027249,0.00017432,0.00010160,0.00000627,
 -0.00026115,0.00047078,0.00257238,0.00001265,0.00058491,0.01424947,-0.
 01340569,0.00754841,-0.05609341,0.04278850,-0.06280190,-0.01433104,0.0
 1648662,-0.00409205,0.00211166,-0.00069155,-0.00213241,0.00077198,0.00
 029855,0.00108179,0.00007778,-0.00031465,0.00005613,0.00014372,-0.0001
 7579,-0.00030625,0.00001202,0.00006759,-0.00013154,-0.00007432,0.00015
 591,-0.00000184,0.00001212,-0.00003401,0.00009277,-0.00001870,-0.00002
 103,0.00007780,0.00012536,-0.00019126,-0.00003057,-0.00231010,-0.00532
 816,-0.00198686,0.05641461,-0.03757073,0.05863403,-0.00006691,-0.00001
 289,-0.00004280,0.00008447,0.00003869,0.00005166,-0.00000164,0.0000687
 7,0.00000460,-0.00000635,-0.00002035,0.00013907,0.00095995,0.00015870,
 0.00045554,-0.00043177,-0.00052753,0.00215263,-0.01939342,0.01982746,-
 0.00358894,-0.19167745,0.13417691,-0.04125063,0.00934314,-0.00849435,0
 .00261099,0.00200161,-0.00060347,0.00091001,-0.00030537,-0.00043413,-0
 .00005993,-0.00001506,-0.00008718,-0.00019612,0.00007071,0.00001770,0.
 00004352,0.00001370,-0.00003945,0.00001821,-0.00000849,0.00000205,-0.0
 0001549,-0.00000220,-0.00000464,-0.00000003,0.00002130,0.00001200,0.00
 001359,0.00094934,-0.00091743,-0.00048387,-0.00181109,-0.00090233,-0.0
 0401768,0.20061581,0.00001423,-0.00000838,0.00000665,-0.00003369,0.000
 02345,-0.00000989,0.00003394,0.00001540,0.00002292,0.00001918,-0.00010
 461,0.00003249,-0.00015969,-0.00007142,0.00002329,-0.00151447,0.001403
 18,-0.00039359,-0.00920145,0.00683385,-0.00300526,0.13224329,-0.181149
 60,0.03327281,0.02226515,-0.01955313,0.00467984,-0.00049979,-0.0005716
 7,-0.00242096,0.00006355,0.00065799,-0.00012607,0.00024920,0.00017992,
 0.00018084,-0.00012446,-0.00004241,0.00005491,-0.00005173,-0.00000375,
 -0.00007142,-0.00001012,-0.00001410,-0.00001228,0.00000518,-0.00000059
 ,0.00000689,0.00000379,-0.00000807,-0.00002243,-0.00016646,-0.00004278
 ,-0.00020976,-0.00174480,-0.00055865,-0.00133504,-0.13990162,0.1962256
 1,0.00009817,0.00004296,0.00006278,-0.00011814,-0.00011780,-0.00008417
 ,-0.00003236,-0.00003125,-0.00000492,0.00001413,0.00018041,-0.00015758
 ,-0.00039731,-0.00050765,-0.00015025,-0.00163520,0.00321862,-0.0007443
 0,-0.00743940,0.00323970,-0.00250672,-0.02660955,0.02930692,-0.0447893
 0,-0.00314733,-0.00420865,-0.00144839,-0.00258104,0.00192400,-0.002373
 87,0.00021888,0.00045340,0.00021949,-0.00018361,-0.00011959,0.00011344
 ,-0.00017660,0.00022225,-0.00004755,0.00006854,0.00006604,0.00001881,0
 .00001211,0.00000301,-0.00000092,0.00000408,0.00000941,-0.00000633,0.0
 0001309,0.00000555,0.00001696,-0.00036132,-0.00039193,-0.00023573,-0.0
 0359479,-0.00263510,0.00227132,0.04344841,-0.03556405,0.04130091,0.000
 06948,-0.00000114,0.00002201,-0.00005569,0.00003361,0.00003355,-0.0000
 0102,-0.00004684,0.00001436,0.00001942,0.00000120,0.00003067,-0.000255
 76,0.00043596,-0.00100531,0.00139284,0.00043548,0.00061931,0.00084236,
 -0.00289495,-0.00065686,0.00818724,-0.00592790,0.00211884,-0.19137746,
 0.13953182,-0.03826695,-0.01801637,0.01305546,-0.00523029,-0.00001566,
 -0.00082931,-0.00154426,-0.00019646,0.00042129,-0.00051028,0.00019941,
 -0.00017350,-0.00001524,-0.00002491,0.00006027,0.00004502,-0.00000427,
 -0.00000886,0.00002009,0.00000088,-0.00000509,0.00001419,-0.00000928,-
 0.00003481,0.00001781,0.00011905,0.00002786,-0.00022307,-0.00002507,-0
 .00098572,0.00047755,-0.00040392,-0.00107076,0.00300447,0.20160050,0.0
 0008667,-0.00003801,0.00003026,-0.00014661,0.00012590,-0.00000842,-0.0
 0008353,-0.00001018,0.00011032,-0.00003598,-0.00024460,0.00026899,-0.0
 0004212,0.00080548,-0.00217895,0.00248192,0.00274653,0.00132418,0.0025
 2525,-0.00148761,0.00033282,0.02154046,-0.01766684,0.00578830,0.121934
 06,-0.15533176,0.04792657,-0.00157253,0.00337785,-0.00240318,0.0011717
 4,0.00073203,-0.00002766,-0.00073393,0.00008870,0.00026669,-0.00042372
 ,-0.00003810,-0.00018443,-0.00008329,0.00002195,-0.00015167,0.00001726
 ,-0.00001897,0.00005759,0.00000123,-0.00001558,0.00004161,0.00000978,-
 0.00014474,-0.00005765,-0.00059317,-0.00048299,0.00027352,-0.00104232,
 -0.00013378,-0.00059067,-0.00244943,-0.00289550,0.00494306,-0.14160257
 ,0.17258657,0.00009413,-0.00006251,0.00001415,-0.00011519,0.00022787,0
 .00002960,-0.00011890,0.00006988,0.00009396,-0.00005865,-0.00034806,0.
 00050777,-0.00024610,0.00100075,-0.00246759,0.00300552,0.00243777,0.00
 196473,0.00032324,-0.00243413,-0.00271774,-0.01190578,0.01210157,-0.00
 633523,-0.04630621,0.05234233,-0.05045820,0.01531541,-0.01092055,0.000
 38651,0.00186290,0.00063880,-0.00046961,0.00032861,-0.00061017,0.00051
 422,-0.00057584,-0.00010987,-0.00023813,-0.00029192,0.00006133,-0.0001
 6873,0.00000081,-0.00004056,0.00008808,-0.00000394,-0.00002529,0.00006
 697,0.00003857,-0.00019868,-0.00009553,-0.00017765,-0.00081355,0.00018
 742,0.00030242,-0.00047062,0.00098412,0.00035582,0.00428686,0.00799068
 ,0.03777794,-0.05670045,0.05088950,-0.00005325,0.00003578,-0.00002150,
 0.00013962,-0.00007576,0.00001154,0.00000981,-0.00003348,-0.00003319,0
 .00001117,0.00010830,-0.00019407,0.00004061,-0.00053264,0.00087145,-0.
 00101420,-0.00090869,-0.00093131,0.00082717,0.00043529,0.00005416,-0.0
 0135259,0.00131284,0.00190267,-0.01292174,-0.00203092,0.00000188,-0.30
 468341,-0.05758950,-0.05773486,-0.00578428,-0.00072653,0.00101443,0.00
 169793,-0.00120926,-0.00025245,0.00013521,0.00019167,-0.00002248,0.000
 01515,0.00004557,0.00020723,-0.00000033,0.00002839,-0.00002677,-0.0000
 0460,0.00000987,-0.00003201,-0.00000596,0.00006110,0.00002323,0.000122
 72,0.00012332,-0.00007372,-0.00002034,-0.00004122,0.00019063,0.0000360
 1,-0.00042187,-0.00061254,-0.00235276,-0.00099790,0.00058730,0.3240048
 6,-0.00009626,-0.00016952,-0.00010281,0.00003225,0.00033370,0.00020464
 ,0.00003197,-0.00005627,0.00005531,0.00007154,-0.00002017,0.00002966,0
 .00165813,0.00157065,-0.00122449,0.00259481,0.00071731,0.00081896,0.00
 010287,0.00056456,0.00066025,0.00087029,0.00036269,0.00098420,0.002142
 00,0.00543825,0.00090098,-0.05386053,-0.04776758,-0.01603746,-0.012242
 55,0.00026770,-0.00459865,-0.00135801,0.01027030,-0.00479578,-0.002167
 77,-0.00066948,-0.00103085,-0.00047129,0.00031258,-0.00056288,0.000002
 45,0.00000234,0.00003805,-0.00000218,-0.00002193,0.00001619,-0.0000641
 5,-0.00002896,0.00008436,-0.00025056,-0.00034711,0.00006416,0.00010405
 ,-0.00005838,0.00001000,0.00005503,-0.00021793,0.00045275,0.00052374,-
 0.00142900,-0.00123669,0.06109094,0.03773157,-0.00008202,-0.00003701,-
 0.00005747,0.00020504,0.00015070,0.00005997,-0.00013755,0.00005714,0.0
 0000935,-0.00008534,-0.00024716,0.00029458,-0.00138814,-0.00051456,-0.
 00044121,-0.00033740,0.00112626,0.00040541,-0.00049226,-0.00119016,-0.
 00097353,0.00094862,-0.00015757,-0.00145940,0.01966775,0.00090638,0.00
 520499,-0.04805177,-0.01462119,-0.05869589,-0.02884888,-0.00788101,-0.
 00661623,0.00197481,-0.00392212,-0.00132202,-0.00001298,-0.00033830,0.
 00020048,-0.00026096,0.00007270,0.00015349,-0.00000178,0.00000730,0.00
 005761,-0.00000728,-0.00002073,0.00001852,0.00003524,-0.00009819,-0.00
 013507,0.00000171,-0.00002772,0.00012051,0.00000534,0.00011112,-0.0002
 8568,-0.00054866,0.00055491,0.00031559,0.00270557,0.00077472,-0.000541
 29,0.05538057,0.02285986,0.06381240,-0.00054219,-0.00032117,-0.0002284
 4,0.00042861,0.00088733,0.00002990,-0.00013767,-0.00017876,0.00017236,
 -0.00031763,-0.00078311,-0.00025976,-0.00126135,0.00218086,-0.00147137
 ,0.00045808,0.00044664,0.00014558,-0.00035766,-0.00005516,0.00000905,0
 .00042381,-0.00010101,-0.00046128,0.00140295,-0.00157673,-0.00007875,0
 .00474188,-0.00268329,-0.00633076,-0.20154248,0.01475109,0.13939041,-0
 .02228031,-0.00096671,0.01301533,0.00096326,-0.00205789,-0.00014183,-0
 .00006165,-0.00079091,-0.00093060,0.00003521,0.00011555,-0.00003125,-0
 .00000566,-0.00000074,-0.00003770,0.00004844,-0.00014318,-0.00015500,-
 0.00002464,-0.00008714,0.00012018,0.00002896,-0.00004365,-0.00004948,0
 .00002757,-0.00001143,0.00002783,0.00030081,-0.00001569,-0.00044098,0.
 00115533,0.00128816,-0.00079613,0.21686155,-0.00015006,-0.00016416,-0.
 00009342,0.00000574,0.00040653,0.00009692,0.00007488,-0.00007357,0.000
 09627,-0.00014072,-0.00058643,-0.00024924,0.00073514,0.00027615,-0.000
 76421,0.00051958,-0.00032339,0.00029350,0.00007496,0.00135464,0.000771
 57,0.00007475,0.00022059,0.00000501,-0.00326634,0.00798877,-0.00421642
 ,0.00694849,0.00380759,-0.01389694,0.01250817,-0.03614793,-0.01304816,
 -0.00681581,0.00375355,0.00320847,0.00018288,0.00018537,0.00136117,-0.
 00010389,-0.00033706,-0.00042880,-0.00001287,0.00006469,-0.00004578,0.
 00001825,-0.00000868,0.00000003,-0.00010856,-0.00000627,-0.00005712,-0
 .00010572,-0.00015771,0.00007717,0.00005189,-0.00003566,-0.00000765,0.
 00001952,-0.00006977,-0.00051877,-0.00094907,-0.00045997,0.00095522,0.
 00108410,-0.00672838,0.00244814,-0.01064877,0.02699244,-0.00032600,-0.
 00020866,-0.00014335,0.00012462,0.00065303,0.00004870,-0.00001640,-0.0
 0001111,0.00016721,-0.00005844,-0.00034246,-0.00011212,-0.00031819,0.0
 0090912,-0.00025649,0.00056070,0.00024972,0.00050717,-0.00154260,-0.00
 053156,0.00066926,-0.00017173,-0.00279113,-0.00226175,0.00034430,-0.00
 149960,-0.00353454,0.02293540,-0.00332710,-0.01789162,0.13214663,-0.01
 805112,-0.16539964,-0.01137571,0.00005027,0.00753872,-0.00130737,-0.00
 045844,-0.00008868,0.00039094,-0.00068130,-0.00027581,-0.00001067,0.00
 002880,-0.00002628,0.00002272,-0.00001542,0.00001229,-0.00000554,-0.00
 001903,-0.00006323,-0.00006587,-0.00009325,0.00003548,0.00009292,-0.00
 002698,-0.00002269,0.00003024,0.00004905,0.00024027,0.00048261,0.00006
 664,-0.00016955,-0.00023032,0.00246532,0.00001759,-0.14182494,0.023537
 22,0.18107200,-0.00078146,-0.00158042,-0.00183868,-0.00341858,0.003938
 49,0.00208641,0.00045025,0.00027023,0.00002566,-0.00060144,-0.00029532
 ,0.00007091,0.00153862,-0.00152588,-0.00503482,0.00066473,0.00043257,-
 0.00087527,0.00025587,0.00076485,-0.00040614,-0.00002952,0.00015453,0.
 00008401,-0.00017241,-0.00005449,0.00028111,0.00057034,0.00026795,-0.0
 0024123,-0.00113403,0.00224385,0.00161273,0.00902359,0.00970661,-0.002
 42837,-0.12051094,-0.13193334,0.01342307,-0.01078662,-0.01780921,-0.00
 475463,0.00020446,-0.00013026,-0.00004712,-0.00001124,0.00002202,-0.00
 005828,-0.00037541,0.00022911,0.00008693,-0.00004900,0.00001277,0.0000
 0314,-0.00010658,-0.00002459,0.00003946,0.00000006,0.00001481,-0.00002
 052,0.00000665,0.00005444,0.00024850,-0.00000213,-0.00005491,0.0001265
 1,-0.00034522,0.00000344,0.00012269,0.12561000,0.00043356,0.00009425,0
 .00067158,0.00056684,-0.00046796,-0.00115245,-0.00011854,0.00000865,0.
 00011917,0.00046970,0.00052414,0.00008170,0.00070435,0.00155506,0.0050
 2016,-0.00041236,-0.00065424,0.00096801,-0.00040806,-0.00096795,0.0001
 0809,0.00001752,0.00010232,-0.00042452,0.00036506,0.00015163,0.0002923
 8,-0.00021093,0.00028558,0.00016211,0.00001338,-0.00048659,-0.00259722
 ,-0.01437714,-0.01610668,0.00153696,-0.12322109,-0.25282825,0.03309607
 ,0.00006547,0.00429123,0.00098881,-0.00029011,-0.00008425,-0.00004437,
 -0.00000462,0.00001454,0.00007113,0.00021569,-0.00020270,-0.00007518,0
 .00000468,-0.00008021,0.00020344,0.00003570,0.00000669,-0.00002667,0.0
 0001799,-0.00002706,0.00002673,0.00000383,-0.00008737,-0.00015128,0.00
 004062,-0.00005693,-0.00001350,0.00079571,0.00004867,0.00004798,0.1352
 9275,0.26496744,0.00007141,-0.00119916,-0.00102158,-0.00538955,0.00124
 324,-0.00063422,-0.00031055,-0.00012812,0.00047435,0.00111558,0.001173
 79,-0.00170296,-0.00471969,0.00508443,0.00560547,-0.00028150,-0.000655
 04,0.00036163,0.00025380,-0.00015185,0.00025036,-0.00003332,-0.0001287
 9,0.00026800,-0.00032899,-0.00018945,-0.00049587,-0.00045781,-0.000329
 01,-0.00039520,0.00270347,-0.00099803,-0.00274197,0.00730573,0.0189813
 6,-0.00109206,0.01094609,0.02715734,-0.03936635,-0.00913301,-0.0108408
 8,-0.00104967,-0.00033330,-0.00012004,0.00016573,-0.00002742,-0.000041
 94,0.00015765,0.00091896,-0.00044243,0.00019805,-0.00011704,-0.0000597
 3,-0.00000672,0.00003737,0.00003557,-0.00002063,-0.00003014,-0.0000007
 2,-0.00000024,0.00006825,0.00009781,-0.00005612,-0.00007988,-0.0000550
 5,-0.00014269,0.00032763,0.00047582,-0.00006294,-0.00250608,-0.0389091
 4,0.04130798\\-0.00002606,-0.00001640,-0.00002413,0.00006670,0.0000413
 3,0.00006531,-0.00002321,0.00003865,-0.00003687,-0.00000140,-0.0000543
 0,0.00003284,-0.00000402,0.00001051,0.00001218,0.00003200,-0.00003423,
 -0.00004326,0.00002628,0.00005050,0.00008801,-0.00004672,-0.00003348,-
 0.00006052,-0.00000914,0.00008323,0.00003145,-0.00000876,-0.00006261,0
 .00000946,0.00000605,-0.00006350,-0.00001321,0.00004014,0.00011104,-0.
 00003423,-0.00008585,-0.00003321,-0.00003074,0.00001878,-0.00003423,-0
 .00000148,0.00000171,-0.00001388,0.00000965,0.00000167,-0.00000014,-0.
 00000874,0.00000440,0.00000747,-0.00000345,-0.00001306,-0.00001049,-0.
 00000103,-0.00000280,-0.00001031,-0.00000115,0.00000022,0.00000091,-0.
 00000285,-0.00000505,-0.00000416,0.00000431,0.00000635,0.00001161,-0.0
 0000576,0.00000548,0.00001075,-0.00000217,0.00001630,0.00000497,0.0000
 1639\\\@


            THE IRISH PIG
 'TWAS AN EVENING IN NOVEMBER,
 AS I VERY WELL REMEMBER
 I WAS STROLLING DOWN THE STREET IN DRUNKEN PRIDE,
 BUT MY KNEES WERE ALL A'FLUTTER
 SO I LANDED IN THE GUTTER,
 AND A PIG CAME UP AND LAY DOWN BY MY SIDE.

 YES, I LAY THERE IN THE GUTTER
 THINKING THOUGHTS I COULD NOT UTTER
 WHEN A COLLEEN PASSING BY DID SOFTLY SAY,
 'YE CAN TELL A MAN THAT BOOZES
 BY THE COMPANY THAT HE CHOOSES.' -
 AT THAT, THE PIG GOT UP AND WALKED AWAY!
     -- THE ECONOMIST, AUGUST 23, 1986
 Job cpu time:       0 days  6 hours 39 minutes 55.5 seconds.
 Elapsed time:       0 days  1 hours 40 minutes 23.0 seconds.
 File lengths (MBytes):  RWF=    392 Int=      0 D2E=      0 Chk=     17 Scr=      1
 Normal termination of Gaussian 16 at Thu May 18 09:52:06 2023.
### All Done ###
