### Starting Gaussian ###
 Entering Gaussian System, Link 0=g16
 Initial command:
 /cluster/software/gaussian/gaussian-16-A.03/avx2/g16/l1.exe "/local/scratch/ks29c/Gau-2749.inp" -scrdir="/local/scratch/ks29c/"
 Entering Link 1 = /cluster/software/gaussian/gaussian-16-A.03/avx2/g16/l1.exe PID=      2750.
  
 Copyright (c) 1988,1990,1992,1993,1995,1998,2003,2009,2016,
            Gaussian, Inc.  All Rights Reserved.
  
 This is part of the Gaussian(R) 16 program.  It is based on
 the Gaussian(R) 09 system (copyright 2009, Gaussian, Inc.),
 the Gaussian(R) 03 system (copyright 2003, Gaussian, Inc.),
 the Gaussian(R) 98 system (copyright 1998, Gaussian, Inc.),
 the Gaussian(R) 94 system (copyright 1995, Gaussian, Inc.),
 the Gaussian 92(TM) system (copyright 1992, Gaussian, Inc.),
 the Gaussian 90(TM) system (copyright 1990, Gaussian, Inc.),
 the Gaussian 88(TM) system (copyright 1988, Gaussian, Inc.),
 the Gaussian 86(TM) system (copyright 1986, Carnegie Mellon
 University), and the Gaussian 82(TM) system (copyright 1983,
 Carnegie Mellon University). Gaussian is a federally registered
 trademark of Gaussian, Inc.
  
 This software contains proprietary and confidential information,
 including trade secrets, belonging to Gaussian, Inc.
  
 This software is provided under written license and may be
 used, copied, transmitted, or stored only in accord with that
 written license.
  
 The following legend is applicable only to US Government
 contracts under FAR:
  
                    RESTRICTED RIGHTS LEGEND
  
 Use, reproduction and disclosure by the US Government is
 subject to restrictions as set forth in subparagraphs (a)
 and (c) of the Commercial Computer Software - Restricted
 Rights clause in FAR 52.227-19.
  
 Gaussian, Inc.
 340 Quinnipiac St., Bldg. 40, Wallingford CT 06492
  
  
 ---------------------------------------------------------------
 Warning -- This program may not be used in any manner that
 competes with the business of Gaussian, Inc. or will provide
 assistance to any competitor of Gaussian, Inc.  The licensee
 of this program is prohibited from giving any competitor of
 Gaussian, Inc. access to this program.  By using this program,
 the user acknowledges that Gaussian, Inc. is engaged in the
 business of creating and licensing software in the field of
 computational chemistry and represents and warrants to the
 licensee that it is not a competitor of Gaussian, Inc. and that
 it will not use this program in any manner prohibited above.
 ---------------------------------------------------------------
  

 Cite this work as:
 Gaussian 16, Revision A.03,
 M. J. Frisch, G. W. Trucks, H. B. Schlegel, G. E. Scuseria, 
 M. A. Robb, J. R. Cheeseman, G. Scalmani, V. Barone, 
 G. A. Petersson, H. Nakatsuji, X. Li, M. Caricato, A. V. Marenich, 
 J. Bloino, B. G. Janesko, R. Gomperts, B. Mennucci, H. P. Hratchian, 
 J. V. Ortiz, A. F. Izmaylov, J. L. Sonnenberg, D. Williams-Young, 
 F. Ding, F. Lipparini, F. Egidi, J. Goings, B. Peng, A. Petrone, 
 T. Henderson, D. Ranasinghe, V. G. Zakrzewski, J. Gao, N. Rega, 
 G. Zheng, W. Liang, M. Hada, M. Ehara, K. Toyota, R. Fukuda, 
 J. Hasegawa, M. Ishida, T. Nakajima, Y. Honda, O. Kitao, H. Nakai, 
 T. Vreven, K. Throssell, J. A. Montgomery, Jr., J. E. Peralta, 
 F. Ogliaro, M. J. Bearpark, J. J. Heyd, E. N. Brothers, K. N. Kudin, 
 V. N. Staroverov, T. A. Keith, R. Kobayashi, J. Normand, 
 K. Raghavachari, A. P. Rendell, J. C. Burant, S. S. Iyengar, 
 J. Tomasi, M. Cossi, J. M. Millam, M. Klene, C. Adamo, R. Cammi, 
 J. W. Ochterski, R. L. Martin, K. Morokuma, O. Farkas, 
 J. B. Foresman, and D. J. Fox, Gaussian, Inc., Wallingford CT, 2016.
 
 ******************************************
 Gaussian 16:  ES64L-G16RevA.03 25-Dec-2016
                17-May-2023 
 ******************************************
 %chk=SdC1CdCCdCC2dCCdCCCN[SH]2S1.chk
 %NProcShared=20
 Will use up to   20 processors via shared memory.
 -----------------------------
 # opt freq b3lyp/6-31g(2df,p)
 -----------------------------
 1/18=20,19=15,26=3,38=1/1,3;
 2/9=110,12=2,17=6,18=5,40=1/2;
 3/5=1,6=6,7=104,11=2,25=1,30=1,71=1,74=-5/1,2,3;
 4//1;
 5/5=2,38=5/2;
 6/7=2,8=2,9=2,10=2,28=1/1;
 7//1,2,3,16;
 1/18=20,19=15,26=3/3(2);
 2/9=110/2;
 99//99;
 2/9=110/2;
 3/5=1,6=6,7=104,11=2,25=1,30=1,71=1,74=-5/1,2,3;
 4/5=5,16=3,69=1/1;
 5/5=2,38=5/2;
 7//1,2,3,16;
 1/18=20,19=15,26=3/3(-5);
 2/9=110/2;
 6/7=2,8=2,9=2,10=2,19=2,28=1/1;
 99/9=1/99;
 -------------------
 Title Card Required
 -------------------
 Symbolic Z-matrix:
 Charge =  0 Multiplicity = 1
 S                     2.19722   1.23176  -0.00801 
 C                     3.45148   0.98098  -1.14824 
 C                     3.39994  -0.30511  -1.8161 
 C                     4.59355  -0.89719  -1.60406 
 C                     5.41183  -0.78876  -2.74803 
 C                     6.68702  -0.42485  -2.47642 
 C                     7.29499   0.34839  -3.45315 
 C                     8.5323   -0.02668  -3.85026 
 C                     8.8328   -0.72926  -5.10631 
 C                     9.04006  -0.0608   -6.24146 
 C                     8.64584   1.38398  -6.28918 
 C                     7.11099   1.50833  -6.57642 
 N                     6.01926   1.66108  -5.47548 
 S                     6.42601   1.81837  -3.764 
 S                     4.64633   2.27384  -2.01306 
 H                     2.85589  -0.18059  -2.7343 
 H                     5.11685  -0.75901  -0.65508 
 H                     4.95467  -0.47791  -3.69595 
 H                     7.12664  -0.34802  -1.49923 
 H                     9.05857  -0.6512   -3.12632 
 H                     9.03099  -1.80492  -5.07432 
 H                     9.43119  -0.56909  -7.12657 
 H                     9.27239   1.84736  -7.06471 
 H                     8.92581   1.90891  -5.37151 
 H                     6.83519   0.62167  -7.17696 
 H                     7.01067   2.34108  -7.2815 
 H                     5.48061   0.79627  -5.56125 
 H                     7.2372    2.88925  -3.64652 
 

 GradGradGradGradGradGradGradGradGradGradGradGradGradGradGradGradGradGrad
 Berny optimization.
 Initialization pass.
                           ----------------------------
                           !    Initial Parameters    !
                           ! (Angstroms and Degrees)  !
 --------------------------                            --------------------------
 ! Name  Definition              Value          Derivative Info.                !
 --------------------------------------------------------------------------------
 ! R1    R(1,2)                  1.7135         estimate D2E/DX2                !
 ! R2    R(2,3)                  1.4501         estimate D2E/DX2                !
 ! R3    R(2,15)                 1.9614         estimate D2E/DX2                !
 ! R4    R(3,4)                  1.3492         estimate D2E/DX2                !
 ! R5    R(3,16)                 1.0745         estimate D2E/DX2                !
 ! R6    R(4,5)                  1.4107         estimate D2E/DX2                !
 ! R7    R(4,17)                 1.0925         estimate D2E/DX2                !
 ! R8    R(5,6)                  1.3536         estimate D2E/DX2                !
 ! R9    R(5,18)                 1.0973         estimate D2E/DX2                !
 ! R10   R(6,7)                  1.3862         estimate D2E/DX2                !
 ! R11   R(6,19)                 1.0743         estimate D2E/DX2                !
 ! R12   R(7,8)                  1.3525         estimate D2E/DX2                !
 ! R13   R(7,14)                 1.7357         estimate D2E/DX2                !
 ! R14   R(8,9)                  1.4702         estimate D2E/DX2                !
 ! R15   R(8,20)                 1.0914         estimate D2E/DX2                !
 ! R16   R(9,10)                 1.3336         estimate D2E/DX2                !
 ! R17   R(9,21)                 1.0942         estimate D2E/DX2                !
 ! R18   R(10,11)                1.4984         estimate D2E/DX2                !
 ! R19   R(10,22)                1.0931         estimate D2E/DX2                !
 ! R20   R(11,12)                1.5664         estimate D2E/DX2                !
 ! R21   R(11,23)                1.0994         estimate D2E/DX2                !
 ! R22   R(11,24)                1.0936         estimate D2E/DX2                !
 ! R23   R(12,13)                1.558          estimate D2E/DX2                !
 ! R24   R(12,25)                1.1058         estimate D2E/DX2                !
 ! R25   R(12,26)                1.0958         estimate D2E/DX2                !
 ! R26   R(13,14)                1.7662         estimate D2E/DX2                !
 ! R27   R(13,27)                1.0224         estimate D2E/DX2                !
 ! R28   R(14,28)                1.3486         estimate D2E/DX2                !
 ! A1    A(1,2,3)              114.2212         estimate D2E/DX2                !
 ! A2    A(1,2,15)             130.0039         estimate D2E/DX2                !
 ! A3    A(3,2,15)             113.7777         estimate D2E/DX2                !
 ! A4    A(2,3,4)              106.5823         estimate D2E/DX2                !
 ! A5    A(2,3,16)             107.9859         estimate D2E/DX2                !
 ! A6    A(4,3,16)             129.2794         estimate D2E/DX2                !
 ! A7    A(3,4,5)              110.6099         estimate D2E/DX2                !
 ! A8    A(3,4,17)             120.3176         estimate D2E/DX2                !
 ! A9    A(5,4,17)             114.6358         estimate D2E/DX2                !
 ! A10   A(4,5,6)              113.8533         estimate D2E/DX2                !
 ! A11   A(4,5,18)             118.7264         estimate D2E/DX2                !
 ! A12   A(6,5,18)             119.3167         estimate D2E/DX2                !
 ! A13   A(5,6,7)              114.9455         estimate D2E/DX2                !
 ! A14   A(5,6,19)             125.9626         estimate D2E/DX2                !
 ! A15   A(7,6,19)             114.9331         estimate D2E/DX2                !
 ! A16   A(6,7,8)              116.9634         estimate D2E/DX2                !
 ! A17   A(6,7,14)             112.2738         estimate D2E/DX2                !
 ! A18   A(8,7,14)             129.8132         estimate D2E/DX2                !
 ! A19   A(7,8,9)              124.7735         estimate D2E/DX2                !
 ! A20   A(7,8,20)             113.8953         estimate D2E/DX2                !
 ! A21   A(9,8,20)             101.2264         estimate D2E/DX2                !
 ! A22   A(8,9,10)             121.2951         estimate D2E/DX2                !
 ! A23   A(8,9,21)             118.8032         estimate D2E/DX2                !
 ! A24   A(10,9,21)            119.3071         estimate D2E/DX2                !
 ! A25   A(9,10,11)            118.0056         estimate D2E/DX2                !
 ! A26   A(9,10,22)            120.7841         estimate D2E/DX2                !
 ! A27   A(11,10,22)           121.1144         estimate D2E/DX2                !
 ! A28   A(10,11,12)           109.8879         estimate D2E/DX2                !
 ! A29   A(10,11,23)           106.1964         estimate D2E/DX2                !
 ! A30   A(10,11,24)           111.6381         estimate D2E/DX2                !
 ! A31   A(12,11,23)           113.3027         estimate D2E/DX2                !
 ! A32   A(12,11,24)           111.506          estimate D2E/DX2                !
 ! A33   A(23,11,24)           104.1052         estimate D2E/DX2                !
 ! A34   A(11,12,13)           124.3891         estimate D2E/DX2                !
 ! A35   A(11,12,25)           106.2785         estimate D2E/DX2                !
 ! A36   A(11,12,26)           105.5471         estimate D2E/DX2                !
 ! A37   A(13,12,25)           106.7143         estimate D2E/DX2                !
 ! A38   A(13,12,26)           108.4235         estimate D2E/DX2                !
 ! A39   A(25,12,26)           103.7139         estimate D2E/DX2                !
 ! A40   A(12,13,14)           122.1488         estimate D2E/DX2                !
 ! A41   A(12,13,27)           103.1181         estimate D2E/DX2                !
 ! A42   A(14,13,27)           106.1376         estimate D2E/DX2                !
 ! A43   A(7,14,13)            102.3232         estimate D2E/DX2                !
 ! A44   A(7,14,28)            110.8408         estimate D2E/DX2                !
 ! A45   A(13,14,28)           107.0777         estimate D2E/DX2                !
 ! D1    D(1,2,3,4)           -124.1097         estimate D2E/DX2                !
 ! D2    D(1,2,3,16)            93.5936         estimate D2E/DX2                !
 ! D3    D(15,2,3,4)            70.3141         estimate D2E/DX2                !
 ! D4    D(15,2,3,16)          -71.9826         estimate D2E/DX2                !
 ! D5    D(2,3,4,5)           -101.852          estimate D2E/DX2                !
 ! D6    D(2,3,4,17)            35.5245         estimate D2E/DX2                !
 ! D7    D(16,3,4,5)            29.4303         estimate D2E/DX2                !
 ! D8    D(16,3,4,17)          166.8069         estimate D2E/DX2                !
 ! D9    D(3,4,5,6)            134.9365         estimate D2E/DX2                !
 ! D10   D(3,4,5,18)           -13.5861         estimate D2E/DX2                !
 ! D11   D(17,4,5,6)            -5.0398         estimate D2E/DX2                !
 ! D12   D(17,4,5,18)         -153.5624         estimate D2E/DX2                !
 ! D13   D(4,5,6,7)           -147.3376         estimate D2E/DX2                !
 ! D14   D(4,5,6,19)             8.4323         estimate D2E/DX2                !
 ! D15   D(18,5,6,7)             0.9837         estimate D2E/DX2                !
 ! D16   D(18,5,6,19)          156.7535         estimate D2E/DX2                !
 ! D17   D(5,6,7,8)           -131.653          estimate D2E/DX2                !
 ! D18   D(5,6,7,14)            58.3919         estimate D2E/DX2                !
 ! D19   D(19,6,7,8)            69.8359         estimate D2E/DX2                !
 ! D20   D(19,6,7,14)         -100.1192         estimate D2E/DX2                !
 ! D21   D(6,7,8,9)            103.1408         estimate D2E/DX2                !
 ! D22   D(6,7,8,20)           -21.3901         estimate D2E/DX2                !
 ! D23   D(14,7,8,9)           -88.9888         estimate D2E/DX2                !
 ! D24   D(14,7,8,20)          146.4803         estimate D2E/DX2                !
 ! D25   D(6,7,14,13)         -119.9403         estimate D2E/DX2                !
 ! D26   D(6,7,14,28)          126.181          estimate D2E/DX2                !
 ! D27   D(8,7,14,13)           71.7361         estimate D2E/DX2                !
 ! D28   D(8,7,14,28)          -42.1426         estimate D2E/DX2                !
 ! D29   D(7,8,9,10)            86.4749         estimate D2E/DX2                !
 ! D30   D(7,8,9,21)          -102.4296         estimate D2E/DX2                !
 ! D31   D(20,8,9,10)         -143.691          estimate D2E/DX2                !
 ! D32   D(20,8,9,21)           27.4045         estimate D2E/DX2                !
 ! D33   D(8,9,10,11)          -14.2409         estimate D2E/DX2                !
 ! D34   D(8,9,10,22)          169.2815         estimate D2E/DX2                !
 ! D35   D(21,9,10,11)         174.7076         estimate D2E/DX2                !
 ! D36   D(21,9,10,22)          -1.7701         estimate D2E/DX2                !
 ! D37   D(9,10,11,12)         -81.9589         estimate D2E/DX2                !
 ! D38   D(9,10,11,23)         155.1435         estimate D2E/DX2                !
 ! D39   D(9,10,11,24)          42.2985         estimate D2E/DX2                !
 ! D40   D(22,10,11,12)         94.5065         estimate D2E/DX2                !
 ! D41   D(22,10,11,23)        -28.3911         estimate D2E/DX2                !
 ! D42   D(22,10,11,24)       -141.2361         estimate D2E/DX2                !
 ! D43   D(10,11,12,13)         94.7501         estimate D2E/DX2                !
 ! D44   D(10,11,12,25)        -29.5088         estimate D2E/DX2                !
 ! D45   D(10,11,12,26)       -139.2392         estimate D2E/DX2                !
 ! D46   D(23,11,12,13)       -146.6439         estimate D2E/DX2                !
 ! D47   D(23,11,12,25)         89.0972         estimate D2E/DX2                !
 ! D48   D(23,11,12,26)        -20.6332         estimate D2E/DX2                !
 ! D49   D(24,11,12,13)        -29.5839         estimate D2E/DX2                !
 ! D50   D(24,11,12,25)       -153.8427         estimate D2E/DX2                !
 ! D51   D(24,11,12,26)         96.4268         estimate D2E/DX2                !
 ! D52   D(11,12,13,14)          4.1842         estimate D2E/DX2                !
 ! D53   D(11,12,13,27)       -114.7326         estimate D2E/DX2                !
 ! D54   D(25,12,13,14)        128.2528         estimate D2E/DX2                !
 ! D55   D(25,12,13,27)          9.336          estimate D2E/DX2                !
 ! D56   D(26,12,13,14)       -120.5896         estimate D2E/DX2                !
 ! D57   D(26,12,13,27)        120.4936         estimate D2E/DX2                !
 ! D58   D(12,13,14,7)         -59.4148         estimate D2E/DX2                !
 ! D59   D(12,13,14,28)         57.2054         estimate D2E/DX2                !
 ! D60   D(27,13,14,7)          58.0308         estimate D2E/DX2                !
 ! D61   D(27,13,14,28)        174.651          estimate D2E/DX2                !
 --------------------------------------------------------------------------------
 Trust Radius=3.00D-01 FncErr=1.00D-07 GrdErr=1.00D-06 EigMax=2.50D+02 EigMin=1.00D-04
 Number of steps in this run=    144 maximum allowed number of steps=    168.
 GradGradGradGradGradGradGradGradGradGradGradGradGradGradGradGradGradGrad

                          Input orientation:                          
 ---------------------------------------------------------------------
 Center     Atomic      Atomic             Coordinates (Angstroms)
 Number     Number       Type             X           Y           Z
 ---------------------------------------------------------------------
      1         16           0        2.197220    1.231760   -0.008010
      2          6           0        3.451480    0.980980   -1.148240
      3          6           0        3.399940   -0.305110   -1.816100
      4          6           0        4.593550   -0.897190   -1.604060
      5          6           0        5.411830   -0.788760   -2.748030
      6          6           0        6.687020   -0.424850   -2.476420
      7          6           0        7.294990    0.348390   -3.453150
      8          6           0        8.532300   -0.026680   -3.850260
      9          6           0        8.832800   -0.729260   -5.106310
     10          6           0        9.040060   -0.060800   -6.241460
     11          6           0        8.645840    1.383980   -6.289180
     12          6           0        7.110990    1.508330   -6.576420
     13          7           0        6.019260    1.661080   -5.475480
     14         16           0        6.426010    1.818370   -3.764000
     15         16           0        4.646330    2.273840   -2.013060
     16          1           0        2.855890   -0.180590   -2.734300
     17          1           0        5.116850   -0.759010   -0.655080
     18          1           0        4.954670   -0.477910   -3.695950
     19          1           0        7.126640   -0.348020   -1.499230
     20          1           0        9.058570   -0.651200   -3.126320
     21          1           0        9.030990   -1.804920   -5.074320
     22          1           0        9.431190   -0.569090   -7.126570
     23          1           0        9.272390    1.847360   -7.064710
     24          1           0        8.925810    1.908910   -5.371510
     25          1           0        6.835190    0.621670   -7.176960
     26          1           0        7.010670    2.341080   -7.281500
     27          1           0        5.480610    0.796270   -5.561250
     28          1           0        7.237200    2.889250   -3.646520
 ---------------------------------------------------------------------
                    Distance matrix (angstroms):
                    1          2          3          4          5
     1  S    0.000000
     2  C    1.713529   0.000000
     3  C    2.660394   1.450076   0.000000
     4  C    3.580810   2.244909   1.349157   0.000000
     5  C    4.682299   3.087763   2.269386   1.410676   0.000000
     6  C    5.384766   3.769501   3.354885   2.316621   1.353629
     7  C    6.215834   4.526074   4.275326   3.502625   2.310107
     8  C    7.515304   5.842176   5.527789   4.617029   3.396029
     9  C    8.594718   6.895639   6.365638   5.501381   4.155486
    10  C    9.346179   7.632720   7.173176   6.478926   5.089011
    11  C    9.003386   7.319361   7.097953   6.601147   5.264918
    12  C    8.207657   6.567743   6.302468   6.070288   4.777064
    13  N    6.684724   5.077503   4.910988   4.854409   3.716137
    14  S    5.686320   4.048611   4.178586   3.923967   2.976220
    15  S    3.332311   1.961394   2.871109   3.197733   3.241248
    16  H    3.140260   2.054156   1.074517   2.193267   2.627335
    17  H    3.592507   2.458501   2.121738   1.092474   2.113844
    18  H    4.911965   3.298298   2.445584   2.163841   1.097349
    19  H    5.386894   3.923804   3.740393   2.594055   2.166639
    20  H    7.768367   6.165734   5.818638   4.723790   3.668888
    21  H    9.032681   7.369279   6.676388   5.705923   4.420693
    22  H   10.307632   8.596515   8.040320   7.349049   5.947699
    23  H   10.011694   8.344952   8.164968   7.696934   6.362922
    24  H    8.631314   6.976056   6.933835   6.390333   5.148604
    25  H    8.560188   6.922721   6.434181   6.195894   4.861141
    26  H    8.792244   7.220428   7.064721   6.968657   5.736248
    27  H    6.465971   4.860673   4.423615   4.394774   3.229746
    28  H    6.433306   4.920831   5.317794   5.049520   4.203215
                    6          7          8          9         10
     6  C    0.000000
     7  C    1.386192   0.000000
     8  C    2.334745   1.352520   0.000000
     9  C    3.407838   2.501825   1.470231   0.000000
    10  C    4.454757   3.314721   2.444754   1.333552   0.000000
    11  C    4.652524   3.307614   2.819784   2.428975   1.498358
    12  C    4.552684   3.336785   3.436325   3.183184   2.509119
    13  N    3.713673   2.727721   3.435876   3.710259   3.560453
    14  S    2.599620   1.735683   2.801447   3.752979   4.062308
    15  S    3.414974   3.577236   4.875291   6.009437   6.529531
    16  H    3.847561   4.527933   5.787114   6.453753   7.110449
    17  H    2.427834   3.714811   4.734003   5.798501   6.861976
    18  H    2.119223   2.493756   3.609274   4.134270   4.831564
    19  H    1.074276   2.081137   2.757985   4.008410   5.121759
    20  H    2.469383   2.053342   1.091364   1.994348   3.170649
    21  H    3.761366   3.206031   2.215661   1.094234   2.098631
    22  H    5.401404   4.347313   3.440410   2.113096   1.093051
    23  H    5.735807   4.381825   3.793738   3.266120   2.091122
    24  H    4.340526   2.962246   2.493103   2.653097   2.156299
    25  H    4.817908   3.762029   3.790445   3.178529   2.490457
    26  H    5.553730   4.325265   4.437911   4.180741   3.311968
    27  H    3.530260   2.817207   3.594099   3.710982   3.723834
    28  H    3.557399   2.548863   3.197099   4.215512   4.322825
                   11         12         13         14         15
    11  C    0.000000
    12  C    1.566440   0.000000
    13  N    2.763660   1.557972   0.000000
    14  S    3.390114   2.911190   1.766168   0.000000
    15  S    5.922257   5.242596   3.774753   2.537815   0.000000
    16  H    6.971985   5.976639   4.573043   4.219227   3.122513
    17  H    6.984931   6.646781   5.468769   4.245253   3.356140
    18  H    4.880186   4.109985   2.979154   2.728071   3.240265
    19  H    5.315206   5.405935   4.590570   3.211434   3.645560
    20  H    3.783647   4.512187   4.483592   3.665485   5.409535
    21  H    3.434139   4.113433   4.609187   4.650924   6.725536
    22  H    2.265498   3.162541   4.397843   5.102739   7.558116
    23  H    1.099424   2.241655   3.625356   4.358601   6.863052
    24  H    1.093642   2.214914   2.918949   2.973430   5.452184
    25  H    2.155858   1.105839   2.154333   3.639755   5.846934
    26  H    2.138813   1.095753   2.169563   3.603867   5.775040
    27  H    3.300601   2.048350   1.022446   2.273450   3.933051
    28  H    3.351680   3.241479   2.517315   1.348560   3.124024
                   16         17         18         19         20
    16  H    0.000000
    17  H    3.125646   0.000000
    18  H    2.327670   3.058138   0.000000
    19  H    4.448903   2.218278   3.091909   0.000000
    20  H    6.232848   4.653580   4.146867   2.543952   0.000000
    21  H    6.800441   5.995340   4.503026   4.304692   2.264185
    22  H    7.916915   7.780089   5.640629   6.084963   4.018406
    23  H    8.002281   8.071247   5.949633   6.355982   4.668987
    24  H    6.940088   6.623495   4.926902   4.829627   3.407736
    25  H    6.017946   6.884322   4.106442   5.767310   4.792839
    26  H    6.655678   7.556888   5.003000   6.378037   5.514812
    27  H    3.979329   5.159624   2.319373   4.529771   4.563535
    28  H    5.426964   5.172465   4.068188   3.886257   4.015319
                   21         22         23         24         25
    21  H    0.000000
    22  H    2.428820   0.000000
    23  H    4.166422   2.422452   0.000000
    24  H    3.727186   3.078332   1.729402   0.000000
    25  H    3.889855   2.856513   2.730359   3.047512   0.000000
    26  H    5.112989   3.788405   2.325110   2.739086   1.731500
    27  H    4.428147   4.463353   4.212218   3.625379   2.115630
    28  H    5.224129   5.374426   4.112366   2.605391   4.215156
                   26         27         28
    26  H    0.000000
    27  H    2.772505   0.000000
    28  H    3.683054   3.336520   0.000000
 Stoichiometry    C11H13NS3
 Framework group  C1[X(C11H13NS3)]
 Deg. of freedom    78
 Full point group                 C1      NOp   1
 Largest Abelian subgroup         C1      NOp   1
 Largest concise Abelian subgroup C1      NOp   1
                         Standard orientation:                         
 ---------------------------------------------------------------------
 Center     Atomic      Atomic             Coordinates (Angstroms)
 Number     Number       Type             X           Y           Z
 ---------------------------------------------------------------------
      1         16           0       -4.917930   -0.225278    0.049687
      2          6           0       -3.212822   -0.061413    0.093690
      3          6           0       -2.727216    0.827988    1.130933
      4          6           0       -1.978123    1.765613    0.514537
      5          6           0       -0.604398    1.486352    0.672333
      6          6           0        0.115243    1.617630   -0.466612
      7          6           0        1.188467    0.748122   -0.583552
      8          6           0        2.376931    1.285489   -0.941465
      9          6           0        3.492752    1.542448   -0.019242
     10          6           0        4.389565    0.596852    0.263485
     11          6           0        4.064547   -0.816377   -0.113640
     12          6           0        3.143072   -1.460496    0.977108
     13          7           0        1.587664   -1.505748    0.900084
     14         16           0        0.698819   -0.915315   -0.507287
     15         16           0       -1.816958   -1.188559   -0.698885
     16          1           0       -2.496966    0.234050    1.996270
     17          1           0       -2.257659    2.131069   -0.476322
     18          1           0       -0.300033    0.740253    1.417230
     19          1           0       -0.241275    2.024392   -1.394786
     20          1           0        2.292186    2.249388   -1.446233
     21          1           0        3.668071    2.566640    0.323746
     22          1           0        5.306546    0.839924    0.806461
     23          1           0        5.028455   -1.332492   -0.228696
     24          1           0        3.610850   -0.874509   -1.107034
     25          1           0        3.399945   -0.965098    1.931821
     26          1           0        3.513252   -2.483553    1.107474
     27          1           0        1.299238   -0.918026    1.685443
     28          1           0        1.152751   -1.598625   -1.577637
 ---------------------------------------------------------------------
 Rotational constants (GHZ):           1.1268118           0.2289263           0.2077332
 Standard basis: 6-31G(2df,p) (6D, 7F)
 There are   542 symmetry adapted cartesian basis functions of A   symmetry.
 There are   497 symmetry adapted basis functions of A   symmetry.
   497 basis functions,   823 primitive gaussians,   542 cartesian basis functions
    67 alpha electrons       67 beta electrons
       nuclear repulsion energy      1311.4742778828 Hartrees.
 NAtoms=   28 NActive=   28 NUniq=   28 SFac= 1.00D+00 NAtFMM=   60 NAOKFM=F Big=F
 Integral buffers will be    131072 words long.
 Raffenetti 2 integral format.
 Two-electron integral symmetry is turned on.
 One-electron integrals computed using PRISM.
 PrsmSu:  requested number of processors reduced to:  12 ShMem   1 Linda.
 NBasis=   497 RedAO= T EigKep=  4.65D-04  NBF=   497
 NBsUse=   497 1.00D-06 EigRej= -1.00D+00 NBFU=   497
 ExpMin= 1.17D-01 ExpMax= 2.19D+04 ExpMxC= 3.30D+03 IAcc=3 IRadAn=         5 AccDes= 0.00D+00
 Harris functional with IExCor=  402 and IRadAn=       5 diagonalized for initial guess.
 HarFok:  IExCor=  402 AccDes= 0.00D+00 IRadAn=         5 IDoV= 1 UseB2=F ITyADJ=14
 ICtDFT=  3500011 ScaDFX=  1.000000  1.000000  1.000000  1.000000
 FoFCou: FMM=F IPFlag=           0 FMFlag=      100000 FMFlg1=           0
         NFxFlg=           0 DoJE=T BraDBF=F KetDBF=T FulRan=T
         wScrn=  0.000000 ICntrl=       500 IOpCl=  0 I1Cent=   200000004 NGrid=           0
         NMat0=    1 NMatS0=      1 NMatT0=    0 NMatD0=    1 NMtDS0=    0 NMtDT0=    0
 Petite list used in FoFCou.
 Requested convergence on RMS density matrix=1.00D-08 within 128 cycles.
 Requested convergence on MAX density matrix=1.00D-06.
 Requested convergence on             energy=1.00D-06.
 No special actions if energy rises.
 Integral accuracy reduced to 1.0D-05 until final iterations.
 EnCoef did     4 forward-backward iterations
 EnCoef did     3 forward-backward iterations
 EnCoef did     4 forward-backward iterations
 EnCoef did     7 forward-backward iterations
 EnCoef did     1 forward-backward iterations
 Problem detected with inexpensive integrals.
 Switching to full accuracy and repeating last cycle.
 EnCoef did     2 forward-backward iterations
 EnCoef did     2 forward-backward iterations
 EnCoef did     1 forward-backward iterations
 EnCoef did     3 forward-backward iterations
 Restarting incremental Fock formation.
 SCF Done:  E(RB3LYP) =  -1675.89836923     A.U. after   40 cycles
            NFock= 40  Conv=0.54D-08     -V/T= 2.0041

 **********************************************************************

            Population analysis using the SCF density.

 **********************************************************************

 Orbital symmetries:
       Occupied  (A) (A) (A) (A) (A) (A) (A) (A) (A) (A) (A) (A)
                 (A) (A) (A) (A) (A) (A) (A) (A) (A) (A) (A) (A)
                 (A) (A) (A) (A) (A) (A) (A) (A) (A) (A) (A) (A)
                 (A) (A) (A) (A) (A) (A) (A) (A) (A) (A) (A) (A)
                 (A) (A) (A) (A) (A) (A) (A) (A) (A) (A) (A) (A)
                 (A) (A) (A) (A) (A) (A) (A)
       Virtual   (A) (A) (A) (A) (A) (A) (A) (A) (A) (A) (A) (A)
                 (A) (A) (A) (A) (A) (A) (A) (A) (A) (A) (A) (A)
                 (A) (A) (A) (A) (A) (A) (A) (A) (A) (A) (A) (A)
                 (A) (A) (A) (A) (A) (A) (A) (A) (A) (A) (A) (A)
                 (A) (A) (A) (A) (A) (A) (A) (A) (A) (A) (A) (A)
                 (A) (A) (A) (A) (A) (A) (A) (A) (A) (A) (A) (A)
                 (A) (A) (A) (A) (A) (A) (A) (A) (A) (A) (A) (A)
                 (A) (A) (A) (A) (A) (A) (A) (A) (A) (A) (A) (A)
                 (A) (A) (A) (A) (A) (A) (A) (A) (A) (A) (A) (A)
                 (A) (A) (A) (A) (A) (A) (A) (A) (A) (A) (A) (A)
                 (A) (A) (A) (A) (A) (A) (A) (A) (A) (A) (A) (A)
                 (A) (A) (A) (A) (A) (A) (A) (A) (A) (A) (A) (A)
                 (A) (A) (A) (A) (A) (A) (A) (A) (A) (A) (A) (A)
                 (A) (A) (A) (A) (A) (A) (A) (A) (A) (A) (A) (A)
                 (A) (A) (A) (A) (A) (A) (A) (A) (A) (A) (A) (A)
                 (A) (A) (A) (A) (A) (A) (A) (A) (A) (A) (A) (A)
                 (A) (A) (A) (A) (A) (A) (A) (A) (A) (A) (A) (A)
                 (A) (A) (A) (A) (A) (A) (A) (A) (A) (A) (A) (A)
                 (A) (A) (A) (A) (A) (A) (A) (A) (A) (A) (A) (A)
                 (A) (A) (A) (A) (A) (A) (A) (A) (A) (A) (A) (A)
                 (A) (A) (A) (A) (A) (A) (A) (A) (A) (A) (A) (A)
                 (A) (A) (A) (A) (A) (A) (A) (A) (A) (A) (A) (A)
                 (A) (A) (A) (A) (A) (A) (A) (A) (A) (A) (A) (A)
                 (A) (A) (A) (A) (A) (A) (A) (A) (A) (A) (A) (A)
                 (A) (A) (A) (A) (A) (A) (A) (A) (A) (A) (A) (A)
                 (A) (A) (A) (A) (A) (A) (A) (A) (A) (A) (A) (A)
                 (A) (A) (A) (A) (A) (A) (A) (A) (A) (A) (A) (A)
                 (A) (A) (A) (A) (A) (A) (A) (A) (A) (A) (A) (A)
                 (A) (A) (A) (A) (A) (A) (A) (A) (A) (A) (A) (A)
                 (A) (A) (A) (A) (A) (A) (A) (A) (A) (A) (A) (A)
                 (A) (A) (A) (A) (A) (A) (A) (A) (A) (A) (A) (A)
                 (A) (A) (A) (A) (A) (A) (A) (A) (A) (A) (A) (A)
                 (A) (A) (A) (A) (A) (A) (A) (A) (A) (A) (A) (A)
                 (A) (A) (A) (A) (A) (A) (A) (A) (A) (A) (A) (A)
                 (A) (A) (A) (A) (A) (A) (A) (A) (A) (A) (A) (A)
                 (A) (A) (A) (A) (A) (A) (A) (A) (A) (A)
 The electronic state is 1-A.
 Alpha  occ. eigenvalues --  -89.01007 -88.82059 -88.80795 -14.38959 -10.25614
 Alpha  occ. eigenvalues --  -10.25572 -10.25102 -10.23709 -10.22603 -10.22346
 Alpha  occ. eigenvalues --  -10.21625 -10.21440 -10.19852 -10.19612 -10.19519
 Alpha  occ. eigenvalues --   -8.06388  -7.88424  -7.87319  -6.02763  -6.02595
 Alpha  occ. eigenvalues --   -6.02097  -5.84770  -5.84625  -5.84008  -5.83814
 Alpha  occ. eigenvalues --   -5.83292  -5.82908  -0.95732  -0.88853  -0.85461
 Alpha  occ. eigenvalues --   -0.84410  -0.79113  -0.77387  -0.74722  -0.70610
 Alpha  occ. eigenvalues --   -0.65629  -0.64155  -0.62941  -0.59491  -0.59035
 Alpha  occ. eigenvalues --   -0.56123  -0.53580  -0.52128  -0.51522  -0.50155
 Alpha  occ. eigenvalues --   -0.49170  -0.48174  -0.46168  -0.45390  -0.43344
 Alpha  occ. eigenvalues --   -0.41788  -0.40247  -0.40199  -0.39339  -0.38744
 Alpha  occ. eigenvalues --   -0.37155  -0.36596  -0.33374  -0.32326  -0.30110
 Alpha  occ. eigenvalues --   -0.29499  -0.26324  -0.24608  -0.20751  -0.19986
 Alpha  occ. eigenvalues --   -0.17815  -0.15838
 Alpha virt. eigenvalues --   -0.13158  -0.06573  -0.04807  -0.02789  -0.01256
 Alpha virt. eigenvalues --   -0.00341   0.01126   0.03241   0.04118   0.06504
 Alpha virt. eigenvalues --    0.07578   0.09610   0.10031   0.10512   0.11270
 Alpha virt. eigenvalues --    0.12771   0.13995   0.14265   0.14938   0.15545
 Alpha virt. eigenvalues --    0.17085   0.18355   0.18821   0.20323   0.21760
 Alpha virt. eigenvalues --    0.22945   0.23749   0.25225   0.27114   0.27508
 Alpha virt. eigenvalues --    0.28668   0.29436   0.30039   0.31585   0.31956
 Alpha virt. eigenvalues --    0.33137   0.33451   0.34609   0.35073   0.37026
 Alpha virt. eigenvalues --    0.39131   0.39457   0.40477   0.40913   0.41641
 Alpha virt. eigenvalues --    0.42110   0.42812   0.43403   0.43501   0.44373
 Alpha virt. eigenvalues --    0.45006   0.45516   0.46594   0.47382   0.47729
 Alpha virt. eigenvalues --    0.48588   0.48898   0.49525   0.50711   0.51063
 Alpha virt. eigenvalues --    0.51499   0.52098   0.52567   0.53966   0.54593
 Alpha virt. eigenvalues --    0.55851   0.57051   0.58154   0.58580   0.59624
 Alpha virt. eigenvalues --    0.60579   0.60910   0.62280   0.62495   0.62764
 Alpha virt. eigenvalues --    0.64477   0.65304   0.65704   0.66856   0.68665
 Alpha virt. eigenvalues --    0.69258   0.70040   0.70779   0.72042   0.72424
 Alpha virt. eigenvalues --    0.73044   0.74289   0.74904   0.75402   0.76058
 Alpha virt. eigenvalues --    0.76552   0.76614   0.78422   0.78694   0.79340
 Alpha virt. eigenvalues --    0.79931   0.80819   0.81787   0.82789   0.82985
 Alpha virt. eigenvalues --    0.84424   0.86417   0.86850   0.87433   0.88612
 Alpha virt. eigenvalues --    0.89213   0.89999   0.90398   0.91451   0.92781
 Alpha virt. eigenvalues --    0.94271   0.94820   0.95378   0.96949   0.98227
 Alpha virt. eigenvalues --    0.99179   0.99941   1.01872   1.02464   1.04654
 Alpha virt. eigenvalues --    1.08002   1.08736   1.10180   1.12296   1.14458
 Alpha virt. eigenvalues --    1.15338   1.16240   1.17382   1.20875   1.21733
 Alpha virt. eigenvalues --    1.21822   1.24031   1.26385   1.27313   1.28622
 Alpha virt. eigenvalues --    1.30158   1.31135   1.33513   1.34500   1.35712
 Alpha virt. eigenvalues --    1.36284   1.37723   1.38803   1.40116   1.40542
 Alpha virt. eigenvalues --    1.41409   1.43726   1.44797   1.47399   1.48349
 Alpha virt. eigenvalues --    1.48741   1.49600   1.51573   1.52306   1.53453
 Alpha virt. eigenvalues --    1.54649   1.56799   1.57376   1.58189   1.59058
 Alpha virt. eigenvalues --    1.60171   1.61677   1.63028   1.64854   1.65080
 Alpha virt. eigenvalues --    1.66801   1.67217   1.68603   1.69581   1.70314
 Alpha virt. eigenvalues --    1.70884   1.71508   1.71971   1.72484   1.72661
 Alpha virt. eigenvalues --    1.73949   1.74708   1.76199   1.76619   1.77904
 Alpha virt. eigenvalues --    1.78735   1.79915   1.80832   1.83886   1.84955
 Alpha virt. eigenvalues --    1.85518   1.86646   1.87518   1.90744   1.91715
 Alpha virt. eigenvalues --    1.93158   1.95569   1.97042   1.98584   1.98903
 Alpha virt. eigenvalues --    2.01528   2.03570   2.05412   2.06390   2.07564
 Alpha virt. eigenvalues --    2.09138   2.12083   2.12788   2.16327   2.17700
 Alpha virt. eigenvalues --    2.18519   2.18755   2.20122   2.21507   2.22230
 Alpha virt. eigenvalues --    2.23661   2.25508   2.25972   2.27806   2.29931
 Alpha virt. eigenvalues --    2.30546   2.32331   2.32569   2.34885   2.36710
 Alpha virt. eigenvalues --    2.37588   2.39325   2.40238   2.41443   2.42252
 Alpha virt. eigenvalues --    2.45327   2.46625   2.47688   2.48717   2.49324
 Alpha virt. eigenvalues --    2.50598   2.52106   2.53752   2.54052   2.56112
 Alpha virt. eigenvalues --    2.57677   2.59559   2.61159   2.62888   2.63663
 Alpha virt. eigenvalues --    2.65419   2.67158   2.71105   2.72369   2.73116
 Alpha virt. eigenvalues --    2.74077   2.77393   2.79571   2.82151   2.82748
 Alpha virt. eigenvalues --    2.84143   2.85719   2.86133   2.87013   2.89318
 Alpha virt. eigenvalues --    2.90970   2.92388   2.92615   2.93671   2.94683
 Alpha virt. eigenvalues --    2.95726   2.97410   2.99486   2.99894   3.02494
 Alpha virt. eigenvalues --    3.03033   3.03969   3.05326   3.06865   3.08614
 Alpha virt. eigenvalues --    3.08892   3.10434   3.12105   3.13392   3.14523
 Alpha virt. eigenvalues --    3.15659   3.18002   3.19716   3.21135   3.22045
 Alpha virt. eigenvalues --    3.22299   3.23293   3.24596   3.27206   3.28196
 Alpha virt. eigenvalues --    3.29066   3.29410   3.30149   3.33305   3.33633
 Alpha virt. eigenvalues --    3.34445   3.36684   3.37864   3.39582   3.40151
 Alpha virt. eigenvalues --    3.40471   3.41042   3.43878   3.45084   3.46555
 Alpha virt. eigenvalues --    3.48838   3.49542   3.51306   3.53243   3.56015
 Alpha virt. eigenvalues --    3.56856   3.58060   3.59310   3.61833   3.63832
 Alpha virt. eigenvalues --    3.65310   3.67086   3.69718   3.71305   3.72847
 Alpha virt. eigenvalues --    3.74911   3.78210   3.78455   3.81254   3.82021
 Alpha virt. eigenvalues --    3.84612   3.87283   3.88602   3.92358   3.92914
 Alpha virt. eigenvalues --    3.93790   3.95991   3.97872   3.99849   4.01111
 Alpha virt. eigenvalues --    4.03920   4.04791   4.05840   4.10010   4.11880
 Alpha virt. eigenvalues --    4.15083   4.20136   4.20957   4.23243   4.24696
 Alpha virt. eigenvalues --    4.26837   4.27620   4.28809   4.34915   4.35711
 Alpha virt. eigenvalues --    4.37682   4.39004   4.40047   4.41121   4.43435
 Alpha virt. eigenvalues --    4.44401   4.44425   4.45840   4.49154   4.50976
 Alpha virt. eigenvalues --    4.51156   4.52078   4.53672   4.54081   4.55927
 Alpha virt. eigenvalues --    4.56774   4.58495   4.59965   4.60505   4.62624
 Alpha virt. eigenvalues --    4.63038   4.64484   4.65868   4.67457   4.68240
 Alpha virt. eigenvalues --    4.69549   4.71802   4.73279   4.73728   4.75279
 Alpha virt. eigenvalues --    4.76264   4.78610   4.79671   4.80519   4.80832
 Alpha virt. eigenvalues --    4.83458   4.86907   4.88524   4.89368   4.93028
 Alpha virt. eigenvalues --    4.93602   4.95145   4.97605   4.98740   4.99407
 Alpha virt. eigenvalues --    5.01918   5.04185   5.08119   5.11005   5.11338
 Alpha virt. eigenvalues --    5.14823   5.15618   5.21197   5.22089   5.23678
 Alpha virt. eigenvalues --    5.27597   5.31311   5.32199   5.38362   5.40039
 Alpha virt. eigenvalues --    5.40417   5.42863   5.48964   5.54293   5.57866
 Alpha virt. eigenvalues --    5.59884   5.66071   5.77059   5.78901   5.87336
 Alpha virt. eigenvalues --    6.14028   6.25688  10.32662  10.62018  10.82652
 Alpha virt. eigenvalues --   11.15533  11.30906  11.36847  11.64705  11.80287
 Alpha virt. eigenvalues --   11.88241  12.04135  12.18472  12.32585  13.51674
          Condensed to atoms (all electrons):
               1          2          3          4          5          6
     1  S   16.005178   0.430313  -0.051686  -0.003818   0.000830   0.000011
     2  C    0.430313   4.812168   0.382623  -0.041511   0.001716   0.000673
     3  C   -0.051686   0.382623   4.947515   0.588373  -0.040585  -0.007291
     4  C   -0.003818  -0.041511   0.588373   4.888603   0.438357  -0.027556
     5  C    0.000830   0.001716  -0.040585   0.438357   4.838306   0.582940
     6  C    0.000011   0.000673  -0.007291  -0.027556   0.582940   4.985770
     7  C   -0.000014   0.000120  -0.000778   0.001408   0.005199   0.456195
     8  C   -0.000000   0.000007  -0.000074   0.000129  -0.002334  -0.074785
     9  C   -0.000000   0.000000   0.000001   0.000002   0.000861   0.005839
    10  C    0.000000  -0.000000   0.000000   0.000000   0.000061   0.000345
    11  C   -0.000000   0.000000  -0.000000   0.000000  -0.000015  -0.000137
    12  C   -0.000000   0.000001  -0.000001   0.000001   0.000139  -0.000350
    13  N    0.000001  -0.000029  -0.000008   0.000077  -0.001058   0.002338
    14  S   -0.000245   0.008917  -0.001852  -0.000043  -0.005075  -0.070616
    15  S   -0.051903   0.294971  -0.043900  -0.033548  -0.008895   0.012525
    16  H    0.004679  -0.052415   0.368265  -0.039222  -0.011514   0.000373
    17  H    0.003042  -0.009374  -0.029964   0.373998  -0.056369  -0.011331
    18  H    0.000011  -0.000049  -0.009129  -0.035753   0.364310  -0.051486
    19  H    0.000005  -0.000104   0.000150  -0.008813  -0.029356   0.359622
    20  H    0.000000  -0.000001  -0.000000  -0.000007   0.000255  -0.017421
    21  H    0.000000  -0.000000   0.000000  -0.000001   0.000031   0.000538
    22  H    0.000000   0.000000   0.000000   0.000000  -0.000000   0.000009
    23  H    0.000000  -0.000000   0.000000  -0.000000   0.000000   0.000001
    24  H    0.000000  -0.000000   0.000000  -0.000000  -0.000012   0.000284
    25  H    0.000000  -0.000000   0.000000  -0.000000   0.000002   0.000057
    26  H    0.000000  -0.000000   0.000000   0.000000  -0.000001   0.000001
    27  H   -0.000001   0.000005  -0.000059   0.000027  -0.000069  -0.000985
    28  H    0.000002  -0.000047  -0.000028  -0.000068   0.000569   0.003629
               7          8          9         10         11         12
     1  S   -0.000014  -0.000000  -0.000000   0.000000  -0.000000  -0.000000
     2  C    0.000120   0.000007   0.000000  -0.000000   0.000000   0.000001
     3  C   -0.000778  -0.000074   0.000001   0.000000  -0.000000  -0.000001
     4  C    0.001408   0.000129   0.000002   0.000000   0.000000   0.000001
     5  C    0.005199  -0.002334   0.000861   0.000061  -0.000015   0.000139
     6  C    0.456195  -0.074785   0.005839   0.000345  -0.000137  -0.000350
     7  C    4.677890   0.530340  -0.024021  -0.010800  -0.002563   0.004670
     8  C    0.530340   5.194470   0.383265  -0.019373  -0.019168   0.002478
     9  C   -0.024021   0.383265   4.788755   0.672513  -0.023514  -0.009719
    10  C   -0.010800  -0.019373   0.672513   4.777355   0.392107  -0.034330
    11  C   -0.002563  -0.019168  -0.023514   0.392107   4.973591   0.386984
    12  C    0.004670   0.002478  -0.009719  -0.034330   0.386984   4.931178
    13  N   -0.053551  -0.004354   0.004665  -0.000082  -0.024171   0.318699
    14  S    0.300280  -0.048126  -0.003464   0.002609  -0.003823  -0.052774
    15  S   -0.025353  -0.000552  -0.000033   0.000006  -0.000040  -0.000756
    16  H   -0.000067  -0.000004   0.000000   0.000000   0.000000  -0.000000
    17  H    0.000379  -0.000039   0.000001   0.000000  -0.000000   0.000000
    18  H   -0.005762   0.001450   0.000102  -0.000021   0.000001  -0.000038
    19  H   -0.044722   0.005258  -0.000178  -0.000004   0.000007   0.000003
    20  H   -0.056966   0.359437  -0.059039   0.006833   0.000205  -0.000007
    21  H   -0.000042  -0.052202   0.384286  -0.045258   0.007332  -0.000115
    22  H    0.000060   0.006038  -0.038489   0.368833  -0.051701  -0.000295
    23  H    0.000183   0.000299   0.004920  -0.030850   0.357599  -0.022508
    24  H   -0.005662   0.016822  -0.016111  -0.021966   0.340936  -0.039761
    25  H   -0.000292  -0.000025   0.000454  -0.002538  -0.036128   0.352954
    26  H   -0.000392  -0.000061   0.000547   0.004519  -0.044574   0.365401
    27  H    0.003401   0.000389  -0.000101   0.000104   0.001845  -0.033765
    28  H   -0.011633  -0.006073  -0.000306   0.000193  -0.000369  -0.002626
              13         14         15         16         17         18
     1  S    0.000001  -0.000245  -0.051903   0.004679   0.003042   0.000011
     2  C   -0.000029   0.008917   0.294971  -0.052415  -0.009374  -0.000049
     3  C   -0.000008  -0.001852  -0.043900   0.368265  -0.029964  -0.009129
     4  C    0.000077  -0.000043  -0.033548  -0.039222   0.373998  -0.035753
     5  C   -0.001058  -0.005075  -0.008895  -0.011514  -0.056369   0.364310
     6  C    0.002338  -0.070616   0.012525   0.000373  -0.011331  -0.051486
     7  C   -0.053551   0.300280  -0.025353  -0.000067   0.000379  -0.005762
     8  C   -0.004354  -0.048126  -0.000552  -0.000004  -0.000039   0.001450
     9  C    0.004665  -0.003464  -0.000033   0.000000   0.000001   0.000102
    10  C   -0.000082   0.002609   0.000006   0.000000   0.000000  -0.000021
    11  C   -0.024171  -0.003823  -0.000040   0.000000  -0.000000   0.000001
    12  C    0.318699  -0.052774  -0.000756  -0.000000   0.000000  -0.000038
    13  N    6.588455   0.225982   0.005002  -0.000012  -0.000001  -0.000386
    14  S    0.225982  15.504079  -0.224357   0.000071   0.000142   0.001491
    15  S    0.005002  -0.224357  16.519951   0.000835  -0.000072  -0.002263
    16  H   -0.000012   0.000071   0.000835   0.585880   0.005540   0.004247
    17  H   -0.000001   0.000142  -0.000072   0.005540   0.588408   0.005385
    18  H   -0.000386   0.001491  -0.002263   0.004247   0.005385   0.620197
    19  H   -0.000119   0.000422   0.000897  -0.000007   0.003640   0.005153
    20  H   -0.000211   0.006802   0.000096  -0.000000  -0.000004   0.000011
    21  H    0.000052  -0.000021  -0.000001   0.000000   0.000000   0.000011
    22  H   -0.000016   0.000056  -0.000000   0.000000   0.000000  -0.000000
    23  H    0.001974  -0.000712  -0.000000   0.000000   0.000000  -0.000000
    24  H   -0.004505   0.016153   0.000126   0.000000   0.000000  -0.000003
    25  H   -0.020793   0.004229   0.000038   0.000000  -0.000000  -0.000072
    26  H   -0.029750   0.001238   0.000022  -0.000000  -0.000000   0.000006
    27  H    0.333792  -0.034647  -0.000055  -0.000005   0.000002   0.005926
    28  H   -0.012189   0.226735   0.010692  -0.000002  -0.000004   0.000105
              19         20         21         22         23         24
     1  S    0.000005   0.000000   0.000000   0.000000   0.000000   0.000000
     2  C   -0.000104  -0.000001  -0.000000   0.000000  -0.000000  -0.000000
     3  C    0.000150  -0.000000   0.000000   0.000000   0.000000   0.000000
     4  C   -0.008813  -0.000007  -0.000001   0.000000  -0.000000  -0.000000
     5  C   -0.029356   0.000255   0.000031  -0.000000   0.000000  -0.000012
     6  C    0.359622  -0.017421   0.000538   0.000009   0.000001   0.000284
     7  C   -0.044722  -0.056966  -0.000042   0.000060   0.000183  -0.005662
     8  C    0.005258   0.359437  -0.052202   0.006038   0.000299   0.016822
     9  C   -0.000178  -0.059039   0.384286  -0.038489   0.004920  -0.016111
    10  C   -0.000004   0.006833  -0.045258   0.368833  -0.030850  -0.021966
    11  C    0.000007   0.000205   0.007332  -0.051701   0.357599   0.340936
    12  C    0.000003  -0.000007  -0.000115  -0.000295  -0.022508  -0.039761
    13  N   -0.000119  -0.000211   0.000052  -0.000016   0.001974  -0.004505
    14  S    0.000422   0.006802  -0.000021   0.000056  -0.000712   0.016153
    15  S    0.000897   0.000096  -0.000001  -0.000000  -0.000000   0.000126
    16  H   -0.000007  -0.000000   0.000000   0.000000   0.000000   0.000000
    17  H    0.003640  -0.000004   0.000000   0.000000   0.000000   0.000000
    18  H    0.005153   0.000011   0.000011  -0.000000  -0.000000  -0.000003
    19  H    0.574199   0.005215  -0.000037  -0.000000  -0.000000  -0.000015
    20  H    0.005215   0.650751  -0.009977  -0.000350  -0.000037  -0.000122
    21  H   -0.000037  -0.009977   0.594953  -0.006928  -0.000232   0.000053
    22  H   -0.000000  -0.000350  -0.006928   0.611466  -0.003707   0.004904
    23  H   -0.000000  -0.000037  -0.000232  -0.003707   0.609454  -0.031312
    24  H   -0.000015  -0.000122   0.000053   0.004904  -0.031312   0.617214
    25  H    0.000000   0.000006  -0.000173   0.002351   0.002476   0.005722
    26  H   -0.000000   0.000000   0.000007  -0.000199  -0.005733   0.002796
    27  H    0.000012   0.000011  -0.000011   0.000003  -0.000060  -0.000043
    28  H    0.000020   0.000218  -0.000007  -0.000002  -0.000025   0.000702
              25         26         27         28
     1  S    0.000000   0.000000  -0.000001   0.000002
     2  C   -0.000000  -0.000000   0.000005  -0.000047
     3  C    0.000000   0.000000  -0.000059  -0.000028
     4  C   -0.000000   0.000000   0.000027  -0.000068
     5  C    0.000002  -0.000001  -0.000069   0.000569
     6  C    0.000057   0.000001  -0.000985   0.003629
     7  C   -0.000292  -0.000392   0.003401  -0.011633
     8  C   -0.000025  -0.000061   0.000389  -0.006073
     9  C    0.000454   0.000547  -0.000101  -0.000306
    10  C   -0.002538   0.004519   0.000104   0.000193
    11  C   -0.036128  -0.044574   0.001845  -0.000369
    12  C    0.352954   0.365401  -0.033765  -0.002626
    13  N   -0.020793  -0.029750   0.333792  -0.012189
    14  S    0.004229   0.001238  -0.034647   0.226735
    15  S    0.000038   0.000022  -0.000055   0.010692
    16  H    0.000000  -0.000000  -0.000005  -0.000002
    17  H   -0.000000  -0.000000   0.000002  -0.000004
    18  H   -0.000072   0.000006   0.005926   0.000105
    19  H    0.000000  -0.000000   0.000012   0.000020
    20  H    0.000006   0.000000   0.000011   0.000218
    21  H   -0.000173   0.000007  -0.000011  -0.000007
    22  H    0.002351  -0.000199   0.000003  -0.000002
    23  H    0.002476  -0.005733  -0.000060  -0.000025
    24  H    0.005722   0.002796  -0.000043   0.000702
    25  H    0.614710  -0.037488  -0.009678  -0.000012
    26  H   -0.037488   0.606665   0.003397   0.000314
    27  H   -0.009678   0.003397   0.460320   0.002079
    28  H   -0.000012   0.000314   0.002079   0.588300
 Mulliken charges:
               1
     1  S   -0.336406
     2  C    0.172015
     3  C   -0.101570
     4  C   -0.100634
     5  C   -0.078294
     6  C   -0.149193
     7  C    0.262493
     8  C   -0.273210
     9  C   -0.071237
    10  C   -0.060259
    11  C   -0.254405
    12  C   -0.165462
    13  N   -0.329800
    14  S    0.146548
    15  S   -0.453432
    16  H    0.133357
    17  H    0.126620
    18  H    0.096558
    19  H    0.128753
    20  H    0.114301
    21  H    0.127742
    22  H    0.107966
    23  H    0.118268
    24  H    0.113799
    25  H    0.124200
    26  H    0.133285
    27  H    0.268165
    28  H    0.199832
 Sum of Mulliken charges =  -0.00000
 Mulliken charges with hydrogens summed into heavy atoms:
               1
     1  S   -0.336406
     2  C    0.172015
     3  C    0.031787
     4  C    0.025987
     5  C    0.018264
     6  C   -0.020440
     7  C    0.262493
     8  C   -0.158910
     9  C    0.056506
    10  C    0.047708
    11  C   -0.022338
    12  C    0.092023
    13  N   -0.061636
    14  S    0.346380
    15  S   -0.453432
 Electronic spatial extent (au):  <R**2>=           5126.8064
 Charge=             -0.0000 electrons
 Dipole moment (field-independent basis, Debye):
    X=             12.4405    Y=              1.8644    Z=              0.8468  Tot=             12.6079
 Quadrupole moment (field-independent basis, Debye-Ang):
   XX=           -129.7098   YY=           -111.7867   ZZ=           -105.1785
   XY=             -7.6117   XZ=             -2.3854   YZ=             -2.3737
 Traceless Quadrupole moment (field-independent basis, Debye-Ang):
   XX=            -14.1515   YY=              3.7716   ZZ=             10.3799
   XY=             -7.6117   XZ=             -2.3854   YZ=             -2.3737
 Octapole moment (field-independent basis, Debye-Ang**2):
  XXX=            238.0919  YYY=              3.5301  ZZZ=              7.4513  XYY=             30.1915
  XXY=              7.5969  XXZ=             20.8400  XZZ=             17.5919  YZZ=             -4.4311
  YYZ=            -11.6999  XYZ=             14.7715
 Hexadecapole moment (field-independent basis, Debye-Ang**3):
 XXXX=          -6094.4745 YYYY=          -1043.7744 ZZZZ=           -422.6070 XXXY=            -61.2304
 XXXZ=             58.7933 YYYX=             -3.9375 YYYZ=            -11.1720 ZZZX=             -3.8284
 ZZZY=            -11.4146 XXYY=          -1101.0103 XXZZ=          -1033.8418 YYZZ=           -241.8325
 XXYZ=            -30.8189 YYXZ=             -1.4337 ZZXY=            -15.2762
 N-N= 1.311474277883D+03 E-N=-6.577493367449D+03  KE= 1.669061171006D+03
 PrsmSu:  requested number of processors reduced to:  13 ShMem   1 Linda.
 Calling FoFJK, ICntrl=      2127 FMM=F ISym2X=0 I1Cent= 0 IOpClX= 0 NMat=1 NMatS=1 NMatT=0.
 ***** Axes restored to original set *****
 -------------------------------------------------------------------
 Center     Atomic                   Forces (Hartrees/Bohr)
 Number     Number              X              Y              Z
 -------------------------------------------------------------------
      1       16           0.033429913    0.003713258   -0.016709270
      2        6          -0.050172377    0.057391432    0.032465404
      3        6           0.016922648    0.033031804    0.006550866
      4        6          -0.005495916   -0.017635369   -0.006265561
      5        6           0.013956262   -0.010037424    0.007871309
      6        6          -0.019159078   -0.004446754    0.026214701
      7        6           0.039899825    0.038780596    0.003557705
      8        6           0.013499887   -0.057699417   -0.011921290
      9        6           0.031085259    0.029404048   -0.028402360
     10        6          -0.002591583   -0.008438480    0.004153261
     11        6           0.002700894   -0.000830080   -0.004834272
     12        6          -0.001288108    0.005845556   -0.017023510
     13        7           0.046283159    0.010812893   -0.031217324
     14       16          -0.030375852   -0.015674004   -0.060644067
     15       16          -0.058858899   -0.040142965    0.061666497
     16        1           0.001117908   -0.015681034   -0.014405812
     17        1          -0.008205690   -0.003741390   -0.000667852
     18        1           0.004000694   -0.015775480    0.002753707
     19        1          -0.001213880   -0.015407734    0.011730877
     20        1          -0.010041123   -0.003421677    0.015227577
     21        1           0.000624214    0.005432292    0.010047486
     22        1          -0.008369446    0.004130909   -0.000298290
     23        1          -0.012902422    0.006888826   -0.003008628
     24        1          -0.001213245   -0.001103925    0.004280292
     25        1          -0.001558904    0.003989168    0.006356045
     26        1          -0.006522279    0.005105208    0.006276813
     27        1          -0.002327215    0.007606395    0.013927957
     28        1           0.016775354   -0.002096650   -0.017682260
 -------------------------------------------------------------------
 Cartesian Forces:  Max     0.061666497 RMS     0.022182268

 GradGradGradGradGradGradGradGradGradGradGradGradGradGradGradGradGradGrad
 Berny optimization.
 FormGI is forming the generalized inverse of G from B-inverse, IUseBI=4.
 Internal  Forces:  Max     0.185086724 RMS     0.044286712
 Search for a local minimum.
 Step number   1 out of a maximum of  144
 All quantities printed in internal units (Hartrees-Bohrs-Radians)
 Mixed Optimization -- RFO/linear search
 Second derivative matrix not updated -- first step.
 ITU=  0
     Eigenvalues ---    0.00287   0.00998   0.01321   0.01426   0.01606
     Eigenvalues ---    0.01758   0.01948   0.02026   0.02091   0.02235
     Eigenvalues ---    0.02271   0.02543   0.02702   0.02761   0.02858
     Eigenvalues ---    0.02988   0.03029   0.03037   0.03680   0.03753
     Eigenvalues ---    0.04195   0.04932   0.05118   0.05831   0.06626
     Eigenvalues ---    0.08194   0.08714   0.09280   0.11114   0.11236
     Eigenvalues ---    0.12750   0.12914   0.13629   0.13693   0.14414
     Eigenvalues ---    0.14576   0.15204   0.15902   0.15989   0.16634
     Eigenvalues ---    0.16821   0.20644   0.22148   0.22332   0.22396
     Eigenvalues ---    0.22571   0.22572   0.23110   0.24747   0.25000
     Eigenvalues ---    0.25000   0.25749   0.25899   0.26799   0.28652
     Eigenvalues ---    0.31220   0.32251   0.33045   0.33746   0.33977
     Eigenvalues ---    0.34156   0.34310   0.34328   0.34395   0.34462
     Eigenvalues ---    0.34528   0.34656   0.35169   0.36665   0.36695
     Eigenvalues ---    0.38235   0.43896   0.43950   0.47988   0.53073
     Eigenvalues ---    0.54256   0.55201   0.57527
 RFO step:  Lambda=-4.39194029D-01 EMin= 2.87009066D-03
 Linear search not attempted -- first point.
 Maximum step size (   0.300) exceeded in Quadratic search.
    -- Step size scaled by   0.500
 Iteration  1 RMS(Cart)=  0.23232679 RMS(Int)=  0.02058156
 Iteration  2 RMS(Cart)=  0.16403823 RMS(Int)=  0.00546878
 Iteration  3 RMS(Cart)=  0.00978285 RMS(Int)=  0.00088720
 Iteration  4 RMS(Cart)=  0.00004696 RMS(Int)=  0.00088695
 Iteration  5 RMS(Cart)=  0.00000004 RMS(Int)=  0.00088695
 Variable       Old X    -DE/DX   Delta X   Delta X   Delta X     New X
                                 (Linear)    (Quad)   (Total)
    R1        3.23810  -0.03505   0.00000  -0.02241  -0.02241   3.21570
    R2        2.74025   0.05156   0.00000   0.03139   0.03139   2.77164
    R3        3.70650  -0.08951   0.00000  -0.07393  -0.07393   3.63257
    R4        2.54954   0.05681   0.00000   0.02867   0.02867   2.57820
    R5        2.03054   0.00993   0.00000   0.00616   0.00616   2.03670
    R6        2.66579   0.09083   0.00000   0.05173   0.05173   2.71752
    R7        2.06448  -0.00498   0.00000  -0.00318  -0.00318   2.06130
    R8        2.55799   0.03791   0.00000   0.01931   0.01931   2.57730
    R9        2.07369  -0.00851   0.00000  -0.00547  -0.00547   2.06822
   R10        2.61952   0.12669   0.00000   0.06895   0.06895   2.68847
   R11        2.03009   0.00907   0.00000   0.00563   0.00563   2.03572
   R12        2.55589   0.03847   0.00000   0.02029   0.02046   2.57636
   R13        3.27997   0.02498   0.00000   0.01663   0.01676   3.29673
   R14        2.77833   0.01496   0.00000   0.00957   0.00965   2.78798
   R15        2.06238   0.00722   0.00000   0.00459   0.00459   2.06697
   R16        2.52005   0.00965   0.00000   0.00512   0.00511   2.52516
   R17        2.06780  -0.00493   0.00000  -0.00315  -0.00315   2.06465
   R18        2.83149   0.00427   0.00000   0.00293   0.00282   2.83430
   R19        2.06557  -0.00467   0.00000  -0.00298  -0.00298   2.06258
   R20        2.96014  -0.00942   0.00000  -0.00782  -0.00798   2.95216
   R21        2.07761  -0.00233   0.00000  -0.00150  -0.00150   2.07611
   R22        2.06668   0.00275   0.00000   0.00176   0.00176   2.06844
   R23        2.94414  -0.02314   0.00000  -0.01726  -0.01739   2.92675
   R24        2.08973  -0.00626   0.00000  -0.00407  -0.00407   2.08566
   R25        2.07067   0.00044   0.00000   0.00028   0.00028   2.07095
   R26        3.33757  -0.00046   0.00000  -0.00020  -0.00018   3.33739
   R27        1.93214  -0.00638   0.00000  -0.00363  -0.00363   1.92851
   R28        2.54841   0.00689   0.00000   0.00494   0.00494   2.55335
    A1        1.99354  -0.00575   0.00000  -0.00329  -0.00358   1.98996
    A2        2.26900  -0.04755   0.00000  -0.03358  -0.03388   2.23512
    A3        1.98580   0.06312   0.00000   0.04669   0.04640   2.03220
    A4        1.86021   0.13952   0.00000   0.10955   0.10802   1.96824
    A5        1.88471   0.00467   0.00000   0.01637   0.01566   1.90037
    A6        2.25635  -0.06213   0.00000  -0.04503  -0.04889   2.20746
    A7        1.93051   0.17769   0.00000   0.13726   0.13503   2.06554
    A8        2.09994  -0.07550   0.00000  -0.05349  -0.05704   2.04290
    A9        2.00077  -0.01703   0.00000  -0.00218  -0.00377   1.99700
   A10        1.98711   0.07964   0.00000   0.06270   0.06133   2.04844
   A11        2.07217   0.00094   0.00000   0.00709   0.00590   2.07807
   A12        2.08247  -0.03544   0.00000  -0.02374  -0.02544   2.05703
   A13        2.00618   0.11135   0.00000   0.08588   0.08501   2.09119
   A14        2.19846  -0.07153   0.00000  -0.05422  -0.05551   2.14295
   A15        2.00596  -0.01297   0.00000  -0.00441  -0.00502   2.00094
   A16        2.04140  -0.05845   0.00000  -0.04224  -0.04232   1.99908
   A17        1.95955   0.12219   0.00000   0.08944   0.08939   2.04894
   A18        2.26567  -0.06245   0.00000  -0.04589  -0.04574   2.21993
   A19        2.17771   0.02422   0.00000   0.02298   0.02351   2.20122
   A20        1.98785  -0.02275   0.00000  -0.01932  -0.01972   1.96813
   A21        1.76673   0.01696   0.00000   0.01509   0.01491   1.78164
   A22        2.11700   0.01784   0.00000   0.01533   0.01528   2.13227
   A23        2.07351  -0.01810   0.00000  -0.01531  -0.01530   2.05821
   A24        2.08230   0.00116   0.00000   0.00085   0.00087   2.08317
   A25        2.05959   0.00693   0.00000   0.00691   0.00669   2.06627
   A26        2.10808   0.00077   0.00000   0.00008   0.00019   2.10827
   A27        2.11384  -0.00758   0.00000  -0.00691  -0.00680   2.10705
   A28        1.91791   0.02259   0.00000   0.01348   0.01307   1.93098
   A29        1.85348   0.00621   0.00000   0.00803   0.00830   1.86177
   A30        1.94845  -0.01365   0.00000  -0.00939  -0.00929   1.93916
   A31        1.97751  -0.01935   0.00000  -0.01526  -0.01520   1.96230
   A32        1.94615  -0.00331   0.00000  -0.00172  -0.00160   1.94455
   A33        1.81698   0.00608   0.00000   0.00412   0.00404   1.82102
   A34        2.17100  -0.01717   0.00000  -0.01440  -0.01455   2.15645
   A35        1.85491   0.01362   0.00000   0.01087   0.01087   1.86578
   A36        1.84214   0.00527   0.00000   0.00528   0.00530   1.84744
   A37        1.86252   0.00047   0.00000   0.00054   0.00059   1.86310
   A38        1.89235   0.00027   0.00000  -0.00090  -0.00082   1.89153
   A39        1.81015   0.00028   0.00000   0.00112   0.00106   1.81121
   A40        2.13190   0.01227   0.00000   0.00988   0.00998   2.14188
   A41        1.79975   0.02093   0.00000   0.01739   0.01731   1.81706
   A42        1.85245  -0.02232   0.00000  -0.01761  -0.01768   1.83477
   A43        1.78588   0.04359   0.00000   0.03456   0.03511   1.82099
   A44        1.93454  -0.00824   0.00000  -0.00957  -0.00942   1.92512
   A45        1.86886  -0.04135   0.00000  -0.03588  -0.03572   1.83314
    D1       -2.16612   0.03776   0.00000   0.04255   0.04500  -2.12112
    D2        1.63352  -0.00802   0.00000  -0.01013  -0.01251   1.62101
    D3        1.22721   0.01110   0.00000   0.01353   0.01591   1.24312
    D4       -1.25633  -0.03468   0.00000  -0.03915  -0.04160  -1.29793
    D5       -1.77765  -0.18509   0.00000  -0.18892  -0.18653  -1.96418
    D6        0.62002  -0.07723   0.00000  -0.08162  -0.08125   0.53877
    D7        0.51366  -0.05803   0.00000  -0.06330  -0.06367   0.44999
    D8        2.91133   0.04983   0.00000   0.04400   0.04161   2.95294
    D9        2.35509   0.06614   0.00000   0.07074   0.07314   2.42823
   D10       -0.23712  -0.00284   0.00000  -0.00327  -0.00211  -0.23923
   D11       -0.08796  -0.00177   0.00000  -0.00175  -0.00291  -0.09087
   D12       -2.68017  -0.07074   0.00000  -0.07576  -0.07816  -2.75833
   D13       -2.57153  -0.13914   0.00000  -0.14603  -0.14492  -2.71645
   D14        0.14717  -0.06263   0.00000  -0.06755  -0.06802   0.07915
   D15        0.01717  -0.05702   0.00000  -0.06082  -0.06034  -0.04318
   D16        2.73587   0.01948   0.00000   0.01766   0.01655   2.75242
   D17       -2.29778   0.00600   0.00000   0.00789   0.00891  -2.28886
   D18        1.01913   0.00560   0.00000   0.00573   0.00670   1.02583
   D19        1.21887  -0.04287   0.00000  -0.04608  -0.04705   1.17181
   D20       -1.74741  -0.04327   0.00000  -0.04824  -0.04927  -1.79668
   D21        1.80015   0.01957   0.00000   0.02253   0.02255   1.82270
   D22       -0.37333  -0.00581   0.00000  -0.00257  -0.00240  -0.37573
   D23       -1.55315   0.04200   0.00000   0.04125   0.04109  -1.51206
   D24        2.55656   0.01662   0.00000   0.01615   0.01614   2.57270
   D25       -2.09335  -0.02438   0.00000  -0.02294  -0.02276  -2.11612
   D26        2.20227   0.00397   0.00000   0.00431   0.00427   2.20654
   D27        1.25203  -0.02946   0.00000  -0.02893  -0.02858   1.22345
   D28       -0.73553  -0.00112   0.00000  -0.00168  -0.00155  -0.73707
   D29        1.50927  -0.00835   0.00000  -0.00933  -0.00944   1.49983
   D30       -1.78773  -0.00162   0.00000  -0.00284  -0.00305  -1.79079
   D31       -2.50788  -0.00353   0.00000  -0.00248  -0.00223  -2.51012
   D32        0.47830   0.00320   0.00000   0.00401   0.00415   0.48245
   D33       -0.24855   0.00954   0.00000   0.00923   0.00914  -0.23941
   D34        2.95452   0.00772   0.00000   0.00797   0.00792   2.96244
   D35        3.04922   0.00444   0.00000   0.00410   0.00405   3.05327
   D36       -0.03089   0.00262   0.00000   0.00285   0.00283  -0.02806
   D37       -1.43045  -0.00571   0.00000  -0.00444  -0.00434  -1.43480
   D38        2.70776   0.00079   0.00000   0.00126   0.00126   2.70903
   D39        0.73825  -0.00322   0.00000  -0.00351  -0.00355   0.73470
   D40        1.64945  -0.00357   0.00000  -0.00292  -0.00286   1.64659
   D41       -0.49552   0.00292   0.00000   0.00278   0.00274  -0.49278
   D42       -2.46503  -0.00109   0.00000  -0.00199  -0.00207  -2.46710
   D43        1.65370  -0.00426   0.00000  -0.00418  -0.00432   1.64938
   D44       -0.51502  -0.00486   0.00000  -0.00434  -0.00432  -0.51935
   D45       -2.43018  -0.01278   0.00000  -0.01210  -0.01215  -2.44234
   D46       -2.55942   0.00663   0.00000   0.00539   0.00521  -2.55421
   D47        1.55504   0.00603   0.00000   0.00523   0.00521   1.56025
   D48       -0.36012  -0.00189   0.00000  -0.00253  -0.00263  -0.36274
   D49       -0.51634  -0.00071   0.00000  -0.00064  -0.00069  -0.51703
   D50       -2.68506  -0.00131   0.00000  -0.00080  -0.00070  -2.68576
   D51        1.68296  -0.00923   0.00000  -0.00856  -0.00853   1.67443
   D52        0.07303  -0.01381   0.00000  -0.01110  -0.01096   0.06207
   D53       -2.00246  -0.00936   0.00000  -0.00845  -0.00839  -2.01085
   D54        2.23843  -0.00754   0.00000  -0.00649  -0.00645   2.23198
   D55        0.16294  -0.00308   0.00000  -0.00384  -0.00388   0.15907
   D56       -2.10469  -0.00688   0.00000  -0.00536  -0.00533  -2.11002
   D57        2.10301  -0.00242   0.00000  -0.00271  -0.00276   2.10025
   D58       -1.03698  -0.01911   0.00000  -0.01514  -0.01477  -1.05175
   D59        0.99842  -0.02505   0.00000  -0.02448  -0.02444   0.97398
   D60        1.01283  -0.00202   0.00000  -0.00034  -0.00016   1.01267
   D61        3.04823  -0.00796   0.00000  -0.00969  -0.00983   3.03840
         Item               Value     Threshold  Converged?
 Maximum Force            0.185087     0.000450     NO 
 RMS     Force            0.044287     0.000300     NO 
 Maximum Displacement     1.832536     0.001800     NO 
 RMS     Displacement     0.387914     0.001200     NO 
 Predicted change in Energy=-2.067120D-01
 GradGradGradGradGradGradGradGradGradGradGradGradGradGradGradGradGradGrad

                          Input orientation:                          
 ---------------------------------------------------------------------
 Center     Atomic      Atomic             Coordinates (Angstroms)
 Number     Number       Type             X           Y           Z
 ---------------------------------------------------------------------
      1         16           0        1.865895    0.397072    0.617160
      2          6           0        3.037967    0.724182   -0.572352
      3          6           0        3.246082   -0.373145   -1.523002
      4          6           0        4.535674   -0.818099   -1.541807
      5          6           0        5.318143   -0.593784   -2.727308
      6          6           0        6.618139   -0.217459   -2.558572
      7          6           0        7.285085    0.503691   -3.587715
      8          6           0        8.510118    0.008486   -3.923548
      9          6           0        8.831020   -0.770787   -5.134487
     10          6           0        9.143973   -0.186159   -6.294598
     11          6           0        8.868192    1.279727   -6.451651
     12          6           0        7.372849    1.520768   -6.834239
     13          7           0        6.263162    1.828685   -5.798640
     14         16           0        6.594541    2.029657   -4.075616
     15         16           0        3.806815    2.421883   -1.043324
     16          1           0        2.608870   -0.219089   -2.378474
     17          1           0        5.098393   -0.747566   -0.610034
     18          1           0        4.812291   -0.287001   -3.648087
     19          1           0        7.086293   -0.154936   -1.590378
     20          1           0        8.949511   -0.606176   -3.132655
     21          1           0        8.947253   -1.852227   -5.031164
     22          1           0        9.537391   -0.771930   -7.127309
     23          1           0        9.562118    1.650614   -7.218397
     24          1           0        9.143302    1.831650   -5.547338
     25          1           0        7.040359    0.635183   -7.402844
     26          1           0        7.380504    2.322670   -7.581163
     27          1           0        5.637828    1.024342   -5.857482
     28          1           0        7.524521    3.007627   -4.009374
 ---------------------------------------------------------------------
                    Distance matrix (angstroms):
                    1          2          3          4          5
     1  S    0.000000
     2  C    1.701673   0.000000
     3  C    2.660534   1.466688   0.000000
     4  C    3.642183   2.358305   1.364326   0.000000
     5  C    4.907675   3.402951   2.406755   1.438050   0.000000
     6  C    5.748629   4.201118   3.530922   2.394001   1.363848
     7  C    6.860026   5.213352   4.620111   3.673163   2.411143
     8  C    8.056967   6.456561   5.798132   4.706606   3.461564
     9  C    9.108144   7.523794   6.662767   5.599963   4.262176
    10  C   10.054002   8.417608   7.588689   6.650172   5.246779
    11  C    9.988960   8.298573   7.657133   6.875912   5.475730
    12  C    9.333412   7.657479   6.987586   6.444355   5.055693
    13  N    7.908727   6.239864   5.677315   5.301916   4.024238
    14  S    6.859123   5.160073   4.847832   4.332302   3.213965
    15  S    3.259484   1.922273   2.890795   3.358156   3.770168
    16  H    3.147298   2.082297   1.077778   2.184353   2.757216
    17  H    3.642147   2.532354   2.098751   1.090792   2.134196
    18  H    5.228913   3.692000   2.641290   2.189748   1.094456
    19  H    5.694777   4.265932   3.846995   2.635868   2.147453
    20  H    8.077451   6.578097   5.930799   4.696559   3.653942
    21  H    9.333195   7.838275   6.855525   5.719008   4.479048
    22  H   10.963357   9.351381   8.434918   7.497809   6.098672
    23  H   11.054373   9.359099   8.742164   7.973917   6.574080
    24  H    9.644672   7.953119   7.472189   6.655501   5.335461
    25  H    9.547368   7.917240   7.070064   6.537372   5.131961
    26  H   10.066346   8.398585   7.814229   7.377758   6.026520
    27  H    7.519437   5.897625   5.144039   4.820206   3.538152
    28  H    7.761434   6.095606   5.993054   5.445941   4.413837
                    6          7          8          9         10
     6  C    0.000000
     7  C    1.422677   0.000000
     8  C    2.343885   1.363348   0.000000
     9  C    3.440691   2.531149   1.475337   0.000000
    10  C    4.509846   3.355380   2.462018   1.336258   0.000000
    11  C    4.739238   3.363122   2.852293   2.437398   1.499848
    12  C    4.676789   3.403244   3.471671   3.204160   2.518272
    13  N    3.848474   2.772747   3.446434   3.713791   3.550302
    14  S    2.711367   1.744554   2.788851   3.737048   4.041450
    15  S    4.143145   4.717176   6.020070   7.223116   7.928620
    16  H    4.013312   4.883816   6.104406   6.827527   7.618706
    17  H    2.527339   3.900494   4.815689   5.865469   6.999726
    18  H    2.110205   2.596835   3.719828   4.312031   5.077170
    19  H    1.077254   2.112501   2.738187   3.998006   5.134657
    20  H    2.432276   2.051633   1.093795   2.012081   3.195639
    21  H    3.769741   3.224391   2.209107   1.092565   2.100178
    22  H    5.450030   4.385068   3.453755   2.114308   1.091473
    23  H    5.819852   4.436459   3.828749   3.277250   2.098091
    24  H    4.416789   3.009414   2.522210   2.653422   2.151733
    25  H    4.936825   3.825231   3.828634   3.213823   2.515552
    26  H    5.679778   4.389239   4.473212   4.202344   3.325552
    27  H    3.658673   2.852433   3.608617   3.733856   3.734894
    28  H    3.650690   2.550455   3.158103   4.153220   4.247958
                   11         12         13         14         15
    11  C    0.000000
    12  C    1.562218   0.000000
    13  N    2.741160   1.548769   0.000000
    14  S    3.373044   2.911139   1.766072   0.000000
    15  S    7.494803   6.860271   5.385031   4.137639   0.000000
    16  H    7.616845   6.751033   5.407843   4.880853   3.192559
    17  H    7.241947   7.004229   5.908925   4.686330   3.449830
    18  H    5.173485   4.469458   3.347542   2.953998   3.890222
    19  H    5.372653   5.512548   4.724592   3.345247   4.206453
    20  H    3.818243   4.550986   4.500277   3.658233   6.323114
    21  H    3.439938   4.136052   4.619792   4.638679   7.784279
    22  H    2.261335   3.166638   4.387383   5.081543   8.947336
    23  H    1.098631   2.226507   3.595904   4.339038   8.476432
    24  H    1.094572   2.210716   2.891084   2.949806   7.008040
    25  H    2.158976   1.103686   2.145216   3.635073   7.354700
    26  H    2.139332   1.095901   2.160986   3.604504   7.451472
    27  H    3.294466   2.052021   1.020526   2.258540   5.336839
    28  H    3.279605   3.195875   2.486444   1.351176   4.791857
                   16         17         18         19         20
    16  H    0.000000
    17  H    3.099095   0.000000
    18  H    2.543932   3.086056   0.000000
    19  H    4.546705   2.294348   3.069641   0.000000
    20  H    6.397058   4.605944   4.181403   2.460450   0.000000
    21  H    7.062506   5.964930   4.632574   4.264150   2.270899
    22  H    8.417925   7.885441   5.887844   6.086556   4.041081
    23  H    8.675730   8.327459   6.249986   6.408145   4.707619
    24  H    7.546260   6.884085   5.182036   4.882146   3.436750
    25  H    6.753678   7.198993   4.462389   5.866103   4.839457
    26  H    7.503133   7.951794   5.373564   6.489576   5.552400
    27  H    4.777469   5.564743   2.698622   4.657996   4.588084
    28  H    6.102062   5.616324   4.282674   4.005670   3.982311
                   21         22         23         24         25
    21  H    0.000000
    22  H    2.430870   0.000000
    23  H    4.175158   2.424383   0.000000
    24  H    3.725027   3.070870   1.732229   0.000000
    25  H    3.930435   2.879419   2.724773   3.049066   0.000000
    26  H    5.136824   3.799302   2.311428   2.735873   1.730638
    27  H    4.462034   4.477236   4.200518   3.610580   2.122895
    28  H    5.165889   5.297001   4.036225   2.523630   4.168758
                   26         27         28
    26  H    0.000000
    27  H    2.773743   0.000000
    28  H    3.639723   3.302807   0.000000
 Stoichiometry    C11H13NS3
 Framework group  C1[X(C11H13NS3)]
 Deg. of freedom    78
 Full point group                 C1      NOp   1
 Largest Abelian subgroup         C1      NOp   1
 Largest concise Abelian subgroup C1      NOp   1
                         Standard orientation:                         
 ---------------------------------------------------------------------
 Center     Atomic      Atomic             Coordinates (Angstroms)
 Number     Number       Type             X           Y           Z
 ---------------------------------------------------------------------
      1         16           0       -5.401275    0.272988    0.241346
      2          6           0       -3.729886   -0.023183    0.121213
      3          6           0       -2.912589    0.792535    1.025538
      4          6           0       -1.994375    1.554928    0.364461
      5          6           0       -0.600270    1.246912    0.536469
      6          6           0        0.195621    1.304449   -0.569574
      7          6           0        1.399558    0.547817   -0.614863
      8          6           0        2.497548    1.253826   -1.008168
      9          6           0        3.580645    1.737511   -0.130918
     10          6           0        4.628154    0.973866    0.193363
     11          6           0        4.552481   -0.497356   -0.088281
     12          6           0        3.774043   -1.235972    1.047062
     13          7           0        2.258808   -1.549826    0.981919
[...]
 353,0.00022796,0.00015816,-0.09686618,0.07546418,0.10047602,-0.0000265
 0,-0.00002356,0.00004320,0.00003191,0.00004642,-0.00009626,-0.00000276
 ,-0.00011016,0.00005541,-0.00004491,-0.00001769,0.00000426,0.00030133,
 0.00053260,-0.00004729,-0.00032380,-0.00001738,-0.00007551,-0.00054830
 ,0.00028489,0.00024763,0.00613572,0.00207788,0.00409560,0.00232374,0.0
 0135237,0.00190653,-0.16234052,-0.03597280,0.13531554,-0.01022094,-0.0
 0385153,0.01312211,0.00107646,-0.00143917,0.00168518,-0.00022514,-0.00
 007232,-0.00056728,0.00001299,0.00003907,0.00011217,-0.00001474,0.0000
 4106,0.00003164,0.00000072,0.00000228,-0.00000209,-0.00000461,0.000006
 08,-0.00000181,0.00004305,0.00000945,0.00000389,-0.00018465,-0.0005243
 1,0.00010805,0.00028925,0.00028841,-0.00043255,-0.00280616,-0.00103470
 ,-0.00434876,0.16717269,-0.00002692,-0.00001954,0.00004829,0.00005230,
 0.00004520,-0.00014036,0.00007620,-0.00019555,0.00005738,-0.00022438,0
 .00007396,0.00002841,0.00038443,0.00021503,0.00006226,-0.00033028,0.00
 031610,0.00028166,0.00013650,-0.00070969,-0.00079800,0.00228189,-0.002
 75702,0.00264910,-0.02030595,-0.00811279,0.02486955,-0.03231968,-0.064
 97050,0.04138775,0.01742261,0.00606668,-0.01706541,-0.00024564,0.00139
 849,-0.00120599,0.00004731,0.00000442,0.00011930,-0.00002056,-0.000104
 18,0.00003724,-0.00006041,0.00015409,0.00008313,-0.00001260,-0.0000033
 0,0.00000068,-0.00000427,-0.00000949,-0.00001199,-0.00004919,-0.000031
 95,-0.00001442,-0.00013173,-0.00020980,0.00009497,-0.00057967,-0.00049
 198,0.00060987,-0.00179975,0.00030547,-0.00086558,0.03425925,0.0722466
 7,0.00001973,0.00002128,-0.00002996,-0.00005220,-0.00005720,0.00005602
 ,-0.00008562,0.00004423,0.00003681,0.00002361,-0.00002154,-0.00001785,
 0.00015341,0.00056821,0.00002842,-0.00033200,0.00015462,-0.00010591,-0
 .00046232,-0.00027041,0.00024189,0.00404928,0.00359265,0.00682515,0.01
 014623,0.00085016,-0.00594074,0.13441513,0.04584869,-0.18489903,0.0076
 2939,0.00332740,-0.00656723,-0.00051394,-0.00022211,0.00058788,0.00015
 711,-0.00004965,0.00013506,-0.00012079,-0.00004616,-0.00002461,0.00005
 375,-0.00005084,-0.00004771,-0.00000185,-0.00000557,0.00000019,0.00000
 351,0.00000411,-0.00000202,-0.00000363,-0.00001670,-0.00000173,-0.0001
 6206,-0.00049394,0.00010900,0.00060175,0.00056276,-0.00102680,-0.00455
 299,-0.00099941,-0.00288582,-0.15161907,-0.05046646,0.19127636,0.00002
 072,0.00002930,-0.00002873,-0.00001585,-0.00007647,0.00005534,-0.00006
 423,0.00002923,-0.00002725,0.00014300,-0.00002207,0.00004570,-0.000118
 40,0.00008953,-0.00019072,0.00006399,-0.00007265,0.00000625,-0.0000578
 6,0.00045374,0.00004087,0.00036799,-0.00031149,0.00044018,-0.00150433,
 0.00175149,0.00068033,0.01236817,0.01652930,0.00807799,-0.12465298,-0.
 10306110,-0.05119318,-0.00980713,-0.01345993,-0.00441395,-0.00291591,0
 .00108520,-0.00454975,0.00139286,0.00051471,-0.00045744,0.00002891,0.0
 0000274,-0.00002808,0.00001006,0.00000198,-0.00000348,-0.00001131,0.00
 000395,0.00003169,0.00009613,0.00003276,-0.00002037,0.00001439,-0.0001
 9828,-0.00003635,0.00003774,0.00003836,-0.00000617,-0.00125523,0.00005
 627,-0.00125035,0.00029243,-0.00101819,-0.00042523,0.13718376,-0.00002
 224,-0.00001244,0.00004153,0.00005513,0.00002475,-0.00011853,0.0000673
 3,-0.00016105,0.00003973,-0.00013207,0.00005387,0.00001986,0.00017622,
 0.00002620,0.00004283,0.00004221,0.00009220,0.00028417,-0.00005393,-0.
 00008204,-0.00065653,-0.00037766,0.00036624,-0.00068212,0.00253751,-0.
 00028782,-0.00264873,-0.01201719,-0.02411395,-0.00830649,-0.10735330,-
 0.17611262,-0.07031223,0.00694192,0.00850491,0.00461195,0.00201762,0.0
 0054145,0.00251785,-0.00014393,-0.00017654,0.00033039,-0.00005993,0.00
 015399,0.00007442,-0.00000486,0.00000046,0.00000035,-0.00001024,-0.000
 01080,0.00000862,0.00003330,-0.00002002,-0.00000745,-0.00011429,-0.000
 06290,0.00015579,-0.00006714,-0.00003025,0.00006139,0.00150631,-0.0003
 3520,0.00157261,0.00065434,0.00079817,0.00020270,0.11170891,0.19664002
 ,-0.00001121,-0.00001000,0.00001748,0.00001953,0.00002779,-0.00003845,
 0.00003122,-0.00004028,0.00000096,-0.00006809,0.00002444,-0.00000885,-
 0.00001091,-0.00012042,0.00010338,-0.00012102,-0.00002045,-0.00018380,
 0.00023070,-0.00088352,0.00027736,-0.00066992,0.00031387,0.00057659,0.
 00060664,0.00031244,-0.00139234,-0.00406925,-0.00690013,-0.00256440,-0
 .05178080,-0.06970177,-0.08010307,-0.01565882,-0.01971245,-0.01053632,
 -0.00432120,0.00154544,-0.00424814,0.00102177,0.00059065,-0.00107673,-
 0.00002144,0.00002825,0.00002522,-0.00000318,0.00000234,0.00000047,0.0
 0000752,-0.00000147,-0.00001383,-0.00007669,-0.00001128,-0.00002253,0.
 00005301,0.00022146,-0.00002558,-0.00010866,0.00001149,-0.00003371,0.0
 0019198,-0.00002969,0.00035899,0.00028471,0.00026556,0.00043295,0.0604
 5410,0.07704953,0.08700939,-0.00001362,-0.00001673,0.00001972,0.000022
 57,0.00005537,-0.00005123,0.00009992,-0.00006413,-0.00001202,-0.000235
 61,0.00015407,0.00000230,0.00059426,-0.00027732,0.00009361,0.00001196,
 -0.00103266,0.00017847,-0.00023005,0.00019745,0.00073084,0.00016143,0.
 00011453,-0.00042418,0.00061696,-0.00064399,-0.00001478,-0.01365094,-0
 .00569620,0.01365488,-0.15829177,-0.04710000,0.12094688,0.01165403,0.0
 0555928,-0.01350603,0.00139445,0.00019180,0.00147373,-0.00054337,-0.00
 040705,0.00007191,-0.00004385,0.00005650,0.00005463,-0.00001377,-0.000
 00459,-0.00000006,-0.00000616,-0.00005091,-0.00002837,-0.00021698,-0.0
 0007161,0.00005440,0.00002024,0.00006487,-0.00015035,0.00013118,0.0000
 5273,0.00002276,0.00012291,-0.00005931,-0.00007193,-0.00084120,0.00312
 903,0.00081791,-0.01199427,-0.00512935,0.01317684,0.17180413,-0.000008
 31,-0.00002319,0.00000590,-0.00001440,0.00005608,0.00004156,-0.0000326
 7,0.00008331,-0.00002543,0.00008864,-0.00007894,-0.00004889,0.00002398
 ,-0.00002812,0.00016072,-0.00062135,-0.00046614,0.00102901,-0.00019013
 ,-0.00116986,0.00091380,0.00024100,-0.00066960,0.00034543,-0.00020489,
 0.00097656,0.00028400,0.01790034,0.00881416,-0.01978303,-0.04867914,-0
 .06931133,0.05289165,-0.00852160,-0.00488678,0.00902009,0.00028639,0.0
 0038802,-0.00109997,0.00004157,0.00027506,-0.00045382,0.00004037,-0.00
 014936,-0.00004353,0.00001586,0.00001176,-0.00000121,0.00001033,0.0000
 1108,-0.00001486,-0.00003065,0.00008868,0.00005688,0.00002308,0.000055
 28,-0.00002940,-0.00004905,0.00001067,-0.00009821,-0.00033199,0.000241
 55,0.00002994,0.00300998,-0.00376060,-0.00217048,-0.01452665,-0.006847
 17,0.01702747,0.04985685,0.07630963,-0.00000508,-0.00000422,0.00000959
 ,0.00000807,0.00000796,-0.00004128,0.00003514,-0.00002407,0.00003318,-
 0.00000896,-0.00009072,-0.00010212,0.00000007,0.00004563,0.00005874,0.
 00047643,0.00096251,-0.00152790,0.00008728,0.00087988,0.00006119,-0.00
 076591,0.00004760,0.00036307,-0.00038045,0.00066224,-0.00061148,0.0059
 6316,0.00129200,-0.00660368,0.12247525,0.05027820,-0.17989673,0.015229
 10,0.00894237,-0.01993943,0.00145385,-0.00058593,0.00232540,-0.0007124
 3,-0.00067024,-0.00019842,-0.00002479,0.00004316,0.00001457,-0.0000156
 4,-0.00000404,0.00000419,0.00001229,0.00001184,-0.00002525,-0.00003215
 ,-0.00002900,0.00003775,0.00003683,0.00011731,-0.00005765,-0.00008671,
 -0.00007268,-0.00009959,-0.00003589,-0.00002416,-0.00004761,0.00141483
 ,-0.00072421,0.00121266,-0.00810739,-0.00329228,0.00888912,-0.13387340
 ,-0.05962342,0.19825988,-0.00001065,-0.00000586,0.00001741,0.00002993,
 0.00000840,-0.00001423,-0.00004281,-0.00001420,-0.00002748,0.00008039,
 -0.00001551,0.00002777,-0.00015807,0.00002753,-0.00007213,0.00000896,0
 .00010772,0.00002358,0.00003504,0.00000063,-0.00004193,0.00003448,0.00
 004779,0.00000250,-0.00001639,-0.00008118,-0.00000625,0.00142753,-0.00
 028432,-0.00069218,0.00989580,0.00602939,-0.01237019,-0.14665761,-0.04
 254405,0.11366739,-0.02123001,-0.00875759,0.01073053,-0.00238806,-0.00
 402315,-0.00060631,0.00000433,-0.00000837,0.00000195,0.00001371,0.0000
 0816,-0.00000626,-0.00000057,0.00000703,0.00002016,0.00001720,0.000009
 64,-0.00004383,0.00001717,-0.00001030,0.00001257,-0.00003549,0.0000128
 1,-0.00002856,-0.00005434,0.00000992,-0.00003252,0.00002728,-0.0003132
 4,0.00032324,0.00068870,-0.00042747,0.00094599,-0.00125335,0.00185725,
 -0.00280155,0.16842059,0.00000016,0.00000412,0.00000147,0.00000848,-0.
 00001043,-0.00000235,-0.00001757,-0.00000938,-0.00001804,0.00005480,-0
 .00000819,0.00002374,-0.00005883,-0.00000525,-0.00008098,0.00002441,-0
 .00008626,-0.00004932,-0.00002327,0.00009482,0.00014072,0.00005453,-0.
 00000621,-0.00000504,0.00011368,0.00000629,-0.00012778,-0.00179118,0.0
 0061397,0.00047931,-0.00686562,-0.00373747,0.01186485,-0.03941977,-0.0
 6857345,0.04749120,-0.02131160,-0.00723041,0.00939395,-0.00294837,-0.0
 0213360,0.00096677,0.00000231,0.00000898,0.00000335,0.00000446,-0.0000
 0035,-0.00000285,-0.00000203,0.00000518,0.00001088,0.00001003,-0.00000
 102,-0.00003010,0.00002224,-0.00000943,-0.00002562,0.00004084,0.000023
 76,-0.00003178,0.00002291,-0.00003368,-0.00000208,0.00057405,-0.000216
 01,-0.00024757,0.00015125,0.00035720,-0.00022034,0.00134427,0.00002367
 ,0.00202044,0.05318805,0.07256999,0.00003397,0.00003443,-0.00005029,-0
 .00005522,-0.00008238,0.00010958,-0.00008261,0.00011004,-0.00002202,0.
 00008202,-0.00000753,-0.00000656,-0.00013154,0.00008815,0.00001180,0.0
 0003692,0.00020891,0.00007225,0.00007974,0.00005126,-0.00021107,0.0000
 0229,-0.00017890,-0.00006158,-0.00022912,0.00026310,0.00038609,0.00146
 587,-0.00195571,0.00062227,0.01543771,0.00843128,-0.02090366,0.1181289
 8,0.04895704,-0.17658208,-0.01197821,-0.00432852,0.00998539,-0.0039489
 7,-0.00243995,0.00179403,0.00005448,-0.00006772,-0.00005975,0.00000169
 ,-0.00000532,-0.00000112,0.00000425,-0.00000082,0.00000871,-0.00003401
 ,-0.00002681,-0.00002479,-0.00000362,-0.00004048,0.00002954,-0.0000542
 3,-0.00000834,0.00000286,-0.00000687,0.00011064,-0.00000823,-0.0009101
 9,0.00066685,0.00055606,-0.00003501,-0.00054972,0.00050425,-0.00370810
 ,0.00175959,-0.00293374,-0.12049294,-0.05417783,0.19286575,0.00001501,
 0.00000531,-0.00002730,-0.00003939,-0.00001151,0.00008652,-0.00005679,
 0.00012590,-0.00002237,0.00010959,-0.00004090,-0.00001827,-0.00013197,
 0.00003369,-0.00003258,0.00008549,-0.00005938,-0.00006705,-0.00004344,
 0.00021317,0.00017343,-0.00003065,-0.00015800,-0.00010868,-0.00067109,
 0.00027446,0.00052421,-0.00034834,0.00148707,-0.00381263,-0.00830849,0
 .01146640,0.00485253,-0.12174902,0.11563466,0.04513269,0.00843368,-0.0
 2337312,-0.01104097,0.00209458,-0.00033039,-0.00016053,0.00004632,-0.0
 0012280,-0.00005773,0.00000610,-0.00000243,0.00000063,0.00000227,0.000
 00773,0.00000190,0.00000708,0.00000709,0.00000383,0.00002817,-0.000018
 18,-0.00004343,0.00006798,0.00002193,-0.00007136,0.00023795,0.00027668
 ,0.00014039,0.00030006,-0.00034177,-0.00002814,0.00000304,-0.00020868,
 0.00028768,0.00062910,-0.00026134,-0.00026001,-0.00940166,0.01581967,0
 .00535135,0.13101414,0.00000346,0.00001208,0.00000060,0.00000308,-0.00
 002513,-0.00004392,0.00004944,-0.00008483,0.00002288,-0.00009928,0.000
 04380,0.00001322,0.00012801,-0.00001961,0.00005136,-0.00006142,0.00004
 687,0.00004318,0.00004906,-0.00018838,-0.00016164,0.00005482,0.0002058
 1,0.00013772,0.00052151,0.00004699,-0.00054651,0.00042393,0.00038386,0
 .00275197,0.00815010,-0.00984135,-0.00296234,0.10706918,-0.21346587,-0
 .06004480,0.00690729,-0.02286382,-0.01256135,0.00148736,0.00154322,0.0
 0015621,-0.00002920,0.00011168,0.00003987,-0.00001353,-0.00001028,0.00
 000300,-0.00000278,-0.00000948,-0.00000563,-0.00002564,-0.00003488,-0.
 00001335,-0.00002808,0.00001882,0.00003421,-0.00004481,0.00000352,0.00
 003040,-0.00022763,-0.00015896,-0.00014447,0.00006128,-0.00007480,-0.0
 0014916,0.00004973,0.00075492,0.00006385,-0.00041883,0.00002523,-0.000
 27011,-0.00447203,0.00881521,0.00292427,-0.11609674,0.23711872,-0.0000
 0524,-0.00001121,0.00000333,0.00000138,0.00002262,0.00003378,-0.000047
 31,0.00006772,-0.00002887,0.00011525,-0.00004647,-0.00000389,-0.000145
 84,0.00000593,-0.00008425,0.00007175,-0.00005521,-0.00001819,-0.000010
 45,0.00018233,0.00011920,-0.00019109,-0.00028157,-0.00015412,-0.000910
 86,0.00091996,0.00112252,-0.00129368,0.00102230,-0.00525485,-0.0164233
 3,0.02183542,0.00609246,0.03997594,-0.06136843,-0.06963846,0.00712747,
 -0.01567234,-0.00762351,0.00017580,0.00111656,0.00021579,0.00002695,-0
 .00009578,-0.00003369,0.00001619,0.00000893,-0.00000437,0.00000170,0.0
 0001132,0.00000930,0.00002601,0.00003670,-0.00000472,0.00003432,-0.000
 01559,-0.00003943,0.00004189,0.00000988,-0.00006096,0.00042267,0.00050
 575,0.00028468,-0.00027517,0.00002232,0.00013310,0.00069148,-0.0006259
 1,0.00135460,0.00076054,-0.00015735,0.00087356,0.01109780,-0.01777689,
 -0.00643233,-0.03842708,0.07168876,0.07884465,-0.00003148,-0.00002321,
 0.00004539,0.00006416,0.00005126,-0.00010488,0.00003366,-0.00012306,0.
 00000996,-0.00008135,0.00002624,0.00002153,0.00008588,-0.00002618,-0.0
 0000087,-0.00007735,0.00007978,0.00009463,0.00003454,-0.00030204,-0.00
 016679,-0.00006726,0.00019065,0.00012552,0.00006032,0.00103242,-0.0000
 6433,0.00030246,-0.00073716,0.00038944,0.00026598,-0.00083068,-0.00036
 600,0.01164288,-0.02186714,-0.01205397,-0.12935982,0.14559527,0.069570
 62,-0.01721232,0.01426739,0.00415218,-0.00004523,0.00008507,0.00006040
 ,0.00000387,0.00001231,-0.00000834,0.00000179,-0.00000172,0.00000218,-
 0.00000347,0.00000879,-0.00000745,-0.00001977,0.00002261,0.00004969,-0
 .00005477,-0.00003665,0.00005162,-0.00010843,0.00005588,-0.00007463,-0
 .00045983,-0.00002876,-0.00004284,-0.00018673,0.00024884,0.00001509,-0
 .00001644,0.00004806,0.00004886,0.00049530,0.00090703,0.00090325,-0.00
 246944,-0.00314461,-0.00263571,0.14110252,-0.00000472,-0.00000609,0.00
 000939,0.00002347,0.00000610,0.00001161,-0.00006705,0.00001997,-0.0000
 4006,0.00011656,-0.00002338,0.00003481,-0.00018096,-0.00000071,-0.0000
 8464,0.00003649,-0.00001641,-0.00001951,-0.00004465,0.00009621,0.00014
 129,-0.00004373,-0.00010126,-0.00000672,-0.00027493,-0.00030718,0.0000
 9381,-0.00006371,0.00088306,-0.00063238,0.00060384,0.00139385,0.000922
 90,0.01257955,-0.02050526,-0.00338133,0.14241295,-0.31672108,-0.124361
 59,-0.01393457,0.00700147,0.01196850,0.00001423,-0.00004409,-0.0000138
 7,0.00002148,0.00001610,-0.00001229,-0.00000023,0.00001274,0.00002281,
 0.00001630,0.00007478,-0.00005773,0.00003011,-0.00002350,-0.00001586,0
 .00003898,-0.00003877,0.00002706,0.00019669,0.00005092,0.00009856,-0.0
 0013649,-0.00002043,0.00008663,0.00030251,-0.00014482,0.00025651,-0.00
 001833,0.00009053,-0.00015847,-0.00030613,-0.00023238,0.00022594,-0.00
 440478,-0.00229591,-0.00137128,-0.13625182,0.33043046,-0.00005486,-0.0
 0004719,0.00008468,0.00009196,0.00011694,-0.00021370,0.00015103,-0.000
 23705,0.00006090,-0.00021936,0.00004950,0.00001730,0.00027342,-0.00001
 191,0.00004574,-0.00010758,0.00004643,0.00009389,0.00005135,-0.0003701
 6,-0.00041148,0.00012436,0.00048124,-0.00009481,0.00048435,0.00092837,
 -0.00024918,-0.00053386,-0.00051637,0.00097050,0.00167034,-0.00049649,
 -0.00012615,0.00380081,-0.01790467,-0.00810996,0.04191547,-0.09149340,
 -0.04367491,0.02002426,-0.00783474,-0.01324363,-0.00010464,0.00018330,
 0.00012542,-0.00001780,-0.00000689,0.00000591,-0.00000542,-0.00001059,
 -0.00001594,0.00002009,-0.00008894,-0.00000855,-0.00006659,0.00004460,
 0.00008049,-0.00007281,-0.00001744,0.00007891,0.00000641,-0.00009632,0
 .00004020,0.00006931,-0.00003803,-0.00010997,0.00023421,0.00029336,0.0
 0038634,-0.00004158,0.00002174,-0.00043683,0.00015094,0.00046556,0.000
 27838,-0.00187453,-0.00110528,0.00009412,-0.06396401,0.11598454,0.0641
 4053,0.00000272,0.00000038,-0.00000591,-0.00000351,-0.00000252,0.00003
 141,-0.00003140,0.00004650,-0.00001060,0.00005605,-0.00001529,0.000000
 55,-0.00006781,0.00003990,0.00001679,0.00002509,-0.00000634,-0.0000498
 8,0.00002624,0.00007632,0.00003043,0.00002587,-0.00006450,0.00000146,-
 0.00012857,-0.00003629,0.00013837,0.00012137,-0.00019731,-0.00027006,-
 0.00071412,-0.00079216,0.00002708,-0.00129460,0.00443699,-0.00024022,-
 0.02178308,0.00119653,0.00306941,-0.10588948,0.06540849,-0.08110500,0.
 00001571,-0.00004783,-0.00002236,0.00000484,0.00000612,-0.00000222,-0.
 00000117,0.00000139,0.00000974,0.00003595,-0.00003548,-0.00003968,0.00
 001296,-0.00000995,-0.00001132,0.00000519,0.00001998,-0.00002585,0.000
 01096,0.00003040,-0.00001254,0.00003643,0.00002348,0.00000864,-0.00012
 765,0.00013265,-0.00040558,0.00008824,0.00002847,-0.00013083,0.0000525
 8,0.00009507,0.00008812,0.00016971,-0.00029366,-0.00022139,-0.00389970
 ,-0.00066108,-0.00200526,0.13325116,-0.00002627,-0.00002587,0.00003200
 ,0.00004311,0.00006144,-0.00005066,0.00001702,-0.00003213,-0.00000081,
 -0.00002384,0.00001241,0.00001621,0.00002485,0.00009154,-0.00012293,-0
 .00000514,0.00001161,0.00004117,0.00014850,-0.00010397,-0.00016702,0.0
 0006959,0.00005538,0.00014968,-0.00004744,0.00005698,0.00009085,-0.000
 00895,-0.00027522,0.00011006,-0.00023383,-0.00038162,-0.00013463,-0.00
 258855,0.00129036,-0.00055538,-0.00718028,0.00272889,-0.00719388,0.078
 44609,-0.06356765,0.07860198,-0.00002592,0.00000204,0.00002656,0.00000
 954,0.00000634,-0.00000413,-0.00000808,-0.00001849,0.00000589,-0.00001
 859,-0.00016560,-0.00003692,-0.00000771,0.00000667,0.00002012,-0.00004
 140,0.00004479,-0.00001771,0.00000005,0.00001100,-0.00001449,-0.000039
 32,0.00006335,0.00000375,-0.00008416,0.00008324,-0.00008930,0.00021423
 ,-0.00007021,0.00026241,-0.00005092,-0.00022968,0.00003851,0.00005626,
 -0.00005742,0.00002154,0.00074145,0.00040510,0.00165990,-0.06938028,0.
 05999672,0.00002833,0.00001016,-0.00004915,-0.00004583,-0.00001906,0.0
 0016764,-0.00012145,0.00024279,-0.00003546,-0.00018933,0.00005662,-0.0
 0017873,0.00039547,0.00010842,0.00031535,0.00005662,-0.00005863,-0.000
 09563,-0.00001792,-0.00001327,0.00008038,-0.00005782,0.00004276,-0.000
 09029,0.00013586,0.00007509,-0.00006950,0.00001085,-0.00016094,0.00026
 254,0.00058856,0.00049289,-0.00073537,-0.00009743,-0.00079377,-0.00132
 183,0.01490733,-0.00859233,0.00865022,-0.09976884,0.08147766,-0.107067
 40,0.00007446,-0.00022127,-0.00009952,-0.00002151,0.00002657,-0.000010
 12,0.00003702,-0.00005791,-0.00006240,-0.00031539,-0.00010216,0.000195
 64,-0.00005902,0.00002050,-0.00000254,-0.00001981,-0.00000077,-0.00000
 651,-0.00003221,0.00000386,0.00001144,-0.00012409,0.00004609,0.0000278
 1,0.00001533,-0.00010709,0.00031065,-0.00017742,-0.00003818,0.00037880
 ,0.00021452,-0.00006369,0.00007024,-0.00050248,0.00004708,0.00020057,0
 .00394946,0.00027135,0.00019182,0.08113672,-0.07269278,0.09896134\\0.0
 0000871,-0.00000197,0.00000429,-0.00001353,0.00001647,-0.00001121,-0.0
 0000112,-0.00000380,-0.00000040,0.00000628,-0.00000224,0.00000654,0.00
 000252,-0.00000210,-0.00000443,-0.00000589,0.00000176,-0.00000088,-0.0
 0000198,-0.00000967,-0.00000042,0.00001024,0.00002957,-0.00000783,-0.0
 0000360,-0.00002181,0.00000693,0.00000402,0.00000185,-0.00000079,-0.00
 000660,-0.00000291,-0.00000017,0.00000448,0.00000765,0.00000262,0.0000
 0217,-0.00000794,0.00000030,-0.00000452,0.00000350,-0.00000175,0.00000
 060,-0.00001003,0.00000462,0.00000263,0.00000344,-0.00000007,0.0000014
 4,0.00000129,-0.00000124,-0.00000119,0.00000126,0.00000079,-0.00000136
 ,-0.00000248,0.00000186,-0.00000116,-0.00000474,0.00000386,-0.00000016
 ,0.00000043,-0.00000037,-0.00000004,0.00000077,0.00000043,0.00000225,0
 .00000060,-0.00000147,0.00000009,0.00000037,-0.00000037,0.00000050,0.0
 0000267,0.00000091,0.00000087,0.00000049,-0.00000085,0.00000207,-0.000
 00165,-0.00000420,-0.00000770,-0.00000077,0.00000329\\\@


 WE ARE REACHING THE STAGE WHERE THE PROBLEMS WE MUST SOLVE ARE 
 GOING TO BECOME INSOLUBLE WITHOUT COMPUTERS.
 I DO NOT FEAR COMPUTERS.  I FEAR THE LACK OF THEM.

                                   -- ISSAC ASIMOV
 Job cpu time:       0 days  6 hours 26 minutes 25.2 seconds.
 Elapsed time:       0 days  1 hours 36 minutes 37.4 seconds.
 File lengths (MBytes):  RWF=    571 Int=      0 D2E=      0 Chk=     21 Scr=      1
 Normal termination of Gaussian 16 at Thu May 18 01:33:03 2023.
### All Done ###
