### Starting Gaussian ###
 Entering Gaussian System, Link 0=g16
 Initial command:
 /cluster/software/gaussian/gaussian-16-A.03/avx2/g16/l1.exe "/local/scratch/cz9n3/Gau-8067.inp" -scrdir="/local/scratch/cz9n3/"
 Entering Link 1 = /cluster/software/gaussian/gaussian-16-A.03/avx2/g16/l1.exe PID=      8068.
  
 Copyright (c) 1988,1990,1992,1993,1995,1998,2003,2009,2016,
            Gaussian, Inc.  All Rights Reserved.
  
 This is part of the Gaussian(R) 16 program.  It is based on
 the Gaussian(R) 09 system (copyright 2009, Gaussian, Inc.),
 the Gaussian(R) 03 system (copyright 2003, Gaussian, Inc.),
 the Gaussian(R) 98 system (copyright 1998, Gaussian, Inc.),
 the Gaussian(R) 94 system (copyright 1995, Gaussian, Inc.),
 the Gaussian 92(TM) system (copyright 1992, Gaussian, Inc.),
 the Gaussian 90(TM) system (copyright 1990, Gaussian, Inc.),
 the Gaussian 88(TM) system (copyright 1988, Gaussian, Inc.),
 the Gaussian 86(TM) system (copyright 1986, Carnegie Mellon
 University), and the Gaussian 82(TM) system (copyright 1983,
 Carnegie Mellon University). Gaussian is a federally registered
 trademark of Gaussian, Inc.
  
 This software contains proprietary and confidential information,
 including trade secrets, belonging to Gaussian, Inc.
  
 This software is provided under written license and may be
 used, copied, transmitted, or stored only in accord with that
 written license.
  
 The following legend is applicable only to US Government
 contracts under FAR:
  
                    RESTRICTED RIGHTS LEGEND
  
 Use, reproduction and disclosure by the US Government is
 subject to restrictions as set forth in subparagraphs (a)
 and (c) of the Commercial Computer Software - Restricted
 Rights clause in FAR 52.227-19.
  
 Gaussian, Inc.
 340 Quinnipiac St., Bldg. 40, Wallingford CT 06492
  
  
 ---------------------------------------------------------------
 Warning -- This program may not be used in any manner that
 competes with the business of Gaussian, Inc. or will provide
 assistance to any competitor of Gaussian, Inc.  The licensee
 of this program is prohibited from giving any competitor of
 Gaussian, Inc. access to this program.  By using this program,
 the user acknowledges that Gaussian, Inc. is engaged in the
 business of creating and licensing software in the field of
 computational chemistry and represents and warrants to the
 licensee that it is not a competitor of Gaussian, Inc. and that
 it will not use this program in any manner prohibited above.
 ---------------------------------------------------------------
  

 Cite this work as:
 Gaussian 16, Revision A.03,
 M. J. Frisch, G. W. Trucks, H. B. Schlegel, G. E. Scuseria, 
 M. A. Robb, J. R. Cheeseman, G. Scalmani, V. Barone, 
 G. A. Petersson, H. Nakatsuji, X. Li, M. Caricato, A. V. Marenich, 
 J. Bloino, B. G. Janesko, R. Gomperts, B. Mennucci, H. P. Hratchian, 
 J. V. Ortiz, A. F. Izmaylov, J. L. Sonnenberg, D. Williams-Young, 
 F. Ding, F. Lipparini, F. Egidi, J. Goings, B. Peng, A. Petrone, 
 T. Henderson, D. Ranasinghe, V. G. Zakrzewski, J. Gao, N. Rega, 
 G. Zheng, W. Liang, M. Hada, M. Ehara, K. Toyota, R. Fukuda, 
 J. Hasegawa, M. Ishida, T. Nakajima, Y. Honda, O. Kitao, H. Nakai, 
 T. Vreven, K. Throssell, J. A. Montgomery, Jr., J. E. Peralta, 
 F. Ogliaro, M. J. Bearpark, J. J. Heyd, E. N. Brothers, K. N. Kudin, 
 V. N. Staroverov, T. A. Keith, R. Kobayashi, J. Normand, 
 K. Raghavachari, A. P. Rendell, J. C. Burant, S. S. Iyengar, 
 J. Tomasi, M. Cossi, J. M. Millam, M. Klene, C. Adamo, R. Cammi, 
 J. W. Ochterski, R. L. Martin, K. Morokuma, O. Farkas, 
 J. B. Foresman, and D. J. Fox, Gaussian, Inc., Wallingford CT, 2016.
 
 ******************************************
 Gaussian 16:  ES64L-G16RevA.03 25-Dec-2016
                17-May-2023 
 ******************************************
 %chk=Sdc1ccc2cccccccccc-2c1.chk
 %NProcShared=20
 Will use up to   20 processors via shared memory.
 -----------------------------
 # opt freq b3lyp/6-31g(2df,p)
 -----------------------------
 1/18=20,19=15,26=3,38=1/1,3;
 2/9=110,12=2,17=6,18=5,40=1/2;
 3/5=1,6=6,7=104,11=2,25=1,30=1,71=1,74=-5/1,2,3;
 4//1;
 5/5=2,38=5/2;
 6/7=2,8=2,9=2,10=2,28=1/1;
 7//1,2,3,16;
 1/18=20,19=15,26=3/3(2);
 2/9=110/2;
 99//99;
 2/9=110/2;
 3/5=1,6=6,7=104,11=2,25=1,30=1,71=1,74=-5/1,2,3;
 4/5=5,16=3,69=1/1;
 5/5=2,38=5/2;
 7//1,2,3,16;
 1/18=20,19=15,26=3/3(-5);
 2/9=110/2;
 6/7=2,8=2,9=2,10=2,19=2,28=1/1;
 99/9=1/99;
 -------------------
 Title Card Required
 -------------------
 Symbolic Z-matrix:
 Charge =  0 Multiplicity = 1
 S                     1.30467  -0.24718   0.07451 
 C                     3.1799   -0.36787   0.20357 
 C                     3.58408   1.05858   0.07414 
 C                     4.85937   0.97047   0.42511 
 C                     5.80166  -0.40317   0.91118 
 C                     6.8021    0.13564   1.53513 
 C                     7.55022  -0.85182   2.05242 
 C                     8.69919  -0.86776   2.59184 
 C                     9.09139  -1.9903    3.24853 
 C                     10.2225  -2.22728   3.84423 
 C                     10.30147  -3.65858   4.36022 
 C                     11.00779  -3.79103   3.24936 
 C                     9.42216  -3.93319   2.13615 
 C                     7.71246  -3.35079   1.4252 
 C                     6.08393  -2.25944   0.95883 
 C                     4.44887  -1.84832   0.44 
 H                     2.9589    2.0073   -0.18723 
 H                     5.24138   2.03896   0.43943 
 H                     7.05779   1.13613   1.71062 
 H                     7.1908   -1.80699   2.21824 
 H                     9.14543   0.02066   2.76829 
 H                     8.42911  -2.84367   3.34584 
 H                     10.98196  -1.4417    3.80874 
 H                     9.9116   -4.79319   4.15242 
 H                     12.05021  -3.25891   4.12799 
 H                     10.53329  -4.76556   2.44707 
 H                     6.9686   -3.88135   0.89951 
 H                     3.42928  -2.27384  -0.00242 
 
 Add virtual bond connecting atoms H26        and C12        Dist= 2.55D+00.
 Add virtual bond connecting atoms H26        and C13        Dist= 2.69D+00.
 Add virtual bond connecting atoms H25        and C12        Dist= 2.77D+00.
 Add virtual bond connecting atoms C5         and C15        Dist= 3.55D+00.
 Add virtual bond connecting atoms H20        and C15        Dist= 3.28D+00.
 Add virtual bond connecting atoms C13        and C14        Dist= 3.67D+00.
 Add virtual bond connecting atoms C15        and H27        Dist= 3.49D+00.
 Add virtual bond connecting atoms H20        and C14        Dist= 3.42D+00.

 GradGradGradGradGradGradGradGradGradGradGradGradGradGradGradGradGradGrad
 Berny optimization.
 Initialization pass.
                           ----------------------------
                           !    Initial Parameters    !
                           ! (Angstroms and Degrees)  !
 --------------------------                            --------------------------
 ! Name  Definition              Value          Derivative Info.                !
 --------------------------------------------------------------------------------
 ! R1    R(1,2)                  1.8835         estimate D2E/DX2                !
 ! R2    R(2,3)                  1.4882         estimate D2E/DX2                !
 ! R3    R(3,4)                  1.3256         estimate D2E/DX2                !
 ! R4    R(3,17)                 1.1659         estimate D2E/DX2                !
 ! R5    R(4,5)                  1.7352         estimate D2E/DX2                !
 ! R6    R(4,18)                 1.1348         estimate D2E/DX2                !
 ! R7    R(5,6)                  1.2963         estimate D2E/DX2                !
 ! R8    R(5,15)                 1.8782         estimate D2E/DX2                !
 ! R9    R(6,7)                  1.3425         estimate D2E/DX2                !
 ! R10   R(6,19)                 1.0475         estimate D2E/DX2                !
 ! R11   R(7,8)                  1.2694         estimate D2E/DX2                !
 ! R12   R(7,20)                 1.0339         estimate D2E/DX2                !
 ! R13   R(8,9)                  1.3584         estimate D2E/DX2                !
 ! R14   R(8,21)                 1.0097         estimate D2E/DX2                !
 ! R15   R(9,10)                 1.3002         estimate D2E/DX2                !
 ! R16   R(9,22)                 1.0846         estimate D2E/DX2                !
 ! R17   R(10,11)                1.5235         estimate D2E/DX2                !
 ! R18   R(10,23)                1.0932         estimate D2E/DX2                !
 ! R19   R(11,12)                1.323          estimate D2E/DX2                !
 ! R20   R(11,24)                1.2176         estimate D2E/DX2                !
 ! R21   R(12,25)                1.4635         estimate D2E/DX2                !
 ! R22   R(12,26)                1.3485         estimate D2E/DX2                !
 ! R23   R(13,14)                1.9411         estimate D2E/DX2                !
 ! R24   R(13,26)                1.4227         estimate D2E/DX2                !
 ! R25   R(14,20)                1.8123         estimate D2E/DX2                !
 ! R26   R(14,27)                1.0541         estimate D2E/DX2                !
 ! R27   R(15,16)                1.764          estimate D2E/DX2                !
 ! R28   R(15,20)                1.7367         estimate D2E/DX2                !
 ! R29   R(15,27)                1.8484         estimate D2E/DX2                !
 ! R30   R(16,28)                1.1901         estimate D2E/DX2                !
 ! A1    A(1,2,3)              101.713          estimate D2E/DX2                !
 ! A2    A(2,3,4)              100.0516         estimate D2E/DX2                !
 ! A3    A(2,3,17)             130.8307         estimate D2E/DX2                !
 ! A4    A(4,3,17)             128.9996         estimate D2E/DX2                !
 ! A5    A(3,4,5)              130.4803         estimate D2E/DX2                !
 ! A6    A(3,4,18)             105.3433         estimate D2E/DX2                !
 ! A7    A(5,4,18)             123.9875         estimate D2E/DX2                !
 ! A8    A(4,5,6)              102.9957         estimate D2E/DX2                !
 ! A9    A(4,5,15)             150.5846         estimate D2E/DX2                !
 ! A10   A(6,5,15)             106.4148         estimate D2E/DX2                !
 ! A11   A(5,6,7)              108.047          estimate D2E/DX2                !
 ! A12   A(5,6,19)             131.7613         estimate D2E/DX2                !
 ! A13   A(7,6,19)             120.1303         estimate D2E/DX2                !
 ! A14   A(6,7,8)              132.6377         estimate D2E/DX2                !
 ! A15   A(6,7,20)             123.2009         estimate D2E/DX2                !
 ! A16   A(8,7,20)             103.5853         estimate D2E/DX2                !
 ! A17   A(7,8,9)              118.4995         estimate D2E/DX2                !
 ! A18   A(7,8,21)             117.5954         estimate D2E/DX2                !
 ! A19   A(9,8,21)             120.9991         estimate D2E/DX2                !
 ! A20   A(8,9,10)             128.5584         estimate D2E/DX2                !
 ! A21   A(8,9,22)             121.1504         estimate D2E/DX2                !
 ! A22   A(10,9,22)            110.2864         estimate D2E/DX2                !
 ! A23   A(9,10,11)            111.8086         estimate D2E/DX2                !
 ! A24   A(9,10,23)            117.2911         estimate D2E/DX2                !
 ! A25   A(11,10,23)           130.547          estimate D2E/DX2                !
 ! A26   A(10,11,12)            80.6396         estimate D2E/DX2                !
 ! A27   A(10,11,24)           143.2304         estimate D2E/DX2                !
 ! A28   A(12,11,24)            86.2363         estimate D2E/DX2                !
 ! A29   A(11,12,25)            80.7801         estimate D2E/DX2                !
 ! A30   A(11,12,26)           112.5831         estimate D2E/DX2                !
 ! A31   A(25,12,26)           150.5249         estimate D2E/DX2                !
 ! A32   A(14,13,26)           160.6461         estimate D2E/DX2                !
 ! A33   A(13,14,20)           110.4172         estimate D2E/DX2                !
 ! A34   A(13,14,27)           130.7832         estimate D2E/DX2                !
 ! A35   A(20,14,27)           116.3503         estimate D2E/DX2                !
 ! A36   A(5,15,16)             67.8455         estimate D2E/DX2                !
 ! A37   A(5,15,20)             81.7611         estimate D2E/DX2                !
 ! A38   A(5,15,27)            159.7692         estimate D2E/DX2                !
 ! A39   A(16,15,20)           138.0177         estimate D2E/DX2                !
 ! A40   A(16,15,27)           129.6939         estimate D2E/DX2                !
 ! A41   A(20,15,27)            86.9523         estimate D2E/DX2                !
 ! A42   A(15,16,28)           145.0962         estimate D2E/DX2                !
 ! A43   A(7,20,14)            128.0767         estimate D2E/DX2                !
 ! A44   A(7,20,15)            110.239          estimate D2E/DX2                !
 ! A45   A(14,20,15)            69.1569         estimate D2E/DX2                !
 ! A46   A(12,26,13)            88.9699         estimate D2E/DX2                !
 ! A47   A(14,27,15)            83.1134         estimate D2E/DX2                !
 ! D1    D(1,2,3,4)            168.4867         estimate D2E/DX2                !
 ! D2    D(1,2,3,17)            -7.7571         estimate D2E/DX2                !
 ! D3    D(2,3,4,5)             -0.4233         estimate D2E/DX2                !
 ! D4    D(2,3,4,18)          -175.4782         estimate D2E/DX2                !
 ! D5    D(17,3,4,5)           175.9197         estimate D2E/DX2                !
 ! D6    D(17,3,4,18)            0.8648         estimate D2E/DX2                !
 ! D7    D(3,4,5,6)           -159.9541         estimate D2E/DX2                !
 ! D8    D(3,4,5,15)            21.1079         estimate D2E/DX2                !
 ! D9    D(18,4,5,6)            14.292          estimate D2E/DX2                !
 ! D10   D(18,4,5,15)         -164.646          estimate D2E/DX2                !
 ! D11   D(4,5,6,7)            175.1455         estimate D2E/DX2                !
 ! D12   D(4,5,6,19)            -1.926          estimate D2E/DX2                !
 ! D13   D(15,5,6,7)            -5.3982         estimate D2E/DX2                !
 ! D14   D(15,5,6,19)          177.5303         estimate D2E/DX2                !
 ! D15   D(4,5,15,16)          -13.8039         estimate D2E/DX2                !
 ! D16   D(4,5,15,20)         -164.2549         estimate D2E/DX2                !
 ! D17   D(4,5,15,27)          138.9918         estimate D2E/DX2                !
 ! D18   D(6,5,15,16)          167.2749         estimate D2E/DX2                !
 ! D19   D(6,5,15,20)           16.8239         estimate D2E/DX2                !
 ! D20   D(6,5,15,27)          -39.9294         estimate D2E/DX2                !
 ! D21   D(5,6,7,8)            169.6118         estimate D2E/DX2                !
 ! D22   D(5,6,7,20)           -20.6054         estimate D2E/DX2                !
 ! D23   D(19,6,7,8)           -12.9136         estimate D2E/DX2                !
 ! D24   D(19,6,7,20)          156.8691         estimate D2E/DX2                !
 ! D25   D(6,7,8,9)            167.7568         estimate D2E/DX2                !
 ! D26   D(6,7,8,21)             6.8387         estimate D2E/DX2                !
 ! D27   D(20,7,8,9)            -3.4599         estimate D2E/DX2                !
 ! D28   D(20,7,8,21)         -164.3781         estimate D2E/DX2                !
 ! D29   D(6,7,20,14)          115.2197         estimate D2E/DX2                !
 ! D30   D(6,7,20,15)           36.3412         estimate D2E/DX2                !
 ! D31   D(8,7,20,14)          -72.4954         estimate D2E/DX2                !
 ! D32   D(8,7,20,15)         -151.3739         estimate D2E/DX2                !
 ! D33   D(7,8,9,10)           178.6182         estimate D2E/DX2                !
 ! D34   D(7,8,9,22)            -2.2674         estimate D2E/DX2                !
 ! D35   D(21,8,9,10)          -21.1371         estimate D2E/DX2                !
 ! D36   D(21,8,9,22)          157.9773         estimate D2E/DX2                !
 ! D37   D(8,9,10,11)         -175.241          estimate D2E/DX2                !
 ! D38   D(8,9,10,23)           -1.3427         estimate D2E/DX2                !
 ! D39   D(22,9,10,11)           5.567          estimate D2E/DX2                !
 ! D40   D(22,9,10,23)         179.4653         estimate D2E/DX2                !
 ! D41   D(9,10,11,12)          99.9586         estimate D2E/DX2                !
 ! D42   D(9,10,11,24)          29.3323         estimate D2E/DX2                !
 ! D43   D(23,10,11,12)        -72.9003         estimate D2E/DX2                !
 ! D44   D(23,10,11,24)       -143.5266         estimate D2E/DX2                !
 ! D45   D(10,11,12,25)         82.484          estimate D2E/DX2                !
 ! D46   D(10,11,12,26)       -124.931          estimate D2E/DX2                !
 ! D47   D(24,11,12,25)       -131.9825         estimate D2E/DX2                !
 ! D48   D(24,11,12,26)         20.6025         estimate D2E/DX2                !
 ! D49   D(11,12,26,13)         72.0105         estimate D2E/DX2                !
 ! D50   D(25,12,26,13)       -175.4572         estimate D2E/DX2                !
 ! D51   D(26,13,14,20)        163.912          estimate D2E/DX2                !
 ! D52   D(26,13,14,27)          2.7195         estimate D2E/DX2                !
 ! D53   D(14,13,26,12)       -171.8051         estimate D2E/DX2                !
 ! D54   D(13,14,20,7)          75.4444         estimate D2E/DX2                !
 ! D55   D(13,14,20,15)        175.3459         estimate D2E/DX2                !
 ! D56   D(27,14,20,7)        -120.3636         estimate D2E/DX2                !
 ! D57   D(27,14,20,15)        -20.4621         estimate D2E/DX2                !
 ! D58   D(13,14,27,15)        178.3055         estimate D2E/DX2                !
 ! D59   D(20,14,27,15)         18.01           estimate D2E/DX2                !
 ! D60   D(5,15,16,28)         171.7372         estimate D2E/DX2                !
 ! D61   D(20,15,16,28)       -141.4039         estimate D2E/DX2                !
 ! D62   D(27,15,16,28)          3.5931         estimate D2E/DX2                !
 ! D63   D(5,15,20,7)          -28.5994         estimate D2E/DX2                !
 ! D64   D(5,15,20,14)        -152.8597         estimate D2E/DX2                !
 ! D65   D(16,15,20,7)         -71.6661         estimate D2E/DX2                !
 ! D66   D(16,15,20,14)        164.0737         estimate D2E/DX2                !
 ! D67   D(27,15,20,7)         134.5659         estimate D2E/DX2                !
 ! D68   D(27,15,20,14)         10.3057         estimate D2E/DX2                !
 ! D69   D(5,15,27,14)          39.1518         estimate D2E/DX2                !
 ! D70   D(16,15,27,14)       -174.2335         estimate D2E/DX2                !
 ! D71   D(20,15,27,14)        -16.8299         estimate D2E/DX2                !
 --------------------------------------------------------------------------------
 Trust Radius=3.00D-01 FncErr=1.00D-07 GrdErr=1.00D-06 EigMax=2.50D+02 EigMin=1.00D-04
 Number of steps in this run=    158 maximum allowed number of steps=    168.
 GradGradGradGradGradGradGradGradGradGradGradGradGradGradGradGradGradGrad

                          Input orientation:                          
 ---------------------------------------------------------------------
 Center     Atomic      Atomic             Coordinates (Angstroms)
 Number     Number       Type             X           Y           Z
 ---------------------------------------------------------------------
      1         16           0        1.304670   -0.247180    0.074510
      2          6           0        3.179900   -0.367870    0.203570
      3          6           0        3.584080    1.058580    0.074140
      4          6           0        4.859370    0.970470    0.425110
      5          6           0        5.801660   -0.403170    0.911180
      6          6           0        6.802100    0.135640    1.535130
      7          6           0        7.550220   -0.851820    2.052420
      8          6           0        8.699190   -0.867760    2.591840
      9          6           0        9.091390   -1.990300    3.248530
     10          6           0       10.222500   -2.227280    3.844230
     11          6           0       10.301470   -3.658580    4.360220
     12          6           0       11.007790   -3.791030    3.249360
     13          6           0        9.422160   -3.933190    2.136150
     14          6           0        7.712460   -3.350790    1.425200
     15          6           0        6.083930   -2.259440    0.958830
     16          6           0        4.448870   -1.848320    0.440000
     17          1           0        2.958900    2.007300   -0.187230
     18          1           0        5.241380    2.038960    0.439430
     19          1           0        7.057790    1.136130    1.710620
     20          1           0        7.190800   -1.806990    2.218240
     21          1           0        9.145430    0.020660    2.768290
     22          1           0        8.429110   -2.843670    3.345840
     23          1           0       10.981960   -1.441700    3.808740
     24          1           0        9.911600   -4.793190    4.152420
     25          1           0       12.050210   -3.258910    4.127990
     26          1           0       10.533290   -4.765560    2.447070
     27          1           0        6.968600   -3.881350    0.899510
     28          1           0        3.429280   -2.273840   -0.002420
 ---------------------------------------------------------------------
                    Distance matrix (angstroms):
                    1          2          3          4          5
     1  S    0.000000
     2  C    1.883537   0.000000
     3  C    2.626922   1.488245   0.000000
     4  C    3.773789   2.158901   1.325635   0.000000
     5  C    4.576819   2.715803   2.784782   1.735241   0.000000
     6  C    5.701026   3.891903   3.652665   2.388155   1.296345
     7  C    6.579104   4.769921   4.826333   3.634495   2.135691
     8  C    7.835879   6.034591   6.017803   4.776822   3.381737
     9  C    8.587542   6.844690   7.050027   5.886243   4.336417
    10  C    9.882271   8.143097   8.311382   7.118929   5.610168
    11  C   10.533156   8.878247   9.259882   8.156571   6.537726
    12  C   10.806900   9.070321   9.418716   8.273532   6.636902
    13  C    9.150447   7.443936   7.953165   6.913219   5.202847
    14  C    7.246829   5.561860   6.189623   5.273859   3.550188
    15  C    5.260469   3.547090   4.247491   3.495243   1.878213
    16  C    3.547284   1.964158   3.054797   2.848563   2.034824
    17  H    2.808499   2.417229   1.165862   2.249836   3.885634
    18  H    4.566978   3.177760   1.959904   1.134816   2.549600
    19  H    6.139120   4.423940   3.840669   2.552064   2.141591
    20  H    6.455626   4.713521   5.081052   4.045388   2.368296
    21  H    8.294921   6.505097   6.266126   4.976238   3.848284
    22  H    8.258390   6.599822   7.028932   5.985096   4.334409
    23  H   10.441326   8.661553   8.656054   7.399569   6.025770
    24  H   10.553426   8.971770   9.534836   8.522772   6.831509
    25  H   11.872988  10.121343  10.331978   9.127275   7.586007
    26  H   10.545721   8.856936   9.372456   8.317676   6.616474
    27  H    6.779965   5.213744   6.044760   5.311691   3.668736
    28  H    2.937216   1.933221   3.336892   3.571202   3.156304
                    6          7          8          9         10
     6  C    0.000000
     7  C    1.342516   0.000000
     8  C    2.392153   1.269394   0.000000
     9  C    3.563174   2.258765   1.358366   0.000000
    10  C    4.755467   3.499079   2.395255   1.300165   0.000000
    11  C    5.884117   4.557765   3.671940   2.341646   1.523516
    12  C    6.003761   4.693230   3.782522   2.629680   1.848206
    13  C    4.876609   3.606385   3.182326   2.263100   2.543268
    14  C    3.605001   2.581584   2.915497   2.660247   3.662551
    15  C    2.565989   2.308103   3.382762   3.789456   5.045228
    16  C    3.266971   3.634733   4.863860   5.427798   6.713211
    17  H    4.608668   5.854128   6.995722   8.086574   9.324389
    18  H    2.694259   4.035974   5.003833   6.240878   7.389521
    19  H    1.047451   2.076357   2.736114   4.034261   5.087259
    20  H    2.095600   1.033938   1.815756   2.169641   3.465789
    21  H    2.650490   1.954069   1.009730   2.068214   2.714951
    22  H    3.847352   2.532360   2.132060   1.084585   1.960759
    23  H    5.012837   3.899930   2.649772   2.046717   1.093241
    24  H    6.388471   5.051783   4.394809   3.057115   2.602986
    25  H    6.766724   5.509263   4.393938   3.337280   2.117854
    26  H    6.226972   4.936782   4.310189   3.228542   2.914020
    27  H    4.070374   3.293256   3.865313   3.687845   4.689903
    28  H    4.421037   4.819404   6.039801   6.535179   7.806838
                   11         12         13         14         15
    11  C    0.000000
    12  C    1.323042   0.000000
    13  C    2.407298   1.942593   0.000000
    14  C    3.925818   3.792172   1.941060   0.000000
    15  C    5.595953   5.642401   3.915521   2.015107   0.000000
    16  C    7.273108   7.395002   5.653072   3.725460   1.763980
    17  H   10.329319  10.498353   9.080817   7.342029   5.411500
    18  H    8.569660   8.668101   7.484942   6.010606   4.410885
    19  H    6.366403   6.499779   5.609753   4.543403   3.611577
    20  H    4.206273   4.423690   3.083250   1.812280   1.736659
    21  H    4.172227   4.269519   4.013616   3.901790   4.224427
    22  H    2.280083   2.748889   1.906975   2.111780   3.396912
    23  H    2.383643   2.415145   3.382019   4.473871   5.725503
    24  H    1.217587   1.738239   2.245996   3.788728   5.591955
    25  H    1.808800   1.463483   3.365817   5.111711   6.829276
    26  H    2.222451   1.348528   1.422716   3.317058   5.319051
    27  H    4.809799   4.673864   2.748076   1.054121   1.848446
    28  H    8.256944   8.385091   6.575830   4.641503   2.823362
                   16         17         18         19         20
    16  C    0.000000
    17  H    4.180817   0.000000
    18  H    3.967243   2.367154   0.000000
    19  H    4.162677   4.600182   2.393819   0.000000
    20  H    3.268337   6.184179   4.664304   2.989536   0.000000
    21  H    5.565222   7.138276   4.973804   2.592524   2.731929
    22  H    5.027618   8.120203   6.515283   4.515891   1.969670
    23  H    7.361726   9.603795   7.511425   5.142609   4.127472
    24  H    7.231579  10.649848   9.070586   7.018793   4.478973
    25  H    8.565711  11.358081   9.382594   7.077027   5.419325
    26  H    7.039800  10.496788   8.850787   6.888498   4.469646
    27  H    3.270076   7.206587   6.184257   5.083400   2.468074
    28  H    1.190112   4.310867   4.698849   5.265784   4.392984
                   21         22         23         24         25
    21  H    0.000000
    22  H    3.008499   0.000000
    23  H    2.567854   2.949040   0.000000
    24  H    5.067148   2.578561   3.535007   0.000000
    25  H    4.587168   3.727807   2.131978   2.632160   0.000000
    26  H    4.993720   2.988147   3.619875   1.815346   2.719657
    27  H    4.843202   3.032227   5.524724   4.480416   6.052543
    28  H    6.753957   6.044324   8.500610   8.101253   9.609947
                   26         27         28
    26  H    0.000000
    27  H    3.985447   0.000000
    28  H    7.916794   3.990533   0.000000
 Stoichiometry    C15H12S
 Framework group  C1[X(C15H12S)]
 Deg. of freedom    78
 Full point group                 C1      NOp   1
 Largest Abelian subgroup         C1      NOp   1
 Largest concise Abelian subgroup C1      NOp   1
                         Standard orientation:                         
 ---------------------------------------------------------------------
 Center     Atomic      Atomic             Coordinates (Angstroms)
 Number     Number       Type             X           Y           Z
 ---------------------------------------------------------------------
      1         16           0       -5.442139   -0.851450    0.626371
      2          6           0       -3.741308   -0.334065    0.004119
      3          6           0       -3.950871    1.111438   -0.281324
      4          6           0       -2.695236    1.495866   -0.462716
      5          6           0       -1.217118    0.590462   -0.382267
      6          6           0       -0.320830    1.510540   -0.207235
      7          6           0        0.864220    0.907110   -0.023177
      8          6           0        2.054933    1.345126    0.018123
      9          6           0        3.033818    0.519704    0.471576
     10          6           0        4.308772    0.753582    0.572680
     11          6           0        5.077119   -0.482815    1.022197
     12          6           0        5.322380   -0.537506   -0.276763
     13          6           0        3.602097   -1.348867   -0.671718
     14          6           0        1.664646   -1.465444   -0.651576
     15          6           0       -0.294778   -1.044619   -0.441288
     16          6           0       -2.036357   -1.268973   -0.273376
     17          1           0       -4.922407    1.755910   -0.278735
     18          1           0       -2.743228    2.620620   -0.605659
     19          1           0       -0.393758    2.553982   -0.151877
     20          1           0        0.957422   -0.078273    0.275759
     21          1           0        2.185980    2.346144   -0.000439
     22          1           0        2.805424   -0.479271    0.826837
     23          1           0        4.667543    1.729889    0.236104
     24          1           0        5.070803   -1.699982    0.990846
     25          1           0        6.350766    0.426978    0.115633
     26          1           0        4.967631   -1.719022   -0.821466
     27          1           0        1.021882   -2.279897   -0.837832
     28          1           0       -2.922756   -2.063115   -0.274636
 ---------------------------------------------------------------------
 Rotational constants (GHZ):           1.5673522           0.1734380           0.1617437
 Standard basis: 6-31G(2df,p) (6D, 7F)
 There are   560 symmetry adapted cartesian basis functions of A   symmetry.
 There are   512 symmetry adapted basis functions of A   symmetry.
   512 basis functions,   812 primitive gaussians,   560 cartesian basis functions
    59 alpha electrons       59 beta electrons
       nuclear repulsion energy       979.4272436073 Hartrees.
 NAtoms=   28 NActive=   28 NUniq=   28 SFac= 1.00D+00 NAtFMM=   60 NAOKFM=F Big=F
 Integral buffers will be    131072 words long.
 Raffenetti 2 integral format.
 Two-electron integral symmetry is turned on.
 One-electron integrals computed using PRISM.
 PrsmSu:  requested number of processors reduced to:  12 ShMem   1 Linda.
 NBasis=   512 RedAO= T EigKep=  1.85D-04  NBF=   512
 NBsUse=   512 1.00D-06 EigRej= -1.00D+00 NBFU=   512
 ExpMin= 1.17D-01 ExpMax= 2.19D+04 ExpMxC= 3.30D+03 IAcc=3 IRadAn=         5 AccDes= 0.00D+00
 Harris functional with IExCor=  402 and IRadAn=       5 diagonalized for initial guess.
 HarFok:  IExCor=  402 AccDes= 0.00D+00 IRadAn=         5 IDoV= 1 UseB2=F ITyADJ=14
 ICtDFT=  3500011 ScaDFX=  1.000000  1.000000  1.000000  1.000000
 FoFCou: FMM=F IPFlag=           0 FMFlag=      100000 FMFlg1=           0
         NFxFlg=           0 DoJE=T BraDBF=F KetDBF=T FulRan=T
         wScrn=  0.000000 ICntrl=       500 IOpCl=  0 I1Cent=   200000004 NGrid=           0
         NMat0=    1 NMatS0=      1 NMatT0=    0 NMatD0=    1 NMtDS0=    0 NMtDT0=    0
 Petite list used in FoFCou.
 Requested convergence on RMS density matrix=1.00D-08 within 128 cycles.
 Requested convergence on MAX density matrix=1.00D-06.
 Requested convergence on             energy=1.00D-06.
 No special actions if energy rises.
 Integral accuracy reduced to 1.0D-05 until final iterations.
 EnCoef did     7 forward-backward iterations
 EnCoef did   100 forward-backward iterations
 EnCoef did     6 forward-backward iterations
 EnCoef did   100 forward-backward iterations
 EnCoef did     3 forward-backward iterations
 EnCoef did    10 forward-backward iterations
 Initial convergence to 1.0D-05 achieved.  Increase integral accuracy.
 SCF Done:  E(RB3LYP) =  -975.547363901     A.U. after   33 cycles
            NFock= 33  Conv=0.32D-08     -V/T= 2.0055

 **********************************************************************

            Population analysis using the SCF density.

 **********************************************************************

 Orbital symmetries:
       Occupied  (A) (A) (A) (A) (A) (A) (A) (A) (A) (A) (A) (A)
                 (A) (A) (A) (A) (A) (A) (A) (A) (A) (A) (A) (A)
                 (A) (A) (A) (A) (A) (A) (A) (A) (A) (A) (A) (A)
                 (A) (A) (A) (A) (A) (A) (A) (A) (A) (A) (A) (A)
                 (A) (A) (A) (A) (A) (A) (A) (A) (A) (A) (A)
       Virtual   (A) (A) (A) (A) (A) (A) (A) (A) (A) (A) (A) (A)
                 (A) (A) (A) (A) (A) (A) (A) (A) (A) (A) (A) (A)
                 (A) (A) (A) (A) (A) (A) (A) (A) (A) (A) (A) (A)
                 (A) (A) (A) (A) (A) (A) (A) (A) (A) (A) (A) (A)
                 (A) (A) (A) (A) (A) (A) (A) (A) (A) (A) (A) (A)
                 (A) (A) (A) (A) (A) (A) (A) (A) (A) (A) (A) (A)
                 (A) (A) (A) (A) (A) (A) (A) (A) (A) (A) (A) (A)
                 (A) (A) (A) (A) (A) (A) (A) (A) (A) (A) (A) (A)
                 (A) (A) (A) (A) (A) (A) (A) (A) (A) (A) (A) (A)
                 (A) (A) (A) (A) (A) (A) (A) (A) (A) (A) (A) (A)
                 (A) (A) (A) (A) (A) (A) (A) (A) (A) (A) (A) (A)
                 (A) (A) (A) (A) (A) (A) (A) (A) (A) (A) (A) (A)
                 (A) (A) (A) (A) (A) (A) (A) (A) (A) (A) (A) (A)
                 (A) (A) (A) (A) (A) (A) (A) (A) (A) (A) (A) (A)
                 (A) (A) (A) (A) (A) (A) (A) (A) (A) (A) (A) (A)
                 (A) (A) (A) (A) (A) (A) (A) (A) (A) (A) (A) (A)
                 (A) (A) (A) (A) (A) (A) (A) (A) (A) (A) (A) (A)
                 (A) (A) (A) (A) (A) (A) (A) (A) (A) (A) (A) (A)
                 (A) (A) (A) (A) (A) (A) (A) (A) (A) (A) (A) (A)
                 (A) (A) (A) (A) (A) (A) (A) (A) (A) (A) (A) (A)
                 (A) (A) (A) (A) (A) (A) (A) (A) (A) (A) (A) (A)
                 (A) (A) (A) (A) (A) (A) (A) (A) (A) (A) (A) (A)
                 (A) (A) (A) (A) (A) (A) (A) (A) (A) (A) (A) (A)
                 (A) (A) (A) (A) (A) (A) (A) (A) (A) (A) (A) (A)
                 (A) (A) (A) (A) (A) (A) (A) (A) (A) (A) (A) (A)
                 (A) (A) (A) (A) (A) (A) (A) (A) (A) (A) (A) (A)
                 (A) (A) (A) (A) (A) (A) (A) (A) (A) (A) (A) (A)
                 (A) (A) (A) (A) (A) (A) (A) (A) (A) (A) (A) (A)
                 (A) (A) (A) (A) (A) (A) (A) (A) (A) (A) (A) (A)
                 (A) (A) (A) (A) (A) (A) (A) (A) (A) (A) (A) (A)
                 (A) (A) (A) (A) (A) (A) (A) (A) (A) (A) (A) (A)
                 (A) (A) (A) (A) (A) (A) (A) (A) (A) (A) (A) (A)
                 (A) (A) (A) (A) (A) (A) (A) (A) (A) (A) (A) (A)
                 (A) (A) (A) (A) (A) (A) (A) (A) (A) (A) (A) (A)
                 (A) (A) (A) (A) (A) (A) (A) (A) (A) (A) (A) (A)
                 (A) (A) (A) (A) (A) (A) (A) (A) (A) (A) (A) (A)
                 (A) (A) (A) (A) (A) (A) (A) (A) (A) (A) (A) (A)
                 (A) (A) (A) (A) (A) (A) (A) (A) (A)
 The electronic state is 1-A.
 Alpha  occ. eigenvalues --  -88.84889 -10.32308 -10.28404 -10.28146 -10.27872
 Alpha  occ. eigenvalues --  -10.27748 -10.27660 -10.27602 -10.24000 -10.23459
 Alpha  occ. eigenvalues --  -10.22643 -10.20879 -10.19729 -10.17597 -10.17327
 Alpha  occ. eigenvalues --  -10.15899  -7.91050  -5.87479  -5.87170  -5.86656
 Alpha  occ. eigenvalues --   -0.93871  -0.87565  -0.83204  -0.81053  -0.75491
 Alpha  occ. eigenvalues --   -0.71399  -0.69909  -0.67523  -0.66179  -0.61185
 Alpha  occ. eigenvalues --   -0.60718  -0.58286  -0.56779  -0.55840  -0.52765
 Alpha  occ. eigenvalues --   -0.51710  -0.49507  -0.48445  -0.47170  -0.44147
 Alpha  occ. eigenvalues --   -0.42995  -0.42453  -0.40331  -0.39870  -0.38461
 Alpha  occ. eigenvalues --   -0.36543  -0.34353  -0.33590  -0.31811  -0.30646
 Alpha  occ. eigenvalues --   -0.28606  -0.27630  -0.27205  -0.25003  -0.23662
 Alpha  occ. eigenvalues --   -0.22764  -0.21680  -0.20100  -0.19402
 Alpha virt. eigenvalues --   -0.15428  -0.14021  -0.12673  -0.08452  -0.07902
 Alpha virt. eigenvalues --   -0.05034  -0.04119  -0.01972  -0.00769   0.00563
 Alpha virt. eigenvalues --    0.02074   0.04662   0.05850   0.07303   0.08653
 Alpha virt. eigenvalues --    0.09686   0.11266   0.11900   0.12774   0.13739
 Alpha virt. eigenvalues --    0.14270   0.15602   0.16905   0.17223   0.18519
 Alpha virt. eigenvalues --    0.21227   0.23157   0.23451   0.24821   0.26893
 Alpha virt. eigenvalues --    0.27289   0.29143   0.29888   0.32201   0.34619
 Alpha virt. eigenvalues --    0.35757   0.36537   0.38222   0.39072   0.39442
 Alpha virt. eigenvalues --    0.41095   0.41950   0.42423   0.43020   0.44230
 Alpha virt. eigenvalues --    0.44318   0.45117   0.45519   0.46422   0.46870
 Alpha virt. eigenvalues --    0.47859   0.49109   0.49355   0.50109   0.50671
 Alpha virt. eigenvalues --    0.51878   0.52739   0.53512   0.54218   0.54716
 Alpha virt. eigenvalues --    0.56415   0.56505   0.57148   0.57574   0.58118
 Alpha virt. eigenvalues --    0.59321   0.59508   0.60086   0.61269   0.61632
 Alpha virt. eigenvalues --    0.62573   0.63857   0.64478   0.65280   0.65663
 Alpha virt. eigenvalues --    0.66595   0.67669   0.68156   0.69791   0.70309
 Alpha virt. eigenvalues --    0.70815   0.71438   0.72331   0.72684   0.72897
 Alpha virt. eigenvalues --    0.73894   0.74019   0.75418   0.76642   0.77384
 Alpha virt. eigenvalues --    0.77789   0.78515   0.79182   0.79886   0.80794
 Alpha virt. eigenvalues --    0.81143   0.82157   0.82708   0.83733   0.84343
 Alpha virt. eigenvalues --    0.85076   0.85622   0.86238   0.87388   0.88813
 Alpha virt. eigenvalues --    0.89547   0.89902   0.90720   0.91866   0.93531
 Alpha virt. eigenvalues --    0.94349   0.95299   0.96253   0.97479   1.00333
 Alpha virt. eigenvalues --    1.00567   1.01443   1.02678   1.04392   1.05067
 Alpha virt. eigenvalues --    1.05947   1.07251   1.08951   1.09849   1.11982
 Alpha virt. eigenvalues --    1.12772   1.13179   1.15175   1.15679   1.16413
 Alpha virt. eigenvalues --    1.19185   1.19366   1.20632   1.22780   1.23961
 Alpha virt. eigenvalues --    1.24684   1.26220   1.26867   1.27409   1.29352
 Alpha virt. eigenvalues --    1.31230   1.32211   1.33506   1.35386   1.36520
 Alpha virt. eigenvalues --    1.37029   1.38479   1.39295   1.39788   1.40810
 Alpha virt. eigenvalues --    1.44090   1.44472   1.46233   1.46806   1.47647
 Alpha virt. eigenvalues --    1.48634   1.49753   1.51169   1.51607   1.53156
 Alpha virt. eigenvalues --    1.55437   1.56124   1.58331   1.59881   1.60864
 Alpha virt. eigenvalues --    1.61640   1.63076   1.63605   1.64127   1.66091
 Alpha virt. eigenvalues --    1.67401   1.69186   1.70015   1.70671   1.71746
 Alpha virt. eigenvalues --    1.72444   1.72790   1.76676   1.77838   1.79049
 Alpha virt. eigenvalues --    1.80102   1.81430   1.82204   1.84076   1.84290
 Alpha virt. eigenvalues --    1.86014   1.87463   1.88214   1.91185   1.93675
 Alpha virt. eigenvalues --    1.98369   1.99117   2.01446   2.02576   2.05115
 Alpha virt. eigenvalues --    2.06989   2.07582   2.09056   2.09764   2.12479
 Alpha virt. eigenvalues --    2.13052   2.13623   2.15435   2.16937   2.17645
 Alpha virt. eigenvalues --    2.18941   2.19392   2.21595   2.21866   2.23606
 Alpha virt. eigenvalues --    2.24158   2.27589   2.28438   2.29625   2.31056
 Alpha virt. eigenvalues --    2.31638   2.32131   2.32689   2.35593   2.37156
 Alpha virt. eigenvalues --    2.39638   2.40955   2.42829   2.44859   2.46756
 Alpha virt. eigenvalues --    2.47798   2.48709   2.51538   2.53787   2.55135
 Alpha virt. eigenvalues --    2.58785   2.58941   2.59379   2.62283   2.63525
 Alpha virt. eigenvalues --    2.65252   2.65578   2.67705   2.68830   2.71009
 Alpha virt. eigenvalues --    2.71921   2.73544   2.74176   2.75296   2.76532
 Alpha virt. eigenvalues --    2.77541   2.78389   2.79886   2.81882   2.82532
 Alpha virt. eigenvalues --    2.83030   2.85252   2.85543   2.87373   2.88107
 Alpha virt. eigenvalues --    2.89341   2.90142   2.90997   2.92543   2.93145
 Alpha virt. eigenvalues --    2.93927   2.95219   2.96273   2.97795   2.99487
 Alpha virt. eigenvalues --    3.00377   3.01996   3.03492   3.04134   3.05568
 Alpha virt. eigenvalues --    3.06650   3.07226   3.09249   3.09978   3.10523
 Alpha virt. eigenvalues --    3.11383   3.11780   3.14824   3.16441   3.17420
 Alpha virt. eigenvalues --    3.19084   3.20496   3.22033   3.22643   3.23265
 Alpha virt. eigenvalues --    3.24454   3.24908   3.25772   3.26729   3.27993
 Alpha virt. eigenvalues --    3.30553   3.31489   3.32411   3.32633   3.34808
 Alpha virt. eigenvalues --    3.35118   3.36003   3.37211   3.38670   3.39579
 Alpha virt. eigenvalues --    3.40124   3.41084   3.43454   3.45001   3.46364
 Alpha virt. eigenvalues --    3.46841   3.48261   3.50084   3.50387   3.50754
 Alpha virt. eigenvalues --    3.51045   3.53427   3.54157   3.54655   3.56132
 Alpha virt. eigenvalues --    3.56653   3.59004   3.59417   3.61051   3.62488
 Alpha virt. eigenvalues --    3.64672   3.65831   3.67439   3.70762   3.70945
 Alpha virt. eigenvalues --    3.74509   3.75420   3.77242   3.78497   3.79621
 Alpha virt. eigenvalues --    3.80254   3.86262   3.87850   3.89268   3.90078
 Alpha virt. eigenvalues --    3.92660   3.94005   3.96257   3.96751   3.99610
 Alpha virt. eigenvalues --    4.01557   4.03211   4.06343   4.07600   4.08195
 Alpha virt. eigenvalues --    4.10154   4.12056   4.14980   4.16025   4.19173
 Alpha virt. eigenvalues --    4.22103   4.25338   4.27744   4.28135   4.29152
 Alpha virt. eigenvalues --    4.30029   4.30905   4.32803   4.34426   4.36087
 Alpha virt. eigenvalues --    4.37123   4.38796   4.39196   4.40307   4.41164
 Alpha virt. eigenvalues --    4.42314   4.45282   4.46640   4.48074   4.48469
 Alpha virt. eigenvalues --    4.50429   4.52199   4.54636   4.55926   4.57207
 Alpha virt. eigenvalues --    4.58457   4.58490   4.59570   4.61776   4.62810
 Alpha virt. eigenvalues --    4.65077   4.65574   4.68435   4.69568   4.70413
 Alpha virt. eigenvalues --    4.71378   4.72226   4.72685   4.73820   4.74147
 Alpha virt. eigenvalues --    4.76833   4.77720   4.78714   4.79322   4.80413
 Alpha virt. eigenvalues --    4.82411   4.84210   4.86777   4.87909   4.89779
 Alpha virt. eigenvalues --    4.91141   4.92945   4.95190   4.96288   4.99577
 Alpha virt. eigenvalues --    5.01982   5.02231   5.04881   5.05534   5.07469
 Alpha virt. eigenvalues --    5.09077   5.11471   5.12951   5.14219   5.16579
 Alpha virt. eigenvalues --    5.18000   5.20950   5.23779   5.25585   5.28138
 Alpha virt. eigenvalues --    5.29884   5.31817   5.37524   5.42819   5.45128
 Alpha virt. eigenvalues --    5.49208   5.50962   5.53633   5.57612   5.61049
 Alpha virt. eigenvalues --    5.63583   5.71471   5.81518   5.90914   5.93667
 Alpha virt. eigenvalues --    6.16279   6.38391   7.20260   9.77363  10.06381
 Alpha virt. eigenvalues --   10.16705  10.26167  10.38744  10.68825  10.72845
 Alpha virt. eigenvalues --   10.96065  11.16616  11.31401  11.49021  11.68963
 Alpha virt. eigenvalues --   11.88472  12.19039  12.47525
          Condensed to atoms (all electrons):
               1          2          3          4          5          6
     1  S   16.047407   0.341397  -0.066355   0.004575   0.001930  -0.000073
     2  C    0.341397   5.140638   0.437775  -0.039368  -0.043702   0.002040
     3  C   -0.066355   0.437775   4.855560   0.573171  -0.006745   0.000428
     4  C    0.004575  -0.039368   0.573171   5.021291   0.298776  -0.029315
     5  C    0.001930  -0.043702  -0.006745   0.298776   5.015422   0.441092
     6  C   -0.000073   0.002040   0.000428  -0.029315   0.441092   5.099114
     7  C   -0.000003   0.000208  -0.000204  -0.000189  -0.010666   0.467608
     8  C   -0.000000  -0.000001   0.000005  -0.000402   0.010412  -0.039265
     9  C   -0.000000  -0.000000   0.000000   0.000003  -0.000093   0.010016
    10  C   -0.000000   0.000000   0.000000  -0.000000   0.000039  -0.001164
    11  C    0.000000  -0.000000  -0.000000   0.000000  -0.000002   0.000015
    12  C   -0.000000   0.000000   0.000000   0.000000  -0.000000   0.000005
    13  C    0.000000   0.000000  -0.000000  -0.000000   0.000029  -0.000205
    14  C   -0.000001   0.000030  -0.000001  -0.000029  -0.001634  -0.003132
    15  C    0.000128  -0.001972   0.000308  -0.012412   0.258408  -0.028984
    16  C   -0.021345   0.236578  -0.017740  -0.022074   0.024708  -0.003420
    17  H   -0.011470  -0.020908   0.373942  -0.037933   0.001520  -0.000019
    18  H   -0.001100   0.008271  -0.057766   0.335196  -0.037126   0.002409
    19  H   -0.000001  -0.000112   0.000076  -0.007283  -0.036396   0.357714
    20  H    0.000000  -0.000013   0.000011   0.000304  -0.026257  -0.036971
    21  H    0.000000  -0.000000  -0.000000  -0.000022   0.000188  -0.024047
    22  H    0.000000  -0.000000  -0.000000   0.000001  -0.000028   0.000956
    23  H    0.000000  -0.000000  -0.000000   0.000000  -0.000001   0.000007
    24  H    0.000000   0.000000  -0.000000   0.000000  -0.000000   0.000000
    25  H   -0.000000   0.000000   0.000000   0.000000  -0.000000  -0.000000
    26  H    0.000000  -0.000000  -0.000000  -0.000000   0.000000   0.000000
    27  H    0.000001  -0.000011   0.000000  -0.000002  -0.000546   0.000443
    28  H    0.021267  -0.105494   0.002183   0.003169   0.005320  -0.000515
               7          8          9         10         11         12
     1  S   -0.000003  -0.000000  -0.000000  -0.000000   0.000000  -0.000000
     2  C    0.000208  -0.000001  -0.000000   0.000000  -0.000000   0.000000
     3  C   -0.000204   0.000005   0.000000   0.000000  -0.000000   0.000000
     4  C   -0.000189  -0.000402   0.000003  -0.000000   0.000000   0.000000
     5  C   -0.010666   0.010412  -0.000093   0.000039  -0.000002  -0.000000
     6  C    0.467608  -0.039265   0.010016  -0.001164   0.000015   0.000005
     7  C    4.645067   0.504704   0.031493  -0.012670   0.000600  -0.000020
     8  C    0.504704   5.069804   0.486741   0.006881   0.002479  -0.000240
     9  C    0.031493   0.486741   4.747537   0.415429  -0.010114  -0.024924
    10  C   -0.012670   0.006881   0.415429   5.316313   0.283600  -0.070890
    11  C    0.000600   0.002479  -0.010114   0.283600   5.438737   0.382990
    12  C   -0.000020  -0.000240  -0.024924  -0.070890   0.382990   5.551607
    13  C   -0.004057  -0.000997   0.001719  -0.016570   0.013375  -0.093984
    14  C   -0.042491  -0.001995  -0.026650   0.006062   0.000730   0.002959
    15  C   -0.093767   0.007856  -0.000831  -0.000217   0.000006  -0.000010
    16  C    0.003302  -0.000379   0.000003   0.000000   0.000000   0.000000
    17  H    0.000002  -0.000000  -0.000000   0.000000   0.000000   0.000000
    18  H    0.000740  -0.000006   0.000000  -0.000000  -0.000000  -0.000000
    19  H   -0.048112  -0.010591   0.000154  -0.000033   0.000000   0.000000
    20  H    0.400519  -0.090931  -0.028697   0.003783  -0.000831   0.000039
    21  H    0.010930   0.301920  -0.053985  -0.005539  -0.000190  -0.000018
    22  H   -0.001622  -0.053131   0.379361  -0.067016  -0.010872  -0.004583
    23  H    0.000909  -0.013032  -0.006842   0.335964  -0.032186  -0.000761
    24  H    0.000046  -0.000052  -0.006127  -0.012171   0.319631  -0.073701
    25  H    0.000006   0.000039   0.004336  -0.030129  -0.069392   0.269121
    26  H   -0.000018  -0.000125   0.004034   0.013653  -0.066373   0.250429
    27  H    0.006054  -0.000080   0.001130  -0.000132  -0.000006  -0.000144
    28  H   -0.000107   0.000003  -0.000000  -0.000000  -0.000000  -0.000000
              13         14         15         16         17         18
     1  S    0.000000  -0.000001   0.000128  -0.021345  -0.011470  -0.001100
     2  C    0.000000   0.000030  -0.001972   0.236578  -0.020908   0.008271
     3  C   -0.000000  -0.000001   0.000308  -0.017740   0.373942  -0.057766
     4  C   -0.000000  -0.000029  -0.012412  -0.022074  -0.037933   0.335196
     5  C    0.000029  -0.001634   0.258408   0.024708   0.001520  -0.037126
     6  C   -0.000205  -0.003132  -0.028984  -0.003420  -0.000019   0.002409
     7  C   -0.004057  -0.042491  -0.093767   0.003302   0.000002   0.000740
     8  C   -0.000997  -0.001995   0.007856  -0.000379  -0.000000  -0.000006
     9  C    0.001719  -0.026650  -0.000831   0.000003  -0.000000   0.000000
    10  C   -0.016570   0.006062  -0.000217   0.000000   0.000000  -0.000000
    11  C    0.013375   0.000730   0.000006   0.000000   0.000000  -0.000000
    12  C   -0.093984   0.002959  -0.000010   0.000000   0.000000  -0.000000
    13  C    6.025522   0.192045   0.000005  -0.000005   0.000000  -0.000000
    14  C    0.192045   5.695055   0.131589  -0.007981   0.000000  -0.000001
    15  C    0.000005   0.131589   5.735105   0.318694  -0.000014   0.000273
    16  C   -0.000005  -0.007981   0.318694   5.370327   0.000841   0.000974
    17  H    0.000000   0.000000  -0.000014   0.000841   0.531440  -0.003127
    18  H   -0.000000  -0.000001   0.000273   0.000974  -0.003127   0.650650
    19  H   -0.000006  -0.000231   0.004906   0.000064  -0.000052   0.003723
    20  H   -0.002123  -0.009202  -0.052788   0.004769   0.000000  -0.000014
    21  H    0.000592  -0.000879  -0.000401   0.000010  -0.000000  -0.000002
    22  H    0.011149  -0.005371   0.000043   0.000008  -0.000000   0.000000
    23  H    0.001817  -0.000165  -0.000001   0.000000  -0.000000   0.000000
    24  H    0.040857   0.000220   0.000003  -0.000000   0.000000  -0.000000
    25  H    0.005193  -0.000109   0.000000  -0.000000   0.000000  -0.000000
    26  H   -0.005421   0.000335  -0.000029  -0.000000  -0.000000   0.000000
    27  H   -0.010660   0.277094  -0.045401   0.004750  -0.000000   0.000000
    28  H    0.000000   0.000013  -0.021202   0.272242  -0.000171  -0.000022
              19         20         21         22         23         24
     1  S   -0.000001   0.000000   0.000000   0.000000   0.000000   0.000000
     2  C   -0.000112  -0.000013  -0.000000  -0.000000  -0.000000   0.000000
     3  C    0.000076   0.000011  -0.000000  -0.000000  -0.000000  -0.000000
     4  C   -0.007283   0.000304  -0.000022   0.000001   0.000000   0.000000
     5  C   -0.036396  -0.026257   0.000188  -0.000028  -0.000001  -0.000000
     6  C    0.357714  -0.036971  -0.024047   0.000956   0.000007   0.000000
     7  C   -0.048112   0.400519   0.010930  -0.001622   0.000909   0.000046
     8  C   -0.010591  -0.090931   0.301920  -0.053131  -0.013032  -0.000052
     9  C    0.000154  -0.028697  -0.053985   0.379361  -0.006842  -0.006127
    10  C   -0.000033   0.003783  -0.005539  -0.067016   0.335964  -0.012171
    11  C    0.000000  -0.000831  -0.000190  -0.010872  -0.032186   0.319631
    12  C    0.000000   0.000039  -0.000018  -0.004583  -0.000761  -0.073701
    13  C   -0.000006  -0.002123   0.000592   0.011149   0.001817   0.040857
    14  C   -0.000231  -0.009202  -0.000879  -0.005371  -0.000165   0.000220
    15  C    0.004906  -0.052788  -0.000401   0.000043  -0.000001   0.000003
    16  C    0.000064   0.004769   0.000010   0.000008   0.000000  -0.000000
    17  H   -0.000052   0.000000  -0.000000  -0.000000  -0.000000   0.000000
    18  H    0.003723  -0.000014  -0.000002   0.000000   0.000000  -0.000000
    19  H    0.622829   0.004506   0.004052   0.000004   0.000005   0.000000
    20  H    0.004506   0.645384   0.013546   0.005821  -0.000007  -0.000084
    21  H    0.004052   0.013546   0.674569   0.004647   0.005123  -0.000010
    22  H    0.000004   0.005821   0.004647   0.535020   0.006604   0.002817
    23  H    0.000005  -0.000007   0.005123   0.006604   0.538174   0.000978
    24  H    0.000000  -0.000084  -0.000010   0.002817   0.000978   0.537896
    25  H    0.000000  -0.000005  -0.000003   0.000569  -0.001655   0.014028
    26  H   -0.000000   0.000050  -0.000006   0.001424  -0.000532  -0.035826
    27  H    0.000011   0.003504   0.000031   0.000929   0.000003   0.000012
    28  H    0.000013  -0.000094  -0.000000   0.000000  -0.000000   0.000000
              25         26         27         28
     1  S   -0.000000   0.000000   0.000001   0.021267
     2  C    0.000000  -0.000000  -0.000011  -0.105494
     3  C    0.000000  -0.000000   0.000000   0.002183
     4  C    0.000000  -0.000000  -0.000002   0.003169
     5  C   -0.000000   0.000000  -0.000546   0.005320
     6  C   -0.000000   0.000000   0.000443  -0.000515
     7  C    0.000006  -0.000018   0.006054  -0.000107
     8  C    0.000039  -0.000125  -0.000080   0.000003
     9  C    0.004336   0.004034   0.001130  -0.000000
    10  C   -0.030129   0.013653  -0.000132  -0.000000
    11  C   -0.069392  -0.066373  -0.000006  -0.000000
    12  C    0.269121   0.250429  -0.000144  -0.000000
    13  C    0.005193  -0.005421  -0.010660   0.000000
    14  C   -0.000109   0.000335   0.277094   0.000013
    15  C    0.000000  -0.000029  -0.045401  -0.021202
    16  C   -0.000000  -0.000000   0.004750   0.272242
    17  H    0.000000  -0.000000  -0.000000  -0.000171
    18  H   -0.000000   0.000000   0.000000  -0.000022
    19  H    0.000000  -0.000000   0.000011   0.000013
    20  H   -0.000005   0.000050   0.003504  -0.000094
    21  H   -0.000003  -0.000006   0.000031  -0.000000
    22  H    0.000569   0.001424   0.000929   0.000000
    23  H   -0.001655  -0.000532   0.000003  -0.000000
    24  H    0.014028  -0.035826   0.000012   0.000000
    25  H    0.678283  -0.008584   0.000001  -0.000000
    26  H   -0.008584   0.638697  -0.000254   0.000000
    27  H    0.000001  -0.000254   0.568558  -0.000137
    28  H   -0.000000   0.000000  -0.000137   0.680284
 Mulliken charges:
               1
     1  S   -0.316358
     2  C    0.044643
     3  C   -0.094650
     4  C   -0.087456
     5  C    0.105350
     6  C   -0.214736
     7  C    0.141737
     8  C   -0.179617
     9  C    0.076308
    10  C   -0.165193
    11  C   -0.252197
    12  C   -0.187875
    13  C   -0.158277
    14  C   -0.206259
    15  C   -0.199296
    16  C   -0.164328
    17  H    0.165947
    18  H    0.096928
    19  H    0.104761
    20  H    0.165778
    21  H    0.069495
    22  H    0.193269
    23  H    0.165599
    24  H    0.211483
    25  H    0.138301
    26  H    0.208546
    27  H    0.194851
    28  H    0.143248
 Sum of Mulliken charges =  -0.00000
 Mulliken charges with hydrogens summed into heavy atoms:
               1
     1  S   -0.316358
     2  C    0.044643
     3  C    0.071297
     4  C    0.009471
     5  C    0.105350
     6  C   -0.109975
     7  C    0.307515
     8  C   -0.110121
     9  C    0.269576
    10  C    0.000405
    11  C   -0.040714
    12  C    0.158972
    13  C   -0.158277
    14  C   -0.011408
    15  C   -0.199296
    16  C   -0.021081
 Electronic spatial extent (au):  <R**2>=           6286.4759
 Charge=             -0.0000 electrons
 Dipole moment (field-independent basis, Debye):
    X=              7.7298    Y=              3.4014    Z=             -0.3497  Tot=              8.4523
 Quadrupole moment (field-independent basis, Debye-Ang):
   XX=           -102.9753   YY=            -94.4278   ZZ=           -109.6433
   XY=            -11.4488   XZ=              6.8712   YZ=              1.7620
 Traceless Quadrupole moment (field-independent basis, Debye-Ang):
   XX=             -0.6265   YY=              7.9210   ZZ=             -7.2945
   XY=            -11.4488   XZ=              6.8712   YZ=              1.7620
 Octapole moment (field-independent basis, Debye-Ang**2):
  XXX=            220.3643  YYY=             30.1569  ZZZ=              3.7210  XYY=             19.5749
  XXY=             64.7392  XXZ=            -15.7212  XZZ=            -11.6373  YZZ=              3.8474
  YYZ=             -4.8240  XYZ=              1.2435
 Hexadecapole moment (field-independent basis, Debye-Ang**3):
 XXXX=          -7983.5060 YYYY=           -840.3742 ZZZZ=           -287.5817 XXXY=           -287.8419
 XXXZ=            162.5066 YYYX=            -46.6790 YYYZ=              2.4313 ZZZX=             -7.8458
 ZZZY=             -0.4329 XXYY=          -1348.2585 XXZZ=          -1486.3632 YYZZ=           -199.1489
 XXYZ=             33.8254 YYXZ=             14.8984 ZZXY=             -2.1946
 N-N= 9.794272436073D+02 E-N=-4.242562346311D+03  KE= 9.701875736483D+02
 PrsmSu:  requested number of processors reduced to:  13 ShMem   1 Linda.
 Calling FoFJK, ICntrl=      2127 FMM=F ISym2X=0 I1Cent= 0 IOpClX= 0 NMat=1 NMatS=1 NMatT=0.
 ***** Axes restored to original set *****
 -------------------------------------------------------------------
 Center     Atomic                   Forces (Hartrees/Bohr)
 Number     Number              X              Y              Z
 -------------------------------------------------------------------
      1       16           0.073724385   -0.042860724    0.008729929
      2        6          -0.091616012    0.057580277   -0.009069062
      3        6           0.000835607   -0.052490925   -0.001380205
      4        6           0.044724443    0.022965463    0.004925839
      5        6          -0.057776750    0.035300276   -0.042648984
      6        6           0.031767220    0.012860131    0.016803790
      7        6          -0.011264278    0.005188185    0.021045536
      8        6           0.057021348    0.012034653    0.044911720
      9        6          -0.047813800   -0.001446423   -0.008996898
     10        6           0.027487998   -0.005220809    0.034342935
     11        6          -0.020701305   -0.069748139    0.031988188
     12        6           0.139847649    0.006337164   -0.011492632
     13        6          -0.079991511    0.010609443   -0.047752475
     14        6           0.007931197   -0.016593607    0.017175046
     15        6          -0.156875392    0.099621927   -0.071937698
     16        6          -0.015782545   -0.042412015   -0.014834489
     17        1           0.025185616   -0.043231418    0.010524599
     18        1           0.026116048   -0.030019458    0.011423095
     19        1           0.001417710    0.029917913   -0.002853372
     20        1          -0.026869217   -0.010114053    0.004565950
     21        1           0.050120257    0.055467065    0.002341074
     22        1          -0.012175486    0.007431072   -0.003818876
     23        1           0.005754989   -0.012909532    0.015964093
     24        1          -0.041291656    0.059381130    0.047322117
     25        1          -0.020070046   -0.030963088   -0.067472216
     26        1           0.032459844    0.020892416    0.012280369
     27        1           0.006989084   -0.046839179   -0.025565546
     28        1           0.050844604   -0.030737745    0.023478175
 -------------------------------------------------------------------
 Cartesian Forces:  Max     0.156875392 RMS     0.042879600

 GradGradGradGradGradGradGradGradGradGradGradGradGradGradGradGradGradGrad
 Berny optimization.
 FormGI is forming the generalized inverse of G from B-inverse, IUseBI=4.
 Internal  Forces:  Max     0.162895101 RMS     0.042513031
 Search for a local minimum.
 Step number   1 out of a maximum of  158
 All quantities printed in internal units (Hartrees-Bohrs-Radians)
 Mixed Optimization -- RFO/linear search
 Second derivative matrix not updated -- first step.
 ITU=  0
     Eigenvalues ---    0.00230   0.00230   0.00239   0.00438   0.00551
     Eigenvalues ---    0.00658   0.00745   0.00868   0.00921   0.01231
     Eigenvalues ---    0.01451   0.01620   0.02083   0.02344   0.02364
     Eigenvalues ---    0.02701   0.02834   0.02998   0.03072   0.03078
     Eigenvalues ---    0.03214   0.03410   0.03591   0.04907   0.05012
     Eigenvalues ---    0.05408   0.06420   0.09231   0.10152   0.10438
     Eigenvalues ---    0.10598   0.12333   0.12509   0.12852   0.13518
     Eigenvalues ---    0.13757   0.14405   0.15255   0.15514   0.15912
     Eigenvalues ---    0.15972   0.15973   0.15973   0.15999   0.16000
     Eigenvalues ---    0.16109   0.16416   0.16495   0.16916   0.18182
     Eigenvalues ---    0.19846   0.20504   0.21271   0.21628   0.22002
     Eigenvalues ---    0.22009   0.22096   0.23425   0.24994   0.25000
     Eigenvalues ---    0.25401   0.27335   0.29475   0.30108   0.33643
     Eigenvalues ---    0.34441   0.34627   0.35446   0.37963   0.40232
     Eigenvalues ---    0.46018   0.51049   0.51880   0.59575   0.60549
     Eigenvalues ---    0.62332   0.65599   0.75200
 RFO step:  Lambda=-4.06305885D-01 EMin= 2.30000000D-03
 Linear search not attempted -- first point.
 Maximum step size (   0.300) exceeded in Quadratic search.
    -- Step size scaled by   0.395
 Iteration  1 RMS(Cart)=  0.13775282 RMS(Int)=  0.00824126
 Iteration  2 RMS(Cart)=  0.01423348 RMS(Int)=  0.00015850
 Iteration  3 RMS(Cart)=  0.00013359 RMS(Int)=  0.00015070
 Iteration  4 RMS(Cart)=  0.00000002 RMS(Int)=  0.00015070
 Variable       Old X    -DE/DX   Delta X   Delta X   Delta X     New X
                                 (Linear)    (Quad)   (Total)
    R1        3.55937  -0.07674   0.00000  -0.04957  -0.04957   3.50979
    R2        2.81238  -0.00928   0.00000  -0.00493  -0.00493   2.80744
    R3        2.50509  -0.01554   0.00000  -0.00606  -0.00606   2.49902
    R4        2.20316  -0.05104   0.00000  -0.02966  -0.02966   2.17350
    R5        3.27913  -0.11964   0.00000  -0.08282  -0.08282   3.19631
    R6        2.14449  -0.01933   0.00000  -0.01079  -0.01079   2.13370
    R7        2.44974   0.07756   0.00000   0.03128   0.03130   2.48104
    R8        3.54931  -0.03011   0.00000  -0.02486  -0.02498   3.52433
    R9        2.53699   0.02882   0.00000   0.01498   0.01511   2.55210
   R10        1.97940   0.02844   0.00000   0.01389   0.01389   1.99329
   R11        2.39881   0.14577   0.00000   0.05004   0.05004   2.44885
   R12        1.95386   0.07302   0.00000   0.03475   0.03476   1.98862
   R13        2.56694   0.03753   0.00000   0.01658   0.01660   2.58354
   R14        1.90811   0.07136   0.00000   0.03252   0.03252   1.94064
   R15        2.45695   0.09280   0.00000   0.03501   0.03502   2.49197
   R16        2.04957   0.00124   0.00000   0.00065   0.00065   2.05021
   R17        2.87903   0.00891   0.00000   0.00579   0.00582   2.88484
   R18        2.06593  -0.00580   0.00000  -0.00305  -0.00305   2.06288
   R19        2.50019   0.13452   0.00000   0.05330   0.05335   2.55353
   R20        2.30091  -0.05019   0.00000  -0.03094  -0.03094   2.26996
   R21        2.76558  -0.06606   0.00000  -0.04926  -0.04926   2.71632
   R22        2.54835  -0.00637   0.00000  -0.00391  -0.00386   2.54449
   R23        3.66807  -0.04319   0.00000  -0.03605  -0.03607   3.63200
   R24        2.68854   0.04091   0.00000   0.02730   0.02728   2.71582
   R25        3.42471   0.03586   0.00000   0.02775   0.02781   3.45252
   R26        1.99200   0.00667   0.00000   0.00411   0.00418   1.99618
   R27        3.33344  -0.05209   0.00000  -0.03681  -0.03681   3.29663
   R28        3.28181   0.08145   0.00000   0.05689   0.05690   3.33871
   R29        3.49306   0.00955   0.00000   0.01004   0.00987   3.50293
   R30        2.24899  -0.04130   0.00000  -0.02470  -0.02470   2.22429
    A1        1.77523   0.13594   0.00000   0.08180   0.08180   1.85703
    A2        1.74623  -0.05293   0.00000  -0.03336  -0.03336   1.71287
    A3        2.28343   0.02345   0.00000   0.01460   0.01460   2.29803
    A4        2.25147   0.02964   0.00000   0.01892   0.01892   2.27038
    A5        2.27731  -0.16290   0.00000  -0.10269  -0.10268   2.17463
    A6        1.83859   0.12082   0.00000   0.07883   0.07883   1.91742
    A7        2.16399   0.04164   0.00000   0.02361   0.02363   2.18762
    A8        1.79761   0.05513   0.00000   0.03244   0.03244   1.83005
    A9        2.62820  -0.10526   0.00000  -0.06414  -0.06415   2.56405
   A10        1.85729   0.05015   0.00000   0.03172   0.03173   1.88902
   A11        1.88578  -0.01387   0.00000  -0.00140  -0.00116   1.88461
   A12        2.29967  -0.00228   0.00000  -0.00560  -0.00573   2.29394
   A13        2.09667   0.01651   0.00000   0.00728   0.00715   2.10382
   A14        2.31496   0.01167   0.00000   0.00666   0.00656   2.32153
   A15        2.15026  -0.04818   0.00000  -0.03492  -0.03484   2.11542
   A16        1.80790   0.03891   0.00000   0.03019   0.03012   1.83803
   A17        2.06821  -0.03385   0.00000  -0.01764  -0.01757   2.05063
   A18        2.05243   0.03525   0.00000   0.02184   0.02179   2.07422
   A19        2.11183   0.00394   0.00000   0.00112   0.00104   2.11287
   A20        2.24377   0.03903   0.00000   0.02351   0.02338   2.26715
   A21        2.11447  -0.03409   0.00000  -0.02189  -0.02185   2.09262
   A22        1.92486  -0.00478   0.00000  -0.00149  -0.00145   1.92341
   A23        1.95143  -0.00328   0.00000  -0.00013  -0.00001   1.95142
   A24        2.04712   0.01920   0.00000   0.01261   0.01252   2.05964
   A25        2.27847  -0.01712   0.00000  -0.01328  -0.01334   2.26513
   A26        1.40743  -0.00287   0.00000   0.00581   0.00602   1.41345
   A27        2.49984  -0.00844   0.00000  -0.00606  -0.00633   2.49351
   A28        1.50511   0.02524   0.00000   0.02069   0.02085   1.52596
   A29        1.40988   0.04987   0.00000   0.03438   0.03468   1.44456
   A30        1.96495  -0.01397   0.00000  -0.00523  -0.00507   1.95988
   A31        2.62716  -0.02671   0.00000  -0.02034  -0.02062   2.60653
   A32        2.80380   0.00763   0.00000   0.00792   0.00800   2.81181
   A33        1.92714  -0.00320   0.00000  -0.00571  -0.00594   1.92120
   A34        2.28260  -0.02667   0.00000  -0.01515  -0.01512   2.26748
   A35        2.03070   0.03082   0.00000   0.02201   0.02221   2.05290
   A36        1.18413   0.08600   0.00000   0.06352   0.06327   1.24740
   A37        1.42700  -0.01916   0.00000  -0.01519  -0.01548   1.41152
   A38        2.78850  -0.01576   0.00000  -0.01308  -0.01329   2.77521
   A39        2.40886   0.06405   0.00000   0.04467   0.04457   2.45344
   A40        2.26358  -0.07489   0.00000  -0.05335  -0.05301   2.21057
   A41        1.51760   0.00721   0.00000   0.00517   0.00520   1.52281
   A42        2.53241  -0.10742   0.00000  -0.07491  -0.07491   2.45750
   A43        2.23536   0.01053   0.00000   0.00651   0.00684   2.24220
   A44        1.92403   0.03969   0.00000   0.02607   0.02602   1.95005
   A45        1.20702  -0.02538   0.00000  -0.01761  -0.01759   1.18943
   A46        1.55282   0.06804   0.00000   0.04004   0.04005   1.59287
   A47        1.45060  -0.00856   0.00000  -0.00638  -0.00663   1.44398
    D1        2.94065   0.00227   0.00000   0.00215   0.00215   2.94280
    D2       -0.13539  -0.00065   0.00000  -0.00061  -0.00060  -0.13599
    D3       -0.00739  -0.00322   0.00000  -0.00288  -0.00296  -0.01034
    D4       -3.06267  -0.00334   0.00000  -0.00320  -0.00312  -3.06580
    D5        3.07038  -0.00062   0.00000  -0.00038  -0.00045   3.06993
    D6        0.01509  -0.00074   0.00000  -0.00069  -0.00062   0.01448
    D7       -2.79173  -0.00391   0.00000  -0.00403  -0.00414  -2.79587
    D8        0.36840  -0.00691   0.00000  -0.00674  -0.00674   0.36166
    D9        0.24944  -0.00325   0.00000  -0.00309  -0.00308   0.24636
   D10       -2.87362  -0.00626   0.00000  -0.00579  -0.00568  -2.87929
   D11        3.05687   0.01185   0.00000   0.00711   0.00702   3.06389
   D12       -0.03361   0.00279   0.00000   0.00025   0.00020  -0.03342
   D13       -0.09422   0.01148   0.00000   0.00732   0.00735  -0.08686
   D14        3.09849   0.00242   0.00000   0.00047   0.00053   3.09902
   D15       -0.24092   0.01886   0.00000   0.01128   0.01148  -0.22944
   D16       -2.86679  -0.00962   0.00000  -0.00698  -0.00707  -2.87386
   D17        2.42586  -0.00153   0.00000   0.00022   0.00013   2.42600
   D18        2.91950   0.01584   0.00000   0.00856   0.00887   2.92836
   D19        0.29363  -0.01264   0.00000  -0.00969  -0.00968   0.28395
   D20       -0.69690  -0.00455   0.00000  -0.00250  -0.00248  -0.69938
   D21        2.96029  -0.01356   0.00000  -0.01211  -0.01203   2.94826
   D22       -0.35963   0.01048   0.00000   0.00718   0.00705  -0.35258
   D23       -0.22539  -0.00627   0.00000  -0.00661  -0.00650  -0.23189
   D24        2.73788   0.01777   0.00000   0.01268   0.01258   2.75046
   D25        2.92791   0.00542   0.00000   0.00737   0.00768   2.93559
   D26        0.11936  -0.01237   0.00000  -0.00979  -0.00967   0.10969
   D27       -0.06039  -0.00886   0.00000  -0.00451  -0.00453  -0.06492
   D28       -2.86894  -0.02666   0.00000  -0.02167  -0.02188  -2.89082
   D29        2.01096  -0.01841   0.00000  -0.01569  -0.01529   1.99567
   D30        0.63427  -0.01683   0.00000  -0.01335  -0.01307   0.62121
   D31       -1.26528  -0.00016   0.00000  -0.00135  -0.00114  -1.26642
   D32       -2.64197   0.00142   0.00000   0.00098   0.00108  -2.64089
   D33        3.11748  -0.03711   0.00000  -0.03072  -0.03080   3.08667
   D34       -0.03957  -0.02260   0.00000  -0.01886  -0.01895  -0.05852
   D35       -0.36891  -0.01287   0.00000  -0.00904  -0.00907  -0.37798
   D36        2.75722   0.00164   0.00000   0.00282   0.00279   2.76001
   D37       -3.05853   0.01101   0.00000   0.00927   0.00939  -3.04915
   D38       -0.02344  -0.00064   0.00000   0.00142   0.00143  -0.02201
   D39        0.09716  -0.00196   0.00000  -0.00137  -0.00139   0.09577
   D40        3.13226  -0.01361   0.00000  -0.00923  -0.00935   3.12291
   D41        1.74461   0.00058   0.00000   0.00843   0.00834   1.75294
   D42        0.51194  -0.04583   0.00000  -0.04112  -0.04108   0.47086
   D43       -1.27235   0.01116   0.00000   0.01540   0.01529  -1.25706
   D44       -2.50501  -0.03525   0.00000  -0.03415  -0.03413  -2.53915
   D45        1.43962   0.01806   0.00000   0.01543   0.01501   1.45463
   D46       -2.18046   0.00990   0.00000   0.00953   0.00952  -2.17093
   D47       -2.30353   0.00024   0.00000  -0.00116  -0.00125  -2.30478
   D48        0.35958  -0.00791   0.00000  -0.00707  -0.00674   0.35284
   D49        1.25682  -0.03121   0.00000  -0.02179  -0.02169   1.23513
   D50       -3.06231   0.02530   0.00000   0.02407   0.02381  -3.03850
   D51        2.86080   0.00258   0.00000   0.00225   0.00231   2.86311
   D52        0.04746  -0.00776   0.00000  -0.00657  -0.00649   0.04097
   D53       -2.99856  -0.00498   0.00000  -0.00504  -0.00480  -3.00337
   D54        1.31675  -0.02077   0.00000  -0.01426  -0.01420   1.30256
   D55        3.06036   0.00949   0.00000   0.00503   0.00502   3.06539
   D56       -2.10074  -0.02301   0.00000  -0.01372  -0.01361  -2.11435
   D57       -0.35713   0.00724   0.00000   0.00558   0.00561  -0.35152
   D58        3.11202   0.00304   0.00000   0.00252   0.00230   3.11432
   D59        0.31433  -0.00194   0.00000  -0.00209  -0.00222   0.31212
   D60        2.99738  -0.00371   0.00000  -0.00228  -0.00286   2.99452
   D61       -2.46796   0.01568   0.00000   0.01399   0.01454  -2.45342
   D62        0.06271   0.00055   0.00000   0.00039   0.00041   0.06312
   D63       -0.49915   0.00334   0.00000   0.00265   0.00288  -0.49628
   D64       -2.66790   0.00496   0.00000   0.00433   0.00440  -2.66350
   D65       -1.25081  -0.04897   0.00000  -0.03783  -0.03786  -1.28867
   D66        2.86363  -0.04735   0.00000  -0.03615  -0.03633   2.82730
   D67        2.34862  -0.00788   0.00000  -0.00658  -0.00645   2.34217
   D68        0.17987  -0.00626   0.00000  -0.00490  -0.00492   0.17494
   D69        0.68333  -0.00166   0.00000  -0.00254  -0.00261   0.68071
   D70       -3.04095  -0.00992   0.00000  -0.00458  -0.00495  -3.04590
   D71       -0.29374   0.01088   0.00000   0.00812   0.00820  -0.28554
         Item               Value     Threshold  Converged?
 Maximum Force            0.162895     0.000450     NO 
 RMS     Force            0.042513     0.000300     NO 
 Maximum Displacement     1.045046     0.001800     NO 
 RMS     Displacement     0.146280     0.001200     NO 
 Predicted change in Energy=-1.494346D-01
 GradGradGradGradGradGradGradGradGradGradGradGradGradGradGradGradGradGrad

                          Input orientation:                          
 ---------------------------------------------------------------------
 Center     Atomic      Atomic             Coordinates (Angstroms)
 Number     Number       Type             X           Y           Z
 ---------------------------------------------------------------------
      1         16           0        1.589792   -0.800194    0.198554
      2          6           0        3.419990   -0.494764    0.280189
      3          6           0        3.611697    0.963354    0.069840
      4          6           0        4.887442    1.035554    0.410533
      5          6           0        5.820763   -0.279030    0.922064
      6          6           0        6.838047    0.256797    1.555903
      7          6           0        7.577552   -0.744765    2.079247
      8          6           0        8.752655   -0.784439    2.624082
      9          6           0        9.107886   -1.932785    3.275398
     10          6           0       10.244901   -2.256766    3.859512
     11          6           0       10.237989   -3.701785    4.351814
     12          6           0       10.944613   -3.869677    3.212326
     13          6           0        9.296408   -3.916961    2.096518
     14          6           0        7.621743   -3.271757    1.408630
     15          6           0        6.024187   -2.132624    0.953876
     16          6           0        4.407423   -1.761527    0.413832
     17          1           0        2.876345    1.796166   -0.227759
     18          1           0        5.228232    2.111894    0.395219
     19          1           0        7.103737    1.263625    1.724175
     20          1           0        7.169411   -1.703124    2.228812
     21          1           0        9.248364    0.098053    2.797542
     22          1           0        8.394557   -2.745027    3.367541
     23          1           0       11.062219   -1.533875    3.826825
     24          1           0        9.752833   -4.781249    4.146156
     25          1           0       12.039179   -3.449161    4.043745
     26          1           0       10.394219   -4.792918    2.401332
     27          1           0        6.864867   -3.782949    0.877908
     28          1           0        3.453055   -2.284265   -0.034893
 ---------------------------------------------------------------------
                    Distance matrix (angstroms):
                    1          2          3          4          5
     1  S    0.000000
     2  C    1.857303   0.000000
     3  C    2.686032   1.485634   0.000000
     4  C    3.780133   2.124213   1.322426   0.000000
     5  C    4.323909   2.494445   2.673906   1.691415   0.000000
     6  C    5.523025   3.724970   3.621731   2.392319   1.312909
     7  C    6.276411   4.537007   4.762708   3.631919   2.154597
     8  C    7.562409   5.832243   6.000698   4.811657   3.427579
     9  C    8.201918   6.587210   6.990802   5.901748   4.367867
    10  C    9.509738   7.905416   8.290366   7.171972   5.666836
    11  C   10.022979   8.564358   9.165510   8.161154   6.556701
    12  C   10.296466   8.752566   9.327651   8.282551   6.662724
    13  C    8.526924   7.038663   7.761498   6.841706   5.166623
    14  C    6.630032   5.161375   5.984062   5.198608   3.526569
    15  C    4.691453   3.149330   4.023271   3.409511   1.864994
    16  C    2.984887   1.611699   2.859456   2.837973   2.110361
    17  H    2.928831   2.408719   1.150167   2.242869   3.781287
    18  H    4.664459   3.174530   2.009528   1.129106   2.518963
    19  H    6.081978   4.329783   3.875736   2.586433   2.160831
    20  H    6.005779   4.394932   4.942529   4.001735   2.356796
    21  H    8.137279   6.376397   6.321481   5.059087   3.925310
    22  H    7.754333   6.272300   6.892219   5.944455   4.322721
    23  H   10.170030   8.488937   8.709843   7.510052   6.122511
    24  H    9.902908   8.568813   9.345072   8.453527   6.791607
    25  H   11.445183   9.858156  10.309446   9.190226   7.646132
    26  H    9.915240   8.462460   9.196365   8.261898   6.593930
    27  H    6.097931   4.799647   5.810636   5.229400   3.656440
    28  H    2.393473   1.817329   3.253178   3.643772   3.246964
                    6          7          8          9         10
     6  C    0.000000
     7  C    1.350513   0.000000
     8  C    2.427119   1.295873   0.000000
     9  C    3.592089   2.276860   1.367150   0.000000
    10  C    4.819883   3.545453   2.433276   1.318694   0.000000
    11  C    5.920059   4.581098   3.701646   2.359061   1.526594
    12  C    6.052720   4.731389   3.830066   2.670037   1.873480
    13  C    4.874020   3.607991   3.222838   2.315655   2.600776
    14  C    3.617536   2.614836   2.990491   2.736109   3.730682
    15  C    2.595022   2.367605   3.471560   3.865049   5.125676
    16  C    3.359448   3.722516   4.972016   5.505655   6.796625
    17  H    4.609359   5.820649   7.023072   8.062834   9.350276
    18  H    2.716629   4.063958   5.077217   6.301315   7.500232
    19  H    1.054803   2.093850   2.779088   4.079208   5.178776
    20  H    2.098547   1.052331   1.872667   2.214897   3.524817
    21  H    2.715971   2.004471   1.026941   2.091024   2.768761
    22  H    3.836106   2.515601   2.127175   1.084927   1.975906
    23  H    5.119300   3.977390   2.709674   2.069449   1.091627
    24  H    6.370817   5.029629   4.392216   3.047610   2.587916
    25  H    6.853851   5.574866   4.462895   3.388545   2.162217
    26  H    6.233838   4.942155   4.337309   3.255611   2.929274
    27  H    4.096334   3.343904   3.950181   3.768581   4.758552
    28  H    4.521703   4.883761   6.115994   6.561911   7.829196
                   11         12         13         14         15
    11  C    0.000000
    12  C    1.351273   0.000000
    13  C    2.453413   1.990940   0.000000
    14  C    3.961313   3.827832   1.921974   0.000000
    15  C    5.635990   5.685820   3.898323   2.014103   0.000000
    16  C    7.298479   7.416921   5.601741   3.688125   1.744501
    17  H   10.266146  10.441883   8.902769   7.133051   5.171128
    18  H    8.634302   8.740269   7.469376   5.978260   4.354489
    19  H    6.432987   6.581619   5.637812   4.575761   3.645997
    20  H    4.232960   4.462443   3.072897   1.826996   1.766769
    21  H    4.223019   4.334996   4.076038   3.991315   4.332476
    22  H    2.298352   2.791364   1.949940   2.170719   3.437946
    23  H    2.377983   2.418142   3.433825   4.550250   5.830446
    24  H    1.201213   1.767298   2.270757   3.783406   5.577515
    25  H    1.844725   1.437416   3.396075   5.146752   6.889172
    26  H    2.240392   1.346484   1.437150   3.314515   5.316904
    27  H    4.842784   4.701208   2.723116   1.056335   1.853669
    28  H    8.202920   8.317536   6.430660   4.520714   2.758872
                   16         17         18         19         20
    16  C    0.000000
[...]
   A31        1.99567   0.00017   0.00323  -0.01707  -0.01369   1.98198
   A32        2.78614   0.01097  -0.01393   0.08869   0.07086   2.85700
   A33        1.43755   0.00250   0.00324  -0.02867  -0.01899   1.41856
   A34        1.66518  -0.01052   0.01374  -0.05505  -0.03318   1.63201
   A35        3.10249  -0.00808   0.01701  -0.08384  -0.05620   3.04628
   A36        2.04688   0.01099   0.02394  -0.02741  -0.01234   2.03454
   A37        1.24952   0.00663   0.00383   0.00524   0.00376   1.25328
   A38        2.63906  -0.00144  -0.00448   0.00771  -0.00246   2.63660
   A39        2.86725  -0.02624  -0.03511  -0.03321  -0.06342   2.80383
   A40        1.41882  -0.00060  -0.00604   0.04078   0.04627   1.46509
   A41        1.67903  -0.00762  -0.01027  -0.00153  -0.01045   1.66858
   A42        2.07799  -0.01026  -0.00055   0.00763   0.00707   2.08506
   A43        2.27629   0.00145   0.00810  -0.01302   0.00258   2.27887
   A44        1.89724   0.00511  -0.00388   0.01613   0.01511   1.91235
   A45        0.63121   0.00044   0.01347  -0.02301  -0.00464   0.62657
   A46        2.47369  -0.01429   0.00796  -0.05441  -0.04624   2.42745
   A47        0.79327  -0.00073   0.01346  -0.05753  -0.03294   0.76033
    D1       -3.08541  -0.00203   0.02207   0.03271   0.05475  -3.03066
    D2        0.04142  -0.00301   0.03134  -0.01952   0.01184   0.05327
    D3       -0.04402  -0.00256   0.02440  -0.04870  -0.02432  -0.06834
    D4       -3.10549  -0.00412   0.01467  -0.10479  -0.09011   3.08758
    D5        3.11285  -0.00163   0.01481   0.00540   0.02020   3.13305
    D6        0.05138  -0.00319   0.00507  -0.05069  -0.04559   0.00578
    D7       -3.10448   0.00275  -0.00348   0.00569   0.00186  -3.10263
    D8        0.03893   0.00022  -0.00961   0.00551  -0.00379   0.03514
    D9       -0.04039   0.00345   0.00586   0.05991   0.06547   0.02508
   D10        3.10302   0.00091  -0.00026   0.05974   0.05982  -3.12034
   D11        2.84942  -0.01124  -0.01746   0.01986   0.00231   2.85173
   D12       -0.27269  -0.00102  -0.00429   0.00244  -0.00122  -0.27391
   D13       -0.29423  -0.00809  -0.01060   0.02011   0.00860  -0.28563
   D14        2.86684   0.00212   0.00257   0.00268   0.00508   2.87191
   D15        0.04403  -0.02080  -0.02013  -0.05449  -0.07384  -0.02982
   D16       -2.85133   0.00100   0.00666   0.00395   0.00985  -2.84148
   D17        2.23918   0.00343   0.01773   0.00492   0.02377   2.26295
   D18       -3.09554  -0.02353  -0.02700  -0.05473  -0.08008   3.10757
   D19        0.29230  -0.00173  -0.00021   0.00371   0.00362   0.29591
   D20       -0.90038   0.00070   0.01087   0.00467   0.01754  -0.88285
   D21        2.79858   0.01020   0.01188  -0.01998  -0.00706   2.79153
   D22       -0.08701   0.01101   0.02124  -0.05240  -0.03026  -0.11727
   D23       -0.36312  -0.00034  -0.00167  -0.00214  -0.00351  -0.36664
   D24        3.03447   0.00047   0.00770  -0.03455  -0.02672   3.00775
   D25       -2.79847   0.00055   0.00539  -0.04035  -0.03682  -2.83530
   D26        0.11937   0.00132  -0.00020  -0.00682  -0.00804   0.11133
   D27        0.07304  -0.00035  -0.00267  -0.01308  -0.01708   0.05596
   D28        2.99088   0.00042  -0.00826   0.02045   0.01171   3.00259
   D29        0.83300   0.00467  -0.00845   0.04481   0.04045   0.87345
   D30        0.24350  -0.00026  -0.01894   0.05349   0.03360   0.27711
   D31       -2.10093   0.00554  -0.00282   0.02236   0.02287  -2.07806
   D32       -2.69043   0.00061  -0.01331   0.03104   0.01603  -2.67440
   D33        2.54818   0.00024  -0.00384   0.01308   0.00964   2.55782
   D34       -0.29292   0.00064  -0.00478   0.00155  -0.00329  -0.29621
   D35       -0.37050  -0.00039   0.00194  -0.01950  -0.01809  -0.38859
   D36        3.07158   0.00001   0.00101  -0.03103  -0.03101   3.04057
   D37       -2.98423   0.00471  -0.02304   0.07402   0.04963  -2.93460
   D38        0.05091   0.00244  -0.00961   0.02867   0.01829   0.06920
   D39       -0.14313   0.00419  -0.02145   0.08341   0.06119  -0.08194
   D40        2.89202   0.00192  -0.00801   0.03806   0.02984   2.92186
   D41        1.53521  -0.00073   0.00696  -0.02000  -0.01302   1.52219
   D42       -0.56432  -0.00142   0.00771  -0.02766  -0.02043  -0.58474
   D43       -1.50197   0.00164  -0.00625   0.02531   0.01876  -1.48320
   D44        2.68169   0.00095  -0.00550   0.01765   0.01136   2.69305
   D45        1.07223  -0.00261   0.01421  -0.04372  -0.03049   1.04174
   D46       -1.87138  -0.00032   0.00626   0.00229   0.00746  -1.86392
   D47        3.12305   0.00184   0.00016   0.00960   0.00937   3.13242
   D48        0.17944   0.00414  -0.00779   0.05560   0.04732   0.22676
   D49        1.50964  -0.00266   0.01473  -0.05202  -0.03855   1.47109
   D50       -1.44698  -0.00037   0.00747  -0.01016  -0.00416  -1.45114
   D51       -0.68894  -0.00148  -0.01056   0.01119   0.00882  -0.68012
   D52        2.44828  -0.00243  -0.00883   0.00550  -0.01522   2.43306
   D53        0.22300  -0.00247   0.00069  -0.00815  -0.01041   0.21259
   D54        1.92016  -0.00469   0.02391  -0.07455  -0.05074   1.86942
   D55        3.02263   0.00527   0.02142  -0.04878  -0.02776   2.99487
   D56        1.80840  -0.00602  -0.26509   0.01957  -0.24158   1.56681
   D57        2.91087   0.00394  -0.26758   0.04534  -0.21861   2.69226
   D58       -3.02054  -0.00487  -0.02228   0.05284   0.03750  -2.98305
   D59       -2.90928  -0.00362   0.26691  -0.04187   0.22581  -2.68347
   D60        3.06080  -0.00037   0.03136   0.08836   0.11776  -3.10462
   D61       -1.10387   0.00670   0.05112  -0.10218  -0.05035  -1.15422
   D62        0.32564  -0.00671   0.02264   0.06122   0.08510   0.41074
   D63       -0.33777  -0.00619   0.01303  -0.04755  -0.03385  -0.37162
   D64       -2.67959  -0.00050   0.00338  -0.01710  -0.01888  -2.69846
   D65       -2.55257  -0.02243  -0.02034   0.12376   0.10360  -2.44897
   D66        1.38879  -0.01674  -0.02999   0.15421   0.11858   1.50737
   D67        2.33677  -0.00662   0.01177  -0.04020  -0.03271   2.30406
   D68       -0.00505  -0.00092   0.00211  -0.00975  -0.01774  -0.02279
   D69        1.09896   0.00233  -0.01149   0.01840   0.01984   1.11880
   D70       -2.86026   0.02690   0.02936   0.05564   0.09649  -2.76377
   D71        0.00815   0.00154  -0.00341   0.01611   0.03023   0.03838
         Item               Value     Threshold  Converged?
 Maximum Force            0.226985     0.000450     NO 
 RMS     Force            0.035543     0.000300     NO 
 Maximum Displacement     0.295740     0.001800     NO 
 RMS     Displacement     0.048657     0.001200     NO 
 Predicted change in Energy=-1.354336D-02
 GradGradGradGradGradGradGradGradGradGradGradGradGradGradGradGradGradGrad

                          Input orientation:                          
 ---------------------------------------------------------------------
 Center     Atomic      Atomic             Coordinates (Angstroms)
 Number     Number       Type             X           Y           Z
 ---------------------------------------------------------------------
      1         16           0        2.186660   -1.414108   -1.130698
      2          6           0        3.515893   -0.917747   -0.233399
      3          6           0        3.891645    0.447410   -0.065056
      4          6           0        5.050809    0.764525    0.566658
      5          6           0        5.936943   -0.213329    1.178956
      6          6           0        7.075372    0.272910    1.837020
      7          6           0        7.766329   -0.545490    2.722640
      8          6           0        9.043168   -0.521459    3.232116
      9          6           0        9.483301   -1.730906    3.799275
     10          6           0       10.746521   -2.288396    3.834144
     11          6           0       10.833454   -3.709739    4.274631
     12          6           0       10.614609   -4.030829    2.947230
     13          6           0        7.306078   -3.566412    1.733944
     14          6           0        6.328755   -2.820637    1.333176
     15          6           0        5.547176   -1.628511    1.051699
     16          6           0        4.363413   -1.884775    0.397061
     17          1           0        3.255204    1.208606   -0.501931
     18          1           0        5.353519    1.804540    0.645792
     19          1           0        7.381297    1.298746    1.643364
     20          1           0        7.199890   -1.450282    2.844103
     21          1           0        9.722152    0.304896    3.040196
     22          1           0        8.678189   -2.428433    4.024911
     23          1           0       11.617359   -1.770428    3.438804
     24          1           0       10.121954   -4.056281    5.025579
     25          1           0       11.285156   -3.703301    2.173463
     26          1           0        9.671678   -4.435854    2.566466
     27          1           0        5.981124   -3.566252    0.572254
     28          1           0        4.012462   -2.912664    0.306524
 ---------------------------------------------------------------------
                    Distance matrix (angstroms):
                    1          2          3          4          5
     1  S    0.000000
     2  C    1.678803   0.000000
     3  C    2.740040   1.425897   0.000000
     4  C    3.978795   2.413731   1.357677   0.000000
     5  C    4.565193   2.890058   2.483421   1.454764   0.000000
     6  C    5.962624   4.286512   3.712742   2.440155   1.401962
     7  C    6.836330   5.190660   4.875476   3.706540   2.416598
     8  C    8.175737   6.535871   6.192595   4.969642   3.736181
     9  C    8.811695   7.248010   7.137557   6.026937   4.663236
    10  C    9.934046   8.408661   8.347318   7.241403   5.872647
    11  C   10.452490   9.036828   9.181693   8.197992   6.766382
    12  C    9.721474   8.378512   8.621295   7.721296   6.291317
    13  C    6.248762   5.025074   5.568260   5.020538   3.664111
    14  C    5.020553   3.739966   4.309836   3.882535   2.641090
    15  C    4.012717   2.506547   2.880516   2.491639   1.473381
    16  C    2.700709   1.432102   2.423882   2.742274   2.425096
    17  H    2.900994   2.159038   1.084130   2.136186   3.469726
    18  H    4.852278   3.400101   2.117588   1.086060   2.167127
    19  H    6.483768   4.834917   3.977579   2.622186   2.142009
    20  H    6.397877   4.829746   4.796762   3.835449   2.428540
    21  H    8.782652   7.122425   6.607398   5.305760   4.249774
    22  H    8.351593   6.860371   6.921655   5.942422   4.529965
    23  H   10.485485   8.935653   8.768267   7.602288   6.308614
    24  H   10.385071   9.008179   9.220333   8.296906   6.861422
    25  H    9.946885   8.597311   8.769457   7.836477   6.463152
    26  H    8.878370   7.622993   8.011239   7.238480   5.805442
    27  H    4.682919   3.706889   4.569636   4.429576   3.407658
    28  H    2.764928   2.125510   3.382716   3.829824   3.427999
                    6          7          8          9         10
     6  C    0.000000
     7  C    1.389792   0.000000
     8  C    2.539594   1.374941   0.000000
     9  C    3.696464   2.347839   1.406467   0.000000
    10  C    4.901646   3.626942   2.527037   1.381209   0.000000
    11  C    5.993882   4.672088   3.802248   2.442265   1.490571
    12  C    5.681631   4.506743   3.855679   2.701015   1.959614
    13  C    3.847627   3.211747   3.812314   3.517808   4.228571
    14  C    3.222006   3.028782   4.032397   4.149737   5.104388
    15  C    2.562715   2.981546   4.266349   4.801326   5.933855
    16  C    3.752839   4.333802   5.638818   6.149145   7.260890
    17  H    4.576014   5.815923   7.101884   8.119747   9.335438
    18  H    2.594165   3.956967   5.070785   6.284818   7.483461
    19  H    1.087857   2.171242   2.932421   4.271436   5.384407
    20  H    1.999778   1.074362   2.100224   2.490997   3.776402
    21  H    2.907594   2.156210   1.086608   2.185805   2.899112
    22  H    3.827943   2.464320   2.097209   1.088881   2.081827
    23  H    5.231691   4.104120   2.868641   2.164649   1.087632
    24  H    6.179844   4.814369   4.107950   2.705378   2.221490
    25  H    5.800494   4.759780   4.033779   3.127345   2.247208
    26  H    5.426357   4.334706   4.020025   2.978598   2.715487
    27  H    4.187621   4.115351   5.071660   5.103665   5.914546
    28  H    4.676720   5.052984   6.291657   6.597419   7.627671
                   11         12         13         14         15
    11  C    0.000000
    12  C    1.383107   0.000000
    13  C    4.349484   3.554451   0.000000
    14  C    5.452978   4.736906   1.293041   0.000000
    15  C    6.531733   5.919717   2.704562   1.453017   0.000000
    16  C    7.760636   7.084233   3.643410   2.369539   1.376778
    17  H   10.219371   9.670018   6.649024   5.389725   3.964358
    18  H    8.579361   8.187015   5.817532   4.776593   3.462383
    19  H    6.627660   6.368575   4.866582   4.263024   3.504696
    20  H    4.511579   4.281374   2.392014   2.218028   2.444573
    21  H    4.344666   4.427599   4.746655   4.919148   5.012245
    22  H    2.519777   2.734738   2.902794   3.594315   4.391253
    23  H    2.252563   2.521223   4.971846   5.788431   6.524226
    24  H    1.090985   2.136092   4.359356   5.435900   6.527969
    25  H    2.149181   1.074999   4.005618   5.104027   6.203831
    26  H    2.189702   1.094598   2.654258   3.912168   5.214135
    27  H    6.105185   5.227382   1.762108   1.120621   2.042797
    28  H    7.931402   7.198053   3.648674   2.535291   2.135342
                   16         17         18         19         20
    16  C    0.000000
    17  H    3.406659   0.000000
    18  H    3.827953   2.464818   0.000000
    19  H    4.560230   4.651350   2.315785   0.000000
    20  H    3.771260   5.816028   4.339991   3.005301   0.000000
    21  H    6.363718   7.428645   5.202601   2.901462   3.079108
    22  H    5.663405   7.945384   6.355308   4.609291   2.129896
    23  H    7.866702   9.712347   7.734146   5.530611   4.468803
    24  H    7.700611  10.267651   8.733254   6.901224   4.482023
    25  H    7.373816   9.785944   8.237379   6.367228   4.713306
    26  H    6.276304   9.079985   7.828027   6.243684   3.885931
    27  H    2.339881   5.602124   5.407837   5.174549   3.335268
    28  H    1.089917   4.267541   4.915846   5.556272   4.328691
                   21         22         23         24         25
    21  H    0.000000
    22  H    3.087169   0.000000
    23  H    2.838604   3.068422   0.000000
    24  H    4.808478   2.394928   3.158990   0.000000
    25  H    4.388605   3.442300   2.333976   3.100354   0.000000
    26  H    4.764628   2.672793   3.413377   2.528648   1.815047
    27  H    5.922146   4.526547   6.573373   6.100713   5.542148
    28  H    7.101142   5.985808   8.303634   7.804052   7.550010
                   26         27         28
    26  H    0.000000
    27  H    4.284072   0.000000
    28  H    6.281256   2.091273   0.000000
 Stoichiometry    C15H12S
 Framework group  C1[X(C15H12S)]
 Deg. of freedom    78
 Full point group                 C1      NOp   1
 Largest Abelian subgroup         C1      NOp   1
 Largest concise Abelian subgroup C1      NOp   1
                         Standard orientation:                         
 ---------------------------------------------------------------------
 Center     Atomic      Atomic             Coordinates (Angstroms)
 Number     Number       Type             X           Y           Z
 ---------------------------------------------------------------------
      1         16           0       -5.007153   -1.049891   -0.009674
      2          6           0       -3.555579   -0.207499    0.031420
      3          6           0       -3.456736    1.206399   -0.124474
      4          6           0       -2.239316    1.801500   -0.208310
      5          6           0       -0.976557    1.092987   -0.067649
      6          6           0        0.199058    1.854146   -0.131387
      7          6           0        1.396098    1.320310    0.330822
      8          6           0        2.717363    1.626196    0.104653
      9          6           0        3.632857    0.617555    0.454883
     10          6           0        4.838012    0.271051   -0.124146
     11          6           0        5.440196   -1.019236    0.316686
     12          6           0        4.675619   -1.601671   -0.677887
     13          6           0        1.188397   -1.863024   -0.041417
     14          6           0        0.003526   -1.356019    0.063378
     15          6           0       -1.056062   -0.364308    0.134395
     16          6           0       -2.318863   -0.908027    0.206663
     17          1           0       -4.375225    1.773041   -0.227588
     18          1           0       -2.174219    2.872330   -0.377461
     19          1           0        0.136264    2.862882   -0.533805
     20          1           0        1.177151    0.377313    0.796734
     21          1           0        3.013954    2.497192   -0.473376
     22          1           0        3.218063   -0.141046    1.116798
     23          1           0        5.264578    0.834552   -0.950858
     24          1           0        5.284586   -1.328559    1.351265
     25          1           0        4.789692   -1.321058   -1.709327
     26          1           0        3.782930   -2.204959   -0.484767
     27          1           0       -0.498496   -2.269248   -0.348663
     28          1           0       -2.432905   -1.976336    0.390045
 ---------------------------------------------------------------------
 Rotational constants (GHZ):           1.2957027           0.1945630           0.1716180
 Standard basis: 6-31G(2df,p) (6D, 7F)
 There are   560 symmetry adapted cartesian basis functions of A   symmetry.
 There are   512 symmetry adapted basis functions of A   symmetry.
   512 basis functions,   812 primitive gaussians,   560 cartesian basis functions
    59 alpha electrons       59 beta electrons
       nuclear repulsion energy       996.7859425410 Hartrees.
 NAtoms=   28 NActive=   28 NUniq=   28 SFac= 1.00D+00 NAtFMM=   60 NAOKFM=F Big=F
 Integral buffers will be    131072 words long.
 Raffenetti 2 integral format.
 Two-electron integral symmetry is turned on.
 One-electron integrals computed using PRISM.
 PrsmSu:  requested number of processors reduced to:  12 ShMem   1 Linda.
 NBasis=   512 RedAO= T EigKep=  1.15D-04  NBF=   512
 NBsUse=   512 1.00D-06 EigRej= -1.00D+00 NBFU=   512
 Initial guess from the checkpoint file:  "Sdc1ccc2cccccccccc-2c1.chk"
 B after Tr=     0.000000    0.000000   -0.000000
         Rot=    0.999997    0.002133   -0.000110   -0.001206 Ang=   0.28 deg.
 ExpMin= 1.17D-01 ExpMax= 2.19D+04 ExpMxC= 3.30D+03 IAcc=2 IRadAn=         4 AccDes= 0.00D+00
 Harris functional with IExCor=  402 and IRadAn=       4 diagonalized for initial guess.
 HarFok:  IExCor=  402 AccDes= 0.00D+00 IRadAn=         4 IDoV= 1 UseB2=F ITyADJ=14
 ICtDFT=  3500011 ScaDFX=  1.000000  1.000000  1.000000  1.000000
 FoFCou: FMM=F IPFlag=           0 FMFlag=      100000 FMFlg1=           0
         NFxFlg=           0 DoJE=T BraDBF=F KetDBF=T FulRan=T
         wScrn=  0.000000 ICntrl=       500 IOpCl=  0 I1Cent=   200000004 NGrid=           0
         NMat0=    1 NMatS0=      1 NMatT0=    0 NMatD0=    1 NMtDS0=    0 NMtDT0=    0
 Petite list used in FoFCou.
 Requested convergence on RMS density matrix=1.00D-08 within 128 cycles.
 Requested convergence on MAX density matrix=1.00D-06.
 Requested convergence on             energy=1.00D-06.
 No special actions if energy rises.
 Integral accuracy reduced to 1.0D-05 until final iterations.
 Initial convergence to 1.0D-05 achieved.  Increase integral accuracy.
slurmstepd: error: *** JOB 27447222 ON lewis4-r630-hpc4-node672 CANCELLED AT 2023-05-17T21:30:03 DUE TO TIME LIMIT ***
