### Starting Gaussian ###
 Entering Gaussian System, Link 0=g16
 Initial command:
 /cluster/software/gaussian/gaussian-16-A.03/avx2/g16/l1.exe "/local/scratch/yxie/Gau-31299.inp" -scrdir="/local/scratch/yxie/"
 Entering Link 1 = /cluster/software/gaussian/gaussian-16-A.03/avx2/g16/l1.exe PID=     31300.
  
 Copyright (c) 1988,1990,1992,1993,1995,1998,2003,2009,2016,
            Gaussian, Inc.  All Rights Reserved.
  
 This is part of the Gaussian(R) 16 program.  It is based on
 the Gaussian(R) 09 system (copyright 2009, Gaussian, Inc.),
 the Gaussian(R) 03 system (copyright 2003, Gaussian, Inc.),
 the Gaussian(R) 98 system (copyright 1998, Gaussian, Inc.),
 the Gaussian(R) 94 system (copyright 1995, Gaussian, Inc.),
 the Gaussian 92(TM) system (copyright 1992, Gaussian, Inc.),
 the Gaussian 90(TM) system (copyright 1990, Gaussian, Inc.),
 the Gaussian 88(TM) system (copyright 1988, Gaussian, Inc.),
 the Gaussian 86(TM) system (copyright 1986, Carnegie Mellon
 University), and the Gaussian 82(TM) system (copyright 1983,
 Carnegie Mellon University). Gaussian is a federally registered
 trademark of Gaussian, Inc.
  
 This software contains proprietary and confidential information,
 including trade secrets, belonging to Gaussian, Inc.
  
 This software is provided under written license and may be
 used, copied, transmitted, or stored only in accord with that
 written license.
  
 The following legend is applicable only to US Government
 contracts under FAR:
  
                    RESTRICTED RIGHTS LEGEND
  
 Use, reproduction and disclosure by the US Government is
 subject to restrictions as set forth in subparagraphs (a)
 and (c) of the Commercial Computer Software - Restricted
 Rights clause in FAR 52.227-19.
  
 Gaussian, Inc.
 340 Quinnipiac St., Bldg. 40, Wallingford CT 06492
  
  
 ---------------------------------------------------------------
 Warning -- This program may not be used in any manner that
 competes with the business of Gaussian, Inc. or will provide
 assistance to any competitor of Gaussian, Inc.  The licensee
 of this program is prohibited from giving any competitor of
 Gaussian, Inc. access to this program.  By using this program,
 the user acknowledges that Gaussian, Inc. is engaged in the
 business of creating and licensing software in the field of
 computational chemistry and represents and warrants to the
 licensee that it is not a competitor of Gaussian, Inc. and that
 it will not use this program in any manner prohibited above.
 ---------------------------------------------------------------
  

 Cite this work as:
 Gaussian 16, Revision A.03,
 M. J. Frisch, G. W. Trucks, H. B. Schlegel, G. E. Scuseria, 
 M. A. Robb, J. R. Cheeseman, G. Scalmani, V. Barone, 
 G. A. Petersson, H. Nakatsuji, X. Li, M. Caricato, A. V. Marenich, 
 J. Bloino, B. G. Janesko, R. Gomperts, B. Mennucci, H. P. Hratchian, 
 J. V. Ortiz, A. F. Izmaylov, J. L. Sonnenberg, D. Williams-Young, 
 F. Ding, F. Lipparini, F. Egidi, J. Goings, B. Peng, A. Petrone, 
 T. Henderson, D. Ranasinghe, V. G. Zakrzewski, J. Gao, N. Rega, 
 G. Zheng, W. Liang, M. Hada, M. Ehara, K. Toyota, R. Fukuda, 
 J. Hasegawa, M. Ishida, T. Nakajima, Y. Honda, O. Kitao, H. Nakai, 
 T. Vreven, K. Throssell, J. A. Montgomery, Jr., J. E. Peralta, 
 F. Ogliaro, M. J. Bearpark, J. J. Heyd, E. N. Brothers, K. N. Kudin, 
 V. N. Staroverov, T. A. Keith, R. Kobayashi, J. Normand, 
 K. Raghavachari, A. P. Rendell, J. C. Burant, S. S. Iyengar, 
 J. Tomasi, M. Cossi, J. M. Millam, M. Klene, C. Adamo, R. Cammi, 
 J. W. Ochterski, R. L. Martin, K. Morokuma, O. Farkas, 
 J. B. Foresman, and D. J. Fox, Gaussian, Inc., Wallingford CT, 2016.
 
 ******************************************
 Gaussian 16:  ES64L-G16RevA.03 25-Dec-2016
                20-May-2023 
 ******************************************
 %chk=SdCC1CdCCdC2CdCCdC2SC1dS.chk
 %NProcShared=20
 Will use up to   20 processors via shared memory.
 -----------------------------
 # opt freq b3lyp/6-31g(2df,p)
 -----------------------------
 1/18=20,19=15,26=3,38=1/1,3;
 2/9=110,12=2,17=6,18=5,40=1/2;
 3/5=1,6=6,7=104,11=2,25=1,30=1,71=1,74=-5/1,2,3;
 4//1;
 5/5=2,38=5/2;
 6/7=2,8=2,9=2,10=2,28=1/1;
 7//1,2,3,16;
 1/18=20,19=15,26=3/3(2);
 2/9=110/2;
 99//99;
 2/9=110/2;
 3/5=1,6=6,7=104,11=2,25=1,30=1,71=1,74=-5/1,2,3;
 4/5=5,16=3,69=1/1;
 5/5=2,38=5/2;
 7//1,2,3,16;
 1/18=20,19=15,26=3/3(-5);
 2/9=110/2;
 6/7=2,8=2,9=2,10=2,19=2,28=1/1;
 99/9=1/99;
 -------------------
 Title Card Required
 -------------------
 Symbolic Z-matrix:
 Charge =  0 Multiplicity = 1
 S                     0.7733   -0.14183   0.21165 
 C                     2.44403  -0.06945   0.06304 
 C                     3.24718   1.07297   0.65114 
 C                     4.52993   0.50307   1.23085 
 C                     5.62103   1.07184   1.74733 
 C                     6.19468   2.41908   1.60816 
 C                     5.54151   3.60756   1.52359 
 C                     6.0561    4.82507   2.202 
 C                     5.58083   4.54795   3.45023 
 C                     4.23866   3.85058   3.2124 
 C                     4.15984   3.60411   1.90503 
 S                     2.92983   3.7823    0.72998 
 C                     3.23981   2.32329  -0.22617 
 S                     3.27397   2.30128  -1.90584 
 H                     3.0127   -0.82049  -0.5086 
 H                     2.68563   1.35927   1.55542 
 H                     4.46738  -0.57908   1.39643 
 H                     6.20029   0.4246    2.42571 
 H                     7.24809   2.43362   1.90289 
 H                     5.51249   5.69215   1.7562 
 H                     6.34703   4.04702   4.05075 
 H                     3.43732   3.81695   3.94283 
 

 GradGradGradGradGradGradGradGradGradGradGradGradGradGradGradGradGradGrad
 Berny optimization.
 Initialization pass.
                           ----------------------------
                           !    Initial Parameters    !
                           ! (Angstroms and Degrees)  !
 --------------------------                            --------------------------
 ! Name  Definition              Value          Derivative Info.                !
 --------------------------------------------------------------------------------
 ! R1    R(1,2)                  1.6789         estimate D2E/DX2                !
 ! R2    R(2,3)                  1.5153         estimate D2E/DX2                !
 ! R3    R(2,15)                 1.1019         estimate D2E/DX2                !
 ! R4    R(3,4)                  1.5186         estimate D2E/DX2                !
 ! R5    R(3,13)                 1.5274         estimate D2E/DX2                !
 ! R6    R(3,16)                 1.1023         estimate D2E/DX2                !
 ! R7    R(4,5)                  1.3344         estimate D2E/DX2                !
 ! R8    R(4,17)                 1.0965         estimate D2E/DX2                !
 ! R9    R(5,6)                  1.4709         estimate D2E/DX2                !
 ! R10   R(5,18)                 1.1021         estimate D2E/DX2                !
 ! R11   R(6,7)                  1.3588         estimate D2E/DX2                !
 ! R12   R(6,19)                 1.094          estimate D2E/DX2                !
 ! R13   R(7,8)                  1.4857         estimate D2E/DX2                !
 ! R14   R(7,11)                 1.4334         estimate D2E/DX2                !
 ! R15   R(8,9)                  1.3641         estimate D2E/DX2                !
 ! R16   R(8,20)                 1.1163         estimate D2E/DX2                !
 ! R17   R(9,10)                 1.5311         estimate D2E/DX2                !
 ! R18   R(9,21)                 1.0948         estimate D2E/DX2                !
 ! R19   R(10,11)                1.3327         estimate D2E/DX2                !
 ! R20   R(10,22)                1.0848         estimate D2E/DX2                !
 ! R21   R(11,12)                1.7104         estimate D2E/DX2                !
 ! R22   R(12,13)                1.7717         estimate D2E/DX2                !
 ! R23   R(13,14)                1.6802         estimate D2E/DX2                !
 ! A1    A(1,2,3)              121.7095         estimate D2E/DX2                !
 ! A2    A(1,2,15)             122.0124         estimate D2E/DX2                !
 ! A3    A(3,2,15)             116.2106         estimate D2E/DX2                !
 ! A4    A(2,3,4)              108.2359         estimate D2E/DX2                !
 ! A5    A(2,3,13)             113.059          estimate D2E/DX2                !
 ! A6    A(2,3,16)             104.1345         estimate D2E/DX2                !
 ! A7    A(4,3,13)             122.0403         estimate D2E/DX2                !
 ! A8    A(4,3,16)             102.3932         estimate D2E/DX2                !
 ! A9    A(13,3,16)            104.8403         estimate D2E/DX2                !
 ! A10   A(3,4,5)              132.721          estimate D2E/DX2                !
 ! A11   A(3,4,17)             112.3217         estimate D2E/DX2                !
 ! A12   A(5,4,17)             114.1313         estimate D2E/DX2                !
 ! A13   A(4,5,6)              132.2724         estimate D2E/DX2                !
 ! A14   A(4,5,18)             114.6874         estimate D2E/DX2                !
 ! A15   A(6,5,18)             113.0268         estimate D2E/DX2                !
 ! A16   A(5,6,7)              128.2838         estimate D2E/DX2                !
 ! A17   A(5,6,19)             111.2372         estimate D2E/DX2                !
 ! A18   A(7,6,19)             117.9065         estimate D2E/DX2                !
 ! A19   A(6,7,8)              121.4567         estimate D2E/DX2                !
 ! A20   A(6,7,11)             116.4043         estimate D2E/DX2                !
 ! A21   A(8,7,11)             102.3759         estimate D2E/DX2                !
 ! A22   A(7,8,9)               97.5089         estimate D2E/DX2                !
 ! A23   A(7,8,20)             106.5891         estimate D2E/DX2                !
 ! A24   A(9,8,20)             110.7058         estimate D2E/DX2                !
 ! A25   A(8,9,10)             104.8216         estimate D2E/DX2                !
 ! A26   A(8,9,21)             110.5509         estimate D2E/DX2                !
 ! A27   A(10,9,21)            119.3594         estimate D2E/DX2                !
 ! A28   A(9,10,11)            106.7652         estimate D2E/DX2                !
 ! A29   A(9,10,22)            123.8533         estimate D2E/DX2                !
 ! A30   A(11,10,22)           127.6686         estimate D2E/DX2                !
 ! A31   A(7,11,10)            101.7474         estimate D2E/DX2                !
 ! A32   A(7,11,12)            120.6727         estimate D2E/DX2                !
 ! A33   A(10,11,12)           134.2027         estimate D2E/DX2                !
 ! A34   A(11,12,13)            99.1573         estimate D2E/DX2                !
 ! A35   A(3,13,12)            111.4057         estimate D2E/DX2                !
 ! A36   A(3,13,14)            124.29           estimate D2E/DX2                !
 ! A37   A(12,13,14)           123.6321         estimate D2E/DX2                !
 ! D1    D(1,2,3,4)            140.7955         estimate D2E/DX2                !
 ! D2    D(1,2,3,13)           -80.845          estimate D2E/DX2                !
 ! D3    D(1,2,3,16)            32.3746         estimate D2E/DX2                !
 ! D4    D(15,2,3,4)           -42.1384         estimate D2E/DX2                !
 ! D5    D(15,2,3,13)           96.2211         estimate D2E/DX2                !
 ! D6    D(15,2,3,16)         -150.5593         estimate D2E/DX2                !
 ! D7    D(2,3,4,5)            173.0498         estimate D2E/DX2                !
 ! D8    D(2,3,4,17)           -18.2245         estimate D2E/DX2                !
 ! D9    D(13,3,4,5)            39.2055         estimate D2E/DX2                !
 ! D10   D(13,3,4,17)         -152.0687         estimate D2E/DX2                !
 ! D11   D(16,3,4,5)           -77.3385         estimate D2E/DX2                !
 ! D12   D(16,3,4,17)           91.3873         estimate D2E/DX2                !
 ! D13   D(2,3,13,12)          133.9598         estimate D2E/DX2                !
 ! D14   D(2,3,13,14)          -36.9175         estimate D2E/DX2                !
 ! D15   D(4,3,13,12)          -94.1552         estimate D2E/DX2                !
 ! D16   D(4,3,13,14)           94.9675         estimate D2E/DX2                !
 ! D17   D(16,3,13,12)          21.1698         estimate D2E/DX2                !
 ! D18   D(16,3,13,14)        -149.7076         estimate D2E/DX2                !
 ! D19   D(3,4,5,6)            -21.2184         estimate D2E/DX2                !
 ! D20   D(3,4,5,18)           157.3276         estimate D2E/DX2                !
 ! D21   D(17,4,5,6)           170.2118         estimate D2E/DX2                !
 ! D22   D(17,4,5,18)          -11.2422         estimate D2E/DX2                !
 ! D23   D(4,5,6,7)             37.4551         estimate D2E/DX2                !
 ! D24   D(4,5,6,19)          -161.3835         estimate D2E/DX2                !
 ! D25   D(18,5,6,7)          -141.1095         estimate D2E/DX2                !
 ! D26   D(18,5,6,19)           20.0519         estimate D2E/DX2                !
 ! D27   D(5,6,7,8)            140.8338         estimate D2E/DX2                !
 ! D28   D(5,6,7,11)            15.0838         estimate D2E/DX2                !
 ! D29   D(19,6,7,8)           -19.254          estimate D2E/DX2                !
 ! D30   D(19,6,7,11)         -145.0041         estimate D2E/DX2                !
 ! D31   D(6,7,8,9)            -80.7902         estimate D2E/DX2                !
 ! D32   D(6,7,8,20)           164.9179         estimate D2E/DX2                !
 ! D33   D(11,7,8,9)            51.1191         estimate D2E/DX2                !
 ! D34   D(11,7,8,20)          -63.1727         estimate D2E/DX2                !
 ! D35   D(6,7,11,10)           88.8064         estimate D2E/DX2                !
 ! D36   D(6,7,11,12)         -109.1506         estimate D2E/DX2                !
 ! D37   D(8,7,11,10)          -46.0587         estimate D2E/DX2                !
 ! D38   D(8,7,11,12)          115.9843         estimate D2E/DX2                !
 ! D39   D(7,8,9,10)           -35.4036         estimate D2E/DX2                !
 ! D40   D(7,8,9,21)            94.4504         estimate D2E/DX2                !
 ! D41   D(20,8,9,10)           75.5545         estimate D2E/DX2                !
 ! D42   D(20,8,9,21)         -154.5915         estimate D2E/DX2                !
 ! D43   D(8,9,10,11)            9.38           estimate D2E/DX2                !
 ! D44   D(8,9,10,22)         -156.6893         estimate D2E/DX2                !
 ! D45   D(21,9,10,11)        -115.0563         estimate D2E/DX2                !
 ! D46   D(21,9,10,22)          78.8744         estimate D2E/DX2                !
 ! D47   D(9,10,11,7)           22.9129         estimate D2E/DX2                !
 ! D48   D(9,10,11,12)        -135.3779         estimate D2E/DX2                !
 ! D49   D(22,10,11,7)        -171.7174         estimate D2E/DX2                !
 ! D50   D(22,10,11,12)         29.9917         estimate D2E/DX2                !
 ! D51   D(7,11,12,13)          62.547          estimate D2E/DX2                !
 ! D52   D(10,11,12,13)       -142.3543         estimate D2E/DX2                !
 ! D53   D(11,12,13,3)          53.91           estimate D2E/DX2                !
 ! D54   D(11,12,13,14)       -135.1418         estimate D2E/DX2                !
 --------------------------------------------------------------------------------
 Trust Radius=3.00D-01 FncErr=1.00D-07 GrdErr=1.00D-06 EigMax=2.50D+02 EigMin=1.00D-04
 Number of steps in this run=    124 maximum allowed number of steps=    132.
 GradGradGradGradGradGradGradGradGradGradGradGradGradGradGradGradGradGrad

                          Input orientation:                          
 ---------------------------------------------------------------------
 Center     Atomic      Atomic             Coordinates (Angstroms)
 Number     Number       Type             X           Y           Z
 ---------------------------------------------------------------------
      1         16           0        0.773300   -0.141830    0.211650
      2          6           0        2.444030   -0.069450    0.063040
      3          6           0        3.247180    1.072970    0.651140
      4          6           0        4.529930    0.503070    1.230850
      5          6           0        5.621030    1.071840    1.747330
      6          6           0        6.194680    2.419080    1.608160
      7          6           0        5.541510    3.607560    1.523590
      8          6           0        6.056100    4.825070    2.202000
      9          6           0        5.580830    4.547950    3.450230
     10          6           0        4.238660    3.850580    3.212400
     11          6           0        4.159840    3.604110    1.905030
     12         16           0        2.929830    3.782300    0.729980
     13          6           0        3.239810    2.323290   -0.226170
     14         16           0        3.273970    2.301280   -1.905840
     15          1           0        3.012700   -0.820490   -0.508600
     16          1           0        2.685630    1.359270    1.555420
     17          1           0        4.467380   -0.579080    1.396430
     18          1           0        6.200290    0.424600    2.425710
     19          1           0        7.248090    2.433620    1.902890
     20          1           0        5.512490    5.692150    1.756200
     21          1           0        6.347030    4.047020    4.050750
     22          1           0        3.437320    3.816950    3.942830
 ---------------------------------------------------------------------
                    Distance matrix (angstroms):
                    1          2          3          4          5
     1  S    0.000000
     2  C    1.678887   0.000000
     3  C    2.790873   1.515267   0.000000
     4  C    3.945495   2.458157   1.518650   0.000000
     5  C    5.227982   3.772626   2.614727   1.334447   0.000000
     6  C    6.156286   4.758945   3.378706   2.566096   1.470883
     7  C    6.206040   5.024738   3.528352   3.278239   2.546813
     8  C    7.519280   6.448141   4.936948   4.685297   3.805620
     9  C    7.456191   6.529391   5.035505   4.731923   3.871024
    10  C    6.078862   5.339082   3.906175   3.900923   3.432022
    11  C    5.326186   4.453310   2.968477   3.194986   2.927855
    12  S    4.507559   3.939136   2.728992   3.683007   3.952740
    13  C    3.514566   2.538132   1.527425   2.664680   3.336321
    14  S    4.087285   3.191496   2.836831   3.827508   4.512855
    15  H    2.448316   1.101916   2.232749   2.660730   3.933639
    16  H    2.777773   2.080098   1.102283   2.059094   2.955676
    17  H    3.903987   2.476206   2.184860   1.096530   2.044401
    18  H    5.888559   4.464951   3.505758   2.055225   1.102117
    19  H    7.170505   5.720961   4.407440   3.401037   2.127432
    20  H    7.673388   6.743758   5.262092   5.307350   4.621593
    21  H    7.959373   6.934015   5.478265   4.879884   3.832038
    22  H    6.057280   5.580636   4.289616   4.419325   4.138168
                    6          7          8          9         10
     6  C    0.000000
     7  C    1.358774   0.000000
     8  C    2.482063   1.485723   0.000000
     9  C    2.881340   2.144253   1.364095   0.000000
    10  C    2.906681   2.146755   2.296438   1.531113   0.000000
    11  C    2.373395   1.433360   2.274805   2.301671   1.332733
    12  S    3.645383   2.735183   3.609401   3.874762   2.807153
    13  C    3.479253   3.163674   4.481786   4.893404   3.892824
    14  S    4.570845   4.313826   5.566337   6.249529   5.433906
    15  H    5.010038   5.489290   6.962901   7.147571   6.096533
    16  H    3.665980   3.634814   4.877489   4.705334   3.371070
    17  H    3.466606   4.324104   5.690150   5.634208   4.792906
    18  H    2.155544   3.373284   4.408511   4.293645   4.025446
    19  H    1.093961   2.105806   2.688743   3.105545   3.574809
    20  H    3.346683   2.097729   1.116278   2.045385   2.671056
    21  H    2.939327   2.688592   2.026790   1.094814   2.277420
    22  H    3.873985   3.213127   3.302242   2.317682   1.084806
                   11         12         13         14         15
    11  C    0.000000
    12  S    1.710386   0.000000
    13  C    2.651220   1.771728   0.000000
    14  S    4.123695   3.042926   1.680161   0.000000
    15  H    5.169006   4.767245   3.164601   3.430159   0.000000
    16  H    2.708289   2.571392   2.100122   3.635086   3.019687
    17  H    4.225202   4.672243   3.544504   4.541551   2.409048
    18  H    3.813637   4.984532   4.404763   5.554062   4.507899
    19  H    3.302626   4.673545   4.539976   5.506139   5.860294
    20  H    2.492333   3.372060   4.521513   5.469873   7.334354
    21  H    3.095817   4.772300   5.560405   6.926202   7.456412
    22  H    2.172548   3.252868   4.432899   6.044078   6.442157
                   16         17         18         19         20
    16  H    0.000000
    17  H    2.637634   0.000000
    18  H    3.739498   2.251615   0.000000
    19  H    4.700107   4.131006   2.325379   0.000000
    20  H    5.177383   6.367889   5.354288   3.694840   0.000000
    21  H    5.182328   5.655024   3.972935   2.833420   2.944125
    22  H    3.507842   5.183653   4.630734   4.538384   3.550219
                   21         22
    21  H    0.000000
    22  H    2.920786   0.000000
 Stoichiometry    C11H8S3
 Framework group  C1[X(C11H8S3)]
 Deg. of freedom    60
 Full point group                 C1      NOp   1
 Largest Abelian subgroup         C1      NOp   1
 Largest concise Abelian subgroup C1      NOp   1
                         Standard orientation:                         
 ---------------------------------------------------------------------
 Center     Atomic      Atomic             Coordinates (Angstroms)
 Number     Number       Type             X           Y           Z
 ---------------------------------------------------------------------
      1         16           0        3.644962   -0.699691   -1.130761
      2          6           0        2.621763   -0.956664    0.175260
      3          6           0        1.138746   -0.655870    0.096403
      4          6           0        0.391827   -1.749631    0.839435
      5          6           0       -0.891114   -1.904328    1.172423
      6          6           0       -1.997909   -0.946581    1.318096
      7          6           0       -2.262949    0.154253    0.566972
      8          6           0       -3.653726    0.525294    0.198947
      9          6           0       -3.797040   -0.336892   -0.848359
     10          6           0       -2.414498   -0.389761   -1.504172
     11          6           0       -1.577178    0.249796   -0.688061
     12         16           0       -0.336015    1.403843   -0.918514
     13          6           0        0.817058    0.823997    0.295249
     14         16           0        1.629612    1.833992    1.364178
     15          1           0        2.996517   -1.304833    1.151250
     16          1           0        0.877605   -0.862851   -0.954307
     17          1           0        1.003783   -2.648076    0.983260
     18          1           0       -1.196536   -2.947266    1.355889
     19          1           0       -2.814075   -1.371211    1.909969
     20          1           0       -3.617159    1.581221   -0.161273
     21          1           0       -4.270490   -1.267215   -0.518264
     22          1           0       -2.246488   -0.671754   -2.538124
 ---------------------------------------------------------------------
 Rotational constants (GHZ):           0.8875244           0.3449528           0.3231910
 Standard basis: 6-31G(2df,p) (6D, 7F)
 There are   486 symmetry adapted cartesian basis functions of A   symmetry.
 There are   444 symmetry adapted basis functions of A   symmetry.
   444 basis functions,   744 primitive gaussians,   486 cartesian basis functions
    61 alpha electrons       61 beta electrons
       nuclear repulsion energy      1136.5308143289 Hartrees.
 NAtoms=   22 NActive=   22 NUniq=   22 SFac= 1.00D+00 NAtFMM=   60 NAOKFM=F Big=F
 Integral buffers will be    131072 words long.
 Raffenetti 2 integral format.
 Two-electron integral symmetry is turned on.
 One-electron integrals computed using PRISM.
 PrsmSu:  requested number of processors reduced to:  12 ShMem   1 Linda.
 NBasis=   444 RedAO= T EigKep=  3.50D-04  NBF=   444
 NBsUse=   444 1.00D-06 EigRej= -1.00D+00 NBFU=   444
 ExpMin= 1.17D-01 ExpMax= 2.19D+04 ExpMxC= 3.30D+03 IAcc=3 IRadAn=         5 AccDes= 0.00D+00
 Harris functional with IExCor=  402 and IRadAn=       5 diagonalized for initial guess.
 HarFok:  IExCor=  402 AccDes= 0.00D+00 IRadAn=         5 IDoV= 1 UseB2=F ITyADJ=14
 ICtDFT=  3500011 ScaDFX=  1.000000  1.000000  1.000000  1.000000
 FoFCou: FMM=F IPFlag=           0 FMFlag=      100000 FMFlg1=           0
         NFxFlg=           0 DoJE=T BraDBF=F KetDBF=T FulRan=T
         wScrn=  0.000000 ICntrl=       500 IOpCl=  0 I1Cent=   200000004 NGrid=           0
         NMat0=    1 NMatS0=      1 NMatT0=    0 NMatD0=    1 NMtDS0=    0 NMtDT0=    0
 Petite list used in FoFCou.
 Requested convergence on RMS density matrix=1.00D-08 within 128 cycles.
 Requested convergence on MAX density matrix=1.00D-06.
 Requested convergence on             energy=1.00D-06.
 No special actions if energy rises.
 Integral accuracy reduced to 1.0D-05 until final iterations.
 Initial convergence to 1.0D-05 achieved.  Increase integral accuracy.
 SCF Done:  E(RB3LYP) =  -1618.21139377     A.U. after   20 cycles
            NFock= 20  Conv=0.68D-08     -V/T= 2.0042

 **********************************************************************

            Population analysis using the SCF density.

 **********************************************************************

 Orbital symmetries:
       Occupied  (A) (A) (A) (A) (A) (A) (A) (A) (A) (A) (A) (A)
                 (A) (A) (A) (A) (A) (A) (A) (A) (A) (A) (A) (A)
                 (A) (A) (A) (A) (A) (A) (A) (A) (A) (A) (A) (A)
                 (A) (A) (A) (A) (A) (A) (A) (A) (A) (A) (A) (A)
                 (A) (A) (A) (A) (A) (A) (A) (A) (A) (A) (A) (A)
                 (A)
       Virtual   (A) (A) (A) (A) (A) (A) (A) (A) (A) (A) (A) (A)
                 (A) (A) (A) (A) (A) (A) (A) (A) (A) (A) (A) (A)
                 (A) (A) (A) (A) (A) (A) (A) (A) (A) (A) (A) (A)
                 (A) (A) (A) (A) (A) (A) (A) (A) (A) (A) (A) (A)
                 (A) (A) (A) (A) (A) (A) (A) (A) (A) (A) (A) (A)
                 (A) (A) (A) (A) (A) (A) (A) (A) (A) (A) (A) (A)
                 (A) (A) (A) (A) (A) (A) (A) (A) (A) (A) (A) (A)
                 (A) (A) (A) (A) (A) (A) (A) (A) (A) (A) (A) (A)
                 (A) (A) (A) (A) (A) (A) (A) (A) (A) (A) (A) (A)
                 (A) (A) (A) (A) (A) (A) (A) (A) (A) (A) (A) (A)
                 (A) (A) (A) (A) (A) (A) (A) (A) (A) (A) (A) (A)
                 (A) (A) (A) (A) (A) (A) (A) (A) (A) (A) (A) (A)
                 (A) (A) (A) (A) (A) (A) (A) (A) (A) (A) (A) (A)
                 (A) (A) (A) (A) (A) (A) (A) (A) (A) (A) (A) (A)
                 (A) (A) (A) (A) (A) (A) (A) (A) (A) (A) (A) (A)
                 (A) (A) (A) (A) (A) (A) (A) (A) (A) (A) (A) (A)
                 (A) (A) (A) (A) (A) (A) (A) (A) (A) (A) (A) (A)
                 (A) (A) (A) (A) (A) (A) (A) (A) (A) (A) (A) (A)
                 (A) (A) (A) (A) (A) (A) (A) (A) (A) (A) (A) (A)
                 (A) (A) (A) (A) (A) (A) (A) (A) (A) (A) (A) (A)
                 (A) (A) (A) (A) (A) (A) (A) (A) (A) (A) (A) (A)
                 (A) (A) (A) (A) (A) (A) (A) (A) (A) (A) (A) (A)
                 (A) (A) (A) (A) (A) (A) (A) (A) (A) (A) (A) (A)
                 (A) (A) (A) (A) (A) (A) (A) (A) (A) (A) (A) (A)
                 (A) (A) (A) (A) (A) (A) (A) (A) (A) (A) (A) (A)
                 (A) (A) (A) (A) (A) (A) (A) (A) (A) (A) (A) (A)
                 (A) (A) (A) (A) (A) (A) (A) (A) (A) (A) (A) (A)
                 (A) (A) (A) (A) (A) (A) (A) (A) (A) (A) (A) (A)
                 (A) (A) (A) (A) (A) (A) (A) (A) (A) (A) (A) (A)
                 (A) (A) (A) (A) (A) (A) (A) (A) (A) (A) (A) (A)
                 (A) (A) (A) (A) (A) (A) (A) (A) (A) (A) (A) (A)
                 (A) (A) (A) (A) (A) (A) (A) (A) (A) (A) (A)
 The electronic state is 1-A.
 Alpha  occ. eigenvalues --  -88.93518 -88.88416 -88.87972 -10.30638 -10.28025
 Alpha  occ. eigenvalues --  -10.25495 -10.24447 -10.23811 -10.23228 -10.22422
 Alpha  occ. eigenvalues --  -10.21699 -10.21030 -10.20192 -10.19743  -7.99665
 Alpha  occ. eigenvalues --   -7.94753  -7.94321  -5.96099  -5.95753  -5.95334
 Alpha  occ. eigenvalues --   -5.91084  -5.91051  -5.90696  -5.90592  -5.90257
 Alpha  occ. eigenvalues --   -5.89806  -0.93864  -0.88227  -0.83227  -0.80385
 Alpha  occ. eigenvalues --   -0.77421  -0.75336  -0.72232  -0.70824  -0.66116
 Alpha  occ. eigenvalues --   -0.61025  -0.58276  -0.55981  -0.55581  -0.51286
 Alpha  occ. eigenvalues --   -0.49924  -0.49300  -0.47896  -0.45761  -0.44944
 Alpha  occ. eigenvalues --   -0.43116  -0.41860  -0.39845  -0.39138  -0.37773
 Alpha  occ. eigenvalues --   -0.37382  -0.36036  -0.34371  -0.32279  -0.30845
 Alpha  occ. eigenvalues --   -0.29702  -0.26801  -0.24799  -0.23889  -0.23200
 Alpha  occ. eigenvalues --   -0.19246
 Alpha virt. eigenvalues --   -0.13351  -0.11614  -0.09823  -0.05820  -0.04226
 Alpha virt. eigenvalues --    0.02362   0.03554   0.05972   0.06702   0.08412
 Alpha virt. eigenvalues --    0.08999   0.11131   0.12298   0.13328   0.13715
 Alpha virt. eigenvalues --    0.14296   0.15421   0.16318   0.18779   0.18872
 Alpha virt. eigenvalues --    0.20433   0.21999   0.22170   0.23653   0.23878
 Alpha virt. eigenvalues --    0.25686   0.26065   0.27658   0.28366   0.30559
 Alpha virt. eigenvalues --    0.31007   0.31958   0.33570   0.33937   0.34054
 Alpha virt. eigenvalues --    0.35235   0.35991   0.37049   0.37562   0.37897
 Alpha virt. eigenvalues --    0.38599   0.39085   0.39596   0.40092   0.41842
 Alpha virt. eigenvalues --    0.42802   0.43511   0.43839   0.44569   0.45226
 Alpha virt. eigenvalues --    0.46503   0.47013   0.47188   0.47431   0.48392
 Alpha virt. eigenvalues --    0.49860   0.50168   0.51725   0.52099   0.53314
 Alpha virt. eigenvalues --    0.54385   0.55796   0.56913   0.58215   0.59818
 Alpha virt. eigenvalues --    0.60803   0.62013   0.63662   0.63959   0.64487
 Alpha virt. eigenvalues --    0.66723   0.66890   0.68690   0.69393   0.69594
 Alpha virt. eigenvalues --    0.70793   0.71667   0.72450   0.73669   0.74187
 Alpha virt. eigenvalues --    0.74473   0.75635   0.76275   0.76626   0.77868
 Alpha virt. eigenvalues --    0.78171   0.79603   0.80347   0.80927   0.81963
 Alpha virt. eigenvalues --    0.82482   0.83347   0.84073   0.85271   0.88144
 Alpha virt. eigenvalues --    0.90335   0.90673   0.91246   0.92696   0.95180
 Alpha virt. eigenvalues --    0.95514   0.97797   0.99703   1.00695   1.01951
 Alpha virt. eigenvalues --    1.03269   1.04862   1.06369   1.06671   1.11366
 Alpha virt. eigenvalues --    1.12413   1.14367   1.15096   1.16153   1.19497
 Alpha virt. eigenvalues --    1.20166   1.22345   1.23071   1.24930   1.26458
 Alpha virt. eigenvalues --    1.28890   1.30234   1.31308   1.32813   1.33954
 Alpha virt. eigenvalues --    1.34386   1.34656   1.37787   1.38451   1.39557
 Alpha virt. eigenvalues --    1.42845   1.43641   1.44422   1.46190   1.47364
 Alpha virt. eigenvalues --    1.49166   1.51077   1.52256   1.52701   1.54283
 Alpha virt. eigenvalues --    1.55052   1.56866   1.57865   1.58211   1.59029
 Alpha virt. eigenvalues --    1.61202   1.62443   1.63621   1.64732   1.64863
 Alpha virt. eigenvalues --    1.65497   1.65867   1.66475   1.67186   1.67969
 Alpha virt. eigenvalues --    1.69622   1.70854   1.72080   1.73580   1.76224
 Alpha virt. eigenvalues --    1.77056   1.78375   1.79383   1.80599   1.82892
 Alpha virt. eigenvalues --    1.84316   1.85718   1.86501   1.88039   1.90384
 Alpha virt. eigenvalues --    1.90929   1.92135   1.94024   1.94354   1.95526
 Alpha virt. eigenvalues --    1.96106   1.97636   1.98855   2.00316   2.03587
 Alpha virt. eigenvalues --    2.06917   2.07441   2.09333   2.11175   2.12817
 Alpha virt. eigenvalues --    2.14485   2.15391   2.15990   2.17609   2.18286
 Alpha virt. eigenvalues --    2.20191   2.20952   2.26008   2.28716   2.29429
 Alpha virt. eigenvalues --    2.31393   2.32363   2.33004   2.33288   2.34179
 Alpha virt. eigenvalues --    2.36279   2.37090   2.37977   2.40019   2.40741
 Alpha virt. eigenvalues --    2.41727   2.45047   2.46242   2.46785   2.49297
 Alpha virt. eigenvalues --    2.50309   2.52848   2.55157   2.56680   2.59403
 Alpha virt. eigenvalues --    2.63636   2.65039   2.68649   2.71282   2.71922
 Alpha virt. eigenvalues --    2.74042   2.76262   2.77139   2.80987   2.81947
 Alpha virt. eigenvalues --    2.83368   2.84857   2.87068   2.88201   2.89347
 Alpha virt. eigenvalues --    2.90294   2.94072   2.94989   2.96997   2.99636
 Alpha virt. eigenvalues --    3.01096   3.01780   3.03259   3.04380   3.06483
 Alpha virt. eigenvalues --    3.07871   3.08696   3.11684   3.13847   3.14764
 Alpha virt. eigenvalues --    3.16369   3.17856   3.18714   3.20526   3.21425
 Alpha virt. eigenvalues --    3.22838   3.24067   3.25323   3.26126   3.27212
 Alpha virt. eigenvalues --    3.28472   3.30144   3.30530   3.33295   3.34294
 Alpha virt. eigenvalues --    3.35195   3.35964   3.36986   3.39701   3.40822
 Alpha virt. eigenvalues --    3.41436   3.43281   3.43551   3.46139   3.47376
 Alpha virt. eigenvalues --    3.49080   3.51287   3.54648   3.56050   3.58328
 Alpha virt. eigenvalues --    3.58612   3.62369   3.62620   3.65614   3.66989
 Alpha virt. eigenvalues --    3.70970   3.73778   3.76152   3.79840   3.80417
 Alpha virt. eigenvalues --    3.81284   3.83186   3.87047   3.87446   3.89435
 Alpha virt. eigenvalues --    3.92522   3.94448   3.95680   3.97820   3.99049
 Alpha virt. eigenvalues --    4.04521   4.06626   4.09612   4.12009   4.16898
 Alpha virt. eigenvalues --    4.18063   4.20346   4.23886   4.25647   4.26640
 Alpha virt. eigenvalues --    4.31308   4.31444   4.32905   4.34880   4.37499
 Alpha virt. eigenvalues --    4.40291   4.42593   4.44591   4.46077   4.47128
 Alpha virt. eigenvalues --    4.48385   4.50520   4.51545   4.52441   4.53489
 Alpha virt. eigenvalues --    4.56568   4.57506   4.59050   4.60760   4.62548
 Alpha virt. eigenvalues --    4.64388   4.66436   4.68262   4.70411   4.71848
 Alpha virt. eigenvalues --    4.73704   4.74387   4.76364   4.79056   4.80498
 Alpha virt. eigenvalues --    4.82735   4.83730   4.84555   4.87804   4.90989
 Alpha virt. eigenvalues --    4.91587   4.91940   4.93207   4.95322   4.96511
 Alpha virt. eigenvalues --    4.97901   5.03272   5.04083   5.06712   5.08534
 Alpha virt. eigenvalues --    5.15126   5.16163   5.17784   5.21080   5.25536
 Alpha virt. eigenvalues --    5.27706   5.29690   5.30575   5.37467   5.42058
 Alpha virt. eigenvalues --    5.42842   5.43523   5.47926   5.50111   5.60806
 Alpha virt. eigenvalues --    5.64391   5.69950   5.78477   5.82932   5.94039
 Alpha virt. eigenvalues --    6.21408   6.87020  10.22552  10.66178  11.05702
 Alpha virt. eigenvalues --   11.19758  11.33884  11.47719  11.71023  11.95825
 Alpha virt. eigenvalues --   12.36061  12.46873  12.61061
          Condensed to atoms (all electrons):
               1          2          3          4          5          6
     1  S   15.814830   0.500196  -0.045087   0.002485  -0.000366   0.000002
     2  C    0.500196   4.857448   0.392846  -0.028396   0.004295  -0.000045
     3  C   -0.045087   0.392846   4.918500   0.356521  -0.017156  -0.014859
     4  C    0.002485  -0.028396   0.356521   4.842026   0.641639  -0.010062
     5  C   -0.000366   0.004295  -0.017156   0.641639   4.817737   0.411210
     6  C    0.000002  -0.000045  -0.014859  -0.010062   0.411210   4.863110
     7  C   -0.000009   0.000009  -0.000977  -0.016144  -0.021969   0.630274
     8  C    0.000000   0.000000  -0.000111   0.000173   0.003889  -0.019703
     9  C   -0.000000   0.000001   0.000068   0.000039  -0.001753  -0.021728
    10  C    0.000012  -0.000014  -0.001226   0.002086  -0.000709  -0.016302
    11  C   -0.000017   0.000473   0.002628   0.001480  -0.000948  -0.050927
    12  S    0.000967   0.005389  -0.044728  -0.003896   0.002129   0.000733
    13  C   -0.002601  -0.032679   0.364972  -0.013110  -0.008085   0.003660
    14  S    0.002420  -0.004444  -0.053037  -0.001225   0.000202   0.000305
    15  H   -0.052017   0.357068  -0.052186  -0.000216   0.000550   0.000003
    16  H   -0.001052  -0.034687   0.354712  -0.040931  -0.004631   0.000494
    17  H    0.001058  -0.006999  -0.064061   0.362819  -0.030109   0.005614
    18  H    0.000007  -0.000117   0.005930  -0.030760   0.357589  -0.046751
    19  H    0.000000   0.000001   0.000084   0.004724  -0.043537   0.357467
    20  H    0.000000  -0.000000   0.000007  -0.000008  -0.000279   0.004279
    21  H    0.000000  -0.000000  -0.000006   0.000019  -0.000749   0.008418
    22  H    0.000001  -0.000001   0.000028  -0.000071  -0.000370   0.000792
               7          8          9         10         11         12
     1  S   -0.000009   0.000000  -0.000000   0.000012  -0.000017   0.000967
     2  C    0.000009   0.000000   0.000001  -0.000014   0.000473   0.005389
     3  C   -0.000977  -0.000111   0.000068  -0.001226   0.002628  -0.044728
     4  C   -0.016144   0.000173   0.000039   0.002086   0.001480  -0.003896
     5  C   -0.021969   0.003889  -0.001753  -0.000709  -0.000948   0.002129
     6  C    0.630274  -0.019703  -0.021728  -0.016302  -0.050927   0.000733
     7  C    4.889562   0.360456  -0.130123  -0.002559   0.372664  -0.058785
     8  C    0.360456   5.222912   0.508245  -0.108054  -0.028758   0.005914
     9  C   -0.130123   0.508245   5.095471   0.436921  -0.019431   0.009678
    10  C   -0.002559  -0.108054   0.436921   5.090256   0.562106  -0.067064
    11  C    0.372664  -0.028758  -0.019431   0.562106   4.664347   0.355948
    12  S   -0.058785   0.005914   0.009678  -0.067064   0.355948  15.616136
    13  C   -0.001201   0.000341  -0.000072   0.002271  -0.022158   0.286823
    14  S    0.001303   0.000006  -0.000002  -0.000151  -0.000174  -0.067624
    15  H   -0.000006  -0.000000  -0.000000  -0.000000  -0.000001  -0.000193
    16  H   -0.000121  -0.000055   0.000004  -0.000502   0.000422  -0.009578
    17  H   -0.000025   0.000000  -0.000001   0.000040   0.000019  -0.000262
    18  H    0.005336  -0.000164   0.000166   0.000182  -0.000338   0.000029
    19  H   -0.036696  -0.005160  -0.005252   0.001111   0.006881  -0.000436
    20  H   -0.062573   0.350362  -0.065236  -0.019275   0.007993   0.005546
    21  H   -0.003042  -0.054108   0.340028  -0.042897  -0.001564   0.000169
    22  H    0.007940   0.008042  -0.043589   0.355166  -0.046682   0.001196
              13         14         15         16         17         18
     1  S   -0.002601   0.002420  -0.052017  -0.001052   0.001058   0.000007
     2  C   -0.032679  -0.004444   0.357068  -0.034687  -0.006999  -0.000117
     3  C    0.364972  -0.053037  -0.052186   0.354712  -0.064061   0.005930
     4  C   -0.013110  -0.001225  -0.000216  -0.040931   0.362819  -0.030760
     5  C   -0.008085   0.000202   0.000550  -0.004631  -0.030109   0.357589
     6  C    0.003660   0.000305   0.000003   0.000494   0.005614  -0.046751
     7  C   -0.001201   0.001303  -0.000006  -0.000121  -0.000025   0.005336
     8  C    0.000341   0.000006  -0.000000  -0.000055   0.000000  -0.000164
     9  C   -0.000072  -0.000002  -0.000000   0.000004  -0.000001   0.000166
    10  C    0.002271  -0.000151  -0.000000  -0.000502   0.000040   0.000182
    11  C   -0.022158  -0.000174  -0.000001   0.000422   0.000019  -0.000338
    12  S    0.286823  -0.067624  -0.000193  -0.009578  -0.000262   0.000029
    13  C    4.793074   0.492740  -0.001957  -0.038210   0.004415   0.000025
    14  S    0.492740  15.852307   0.002269   0.006503  -0.000387  -0.000004
    15  H   -0.001957   0.002269   0.573589   0.005976   0.003659  -0.000010
    16  H   -0.038210   0.006503   0.005976   0.594702   0.001814  -0.000150
    17  H    0.004415  -0.000387   0.003659   0.001814   0.629033  -0.014744
    18  H    0.000025  -0.000004  -0.000010  -0.000150  -0.014744   0.624448
    19  H   -0.000063   0.000011  -0.000000  -0.000001  -0.000190  -0.008097
    20  H    0.000094  -0.000018   0.000000   0.000002  -0.000000   0.000003
    21  H    0.000005  -0.000000  -0.000000  -0.000002  -0.000001   0.000007
    22  H    0.000055  -0.000001   0.000000   0.000205  -0.000003   0.000000
              19         20         21         22
     1  S    0.000000   0.000000   0.000000   0.000001
     2  C    0.000001  -0.000000  -0.000000  -0.000001
     3  C    0.000084   0.000007  -0.000006   0.000028
     4  C    0.004724  -0.000008   0.000019  -0.000071
     5  C   -0.043537  -0.000279  -0.000749  -0.000370
     6  C    0.357467   0.004279   0.008418   0.000792
     7  C   -0.036696  -0.062573  -0.003042   0.007940
     8  C   -0.005160   0.350362  -0.054108   0.008042
     9  C   -0.005252  -0.065236   0.340028  -0.043589
    10  C    0.001111  -0.019275  -0.042897   0.355166
    11  C    0.006881   0.007993  -0.001564  -0.046682
    12  S   -0.000436   0.005546   0.000169   0.001196
    13  C   -0.000063   0.000094   0.000005   0.000055
    14  S    0.000011  -0.000018  -0.000000  -0.000001
    15  H   -0.000000   0.000000  -0.000000   0.000000
    16  H   -0.000001   0.000002  -0.000002   0.000205
    17  H   -0.000190  -0.000000  -0.000001  -0.000003
    18  H   -0.008097   0.000003   0.000007   0.000000
    19  H    0.622088  -0.000255  -0.000685   0.000020
    20  H   -0.000255   0.674904   0.009084   0.000334
    21  H   -0.000685   0.009084   0.624088   0.002692
    22  H    0.000020   0.000334   0.002692   0.588532
 Mulliken charges:
               1
     1  S   -0.220829
     2  C   -0.010344
     3  C   -0.102862
     4  C   -0.069195
     5  C   -0.108579
     6  C   -0.105984
     7  C    0.066686
     8  C   -0.244227
     9  C   -0.103434
    10  C   -0.191398
    11  C    0.196037
    12  S   -0.038092
    13  C    0.171659
    14  S   -0.230998
    15  H    0.163472
    16  H    0.165087
    17  H    0.108312
    18  H    0.107410
    19  H    0.107986
    20  H    0.095036
    21  H    0.118544
    22  H    0.125712
 Sum of Mulliken charges =  -0.00000
 Mulliken charges with hydrogens summed into heavy atoms:
               1
     1  S   -0.220829
     2  C    0.153128
     3  C    0.062225
     4  C    0.039117
     5  C   -0.001169
     6  C    0.002002
     7  C    0.066686
     8  C   -0.149191
     9  C    0.015110
    10  C   -0.065685
    11  C    0.196037
    12  S   -0.038092
    13  C    0.171659
    14  S   -0.230998
 Electronic spatial extent (au):  <R**2>=           3619.7560
 Charge=             -0.0000 electrons
 Dipole moment (field-independent basis, Debye):
    X=             -1.9193    Y=             -2.7838    Z=             -0.6082  Tot=              3.4356
 Quadrupole moment (field-independent basis, Debye-Ang):
   XX=           -111.3845   YY=           -100.2866   ZZ=           -102.9145
   XY=              2.4705   XZ=              5.0371   YZ=             -4.0608
 Traceless Quadrupole moment (field-independent basis, Debye-Ang):
   XX=             -6.5226   YY=              4.5753   ZZ=              1.9474
   XY=              2.4705   XZ=              5.0371   YZ=             -4.0608
 Octapole moment (field-independent basis, Debye-Ang**2):
  XXX=            -14.1037  YYY=            -15.0948  ZZZ=             -9.1405  XYY=             -0.7616
  XXY=             -7.1526  XXZ=              4.2144  XZZ=              0.7832  YZZ=             -3.8124
  YYZ=              2.9698  XYZ=             -1.9131
 Hexadecapole moment (field-independent basis, Debye-Ang**3):
 XXXX=          -3607.2131 YYYY=           -978.0951 ZZZZ=           -728.2931 XXXY=             93.2489
 XXXZ=             41.1106 YYYX=              6.9222 YYYZ=            -24.5929 ZZZX=             11.7157
 ZZZY=              9.0158 XXYY=           -703.7309 XXZZ=           -679.9652 YYZZ=           -278.0221
 XXYZ=            -30.6007 YYXZ=              0.4043 ZZXY=              8.6992
 N-N= 1.136530814329D+03 E-N=-6.092458630908D+03  KE= 1.611478827204D+03
 PrsmSu:  requested number of processors reduced to:  13 ShMem   1 Linda.
 Calling FoFJK, ICntrl=      2127 FMM=F ISym2X=0 I1Cent= 0 IOpClX= 0 NMat=1 NMatS=1 NMatT=0.
 ***** Axes restored to original set *****
 -------------------------------------------------------------------
 Center     Atomic                   Forces (Hartrees/Bohr)
 Number     Number              X              Y              Z
 -------------------------------------------------------------------
      1       16           0.042901345   -0.004156082   -0.003273923
      2        6          -0.041992076    0.003270644   -0.010590239
      3        6           0.000155243   -0.007684693    0.011307038
      4        6          -0.001682403   -0.009565581    0.002282122
      5        6           0.012179998    0.010637858   -0.001408527
      6        6           0.005934641   -0.007709848    0.003254257
      7        6           0.086505661   -0.067008990   -0.010918937
      8        6          -0.008825507    0.059965656   -0.087467101
      9        6          -0.045171045   -0.073859444    0.055731629
     10        6           0.004684573    0.079331092    0.094303296
     11        6          -0.014678134    0.024719014   -0.038775730
     12       16          -0.015486574    0.001265731   -0.007262910
     13        6           0.000616149   -0.010769805   -0.038095206
     14       16          -0.000633733    0.002788688    0.038393200
     15        1          -0.005696751    0.003519387    0.003797940
     16        1          -0.000231778   -0.000816485   -0.004462164
     17        1          -0.006227866    0.005492675    0.003470996
     18        1           0.003142104    0.002065288   -0.014504618
     19        1          -0.000828140    0.004430920   -0.011342921
     20        1          -0.001370875   -0.004811356    0.001369514
     21        1          -0.011186731   -0.006210427    0.014519670
     22        1          -0.002108101   -0.004894242   -0.000327385
 -------------------------------------------------------------------
 Cartesian Forces:  Max     0.094303296 RMS     0.030220244

 GradGradGradGradGradGradGradGradGradGradGradGradGradGradGradGradGradGrad
 Berny optimization.
 FormGI is forming the generalized inverse of G from B-inverse, IUseBI=4.
 Internal  Forces:  Max     0.097846260 RMS     0.018199397
 Search for a local minimum.
 Step number   1 out of a maximum of  124
 All quantities printed in internal units (Hartrees-Bohrs-Radians)
 Mixed Optimization -- RFO/linear search
 Second derivative matrix not updated -- first step.
 ITU=  0
     Eigenvalues ---    0.00527   0.00564   0.00572   0.00708   0.01440
     Eigenvalues ---    0.01501   0.01751   0.01903   0.02077   0.02125
     Eigenvalues ---    0.02156   0.02440   0.02625   0.03386   0.04002
     Eigenvalues ---    0.04371   0.05004   0.06500   0.07273   0.07542
     Eigenvalues ---    0.07911   0.11044   0.14512   0.15227   0.15475
     Eigenvalues ---    0.15654   0.15998   0.16000   0.16394   0.18991
     Eigenvalues ---    0.20121   0.20633   0.21484   0.21919   0.22004
     Eigenvalues ---    0.22991   0.24743   0.27634   0.28051   0.29023
     Eigenvalues ---    0.29943   0.30827   0.31944   0.31986   0.33431
     Eigenvalues ---    0.33449   0.33471   0.34069   0.34110   0.34262
     Eigenvalues ---    0.34359   0.34885   0.35420   0.36506   0.38388
     Eigenvalues ---    0.38556   0.47768   0.51796   0.56382   0.57198
 RFO step:  Lambda=-1.02083791D-01 EMin= 5.27373769D-03
 Linear search not attempted -- first point.
 Maximum step size (   0.300) exceeded in Quadratic search.
    -- Step size scaled by   0.699
 Iteration  1 RMS(Cart)=  0.08889021 RMS(Int)=  0.00318063
 Iteration  2 RMS(Cart)=  0.00388066 RMS(Int)=  0.00107326
 Iteration  3 RMS(Cart)=  0.00001529 RMS(Int)=  0.00107323
 Iteration  4 RMS(Cart)=  0.00000002 RMS(Int)=  0.00107323
 Variable       Old X    -DE/DX   Delta X   Delta X   Delta X     New X
                                 (Linear)    (Quad)   (Total)
    R1        3.17264  -0.04280   0.00000  -0.06136  -0.06136   3.11127
    R2        2.86344   0.00446   0.00000   0.00760   0.00760   2.87104
    R3        2.08232  -0.00731   0.00000  -0.01170  -0.01170   2.07062
    R4        2.86983   0.00832   0.00000   0.01097   0.01089   2.88073
    R5        2.88642   0.00254   0.00000   0.00635   0.00662   2.89303
    R6        2.08301  -0.00375   0.00000  -0.00601  -0.00601   2.07700
    R7        2.52174   0.01555   0.00000   0.01368   0.01352   2.53526
    R8        2.07214  -0.00454   0.00000  -0.00717  -0.00717   2.06497
    R9        2.77957  -0.00639   0.00000  -0.01225  -0.01248   2.76708
   R10        2.08270  -0.00849   0.00000  -0.01359  -0.01359   2.06910
   R11        2.56771  -0.00299   0.00000  -0.00209  -0.00207   2.56564
   R12        2.06729  -0.00379   0.00000  -0.00595  -0.00595   2.06133
   R13        2.80761   0.01180   0.00000   0.01715   0.01973   2.82734
   R14        2.70866   0.05542   0.00000   0.08978   0.09003   2.79869
   R15        2.57777   0.09785   0.00000   0.10766   0.10657   2.68433
   R16        2.10946  -0.00362   0.00000  -0.00600  -0.00600   2.10346
   R17        2.89339  -0.05156   0.00000  -0.09817  -0.09937   2.79402
   R18        2.06890   0.00298   0.00000   0.00468   0.00468   2.07358
   R19        2.51850   0.07514   0.00000   0.07672   0.07642   2.59492
   R20        2.04999   0.00149   0.00000   0.00228   0.00228   2.05227
   R21        3.23216   0.01215   0.00000   0.02080   0.02075   3.25291
   R22        3.34808   0.01126   0.00000   0.01849   0.01838   3.36646
   R23        3.17505  -0.03843   0.00000  -0.05528  -0.05528   3.11976
    A1        2.12423   0.00877   0.00000   0.01922   0.01913   2.14336
    A2        2.12952  -0.00676   0.00000  -0.01562  -0.01571   2.11381
    A3        2.02826  -0.00183   0.00000  -0.00247  -0.00257   2.02569
    A4        1.88907   0.00591   0.00000   0.00929   0.00902   1.89809
    A5        1.97325  -0.00536   0.00000  -0.02152  -0.02183   1.95142
    A6        1.81749   0.00118   0.00000   0.00707   0.00712   1.82461
    A7        2.13001  -0.00467   0.00000  -0.01119  -0.01097   2.11904
    A8        1.78710   0.00245   0.00000   0.01262   0.01236   1.79946
    A9        1.82981   0.00202   0.00000   0.01107   0.01119   1.84100
   A10        2.31642   0.00464   0.00000   0.00925   0.00882   2.32524
   A11        1.96038  -0.00664   0.00000  -0.01450  -0.01428   1.94610
   A12        1.99197   0.00215   0.00000   0.00622   0.00639   1.99836
   A13        2.30859   0.00319   0.00000   0.00678   0.00622   2.31481
   A14        2.00167  -0.00015   0.00000   0.00071   0.00095   2.00262
   A15        1.97269  -0.00298   0.00000  -0.00721  -0.00697   1.96572
   A16        2.23897  -0.00408   0.00000  -0.00290  -0.00339   2.23559
   A17        1.94146   0.00710   0.00000   0.02020   0.01994   1.96140
   A18        2.05786  -0.00017   0.00000  -0.00240  -0.00283   2.05503
   A19        2.11982   0.02812   0.00000   0.06374   0.06442   2.18424
   A20        2.03164   0.02810   0.00000   0.09142   0.09029   2.12193
   A21        1.78680  -0.04407   0.00000  -0.09840  -0.09927   1.68753
   A22        1.70185   0.01119   0.00000   0.01202   0.01374   1.71560
   A23        1.86033   0.01349   0.00000   0.03209   0.03297   1.89331
   A24        1.93218  -0.01155   0.00000  -0.01664  -0.01796   1.91422
   A25        1.82948   0.00308   0.00000   0.00603   0.00275   1.83224
   A26        1.92948   0.01578   0.00000   0.07346   0.07223   2.00171
   A27        2.08321   0.00177   0.00000   0.00168   0.00152   2.08473
   A28        1.86340  -0.01344   0.00000  -0.03217  -0.03382   1.82958
   A29        2.16165   0.01171   0.00000   0.03327   0.03386   2.19551
   A30        2.22824   0.00340   0.00000   0.01258   0.01214   2.24038
   A31        1.77583   0.02833   0.00000   0.06728   0.06726   1.84309
   A32        2.10614  -0.00569   0.00000  -0.01000  -0.01091   2.09523
   A33        2.34228  -0.02069   0.00000  -0.05119  -0.05042   2.29186
   A34        1.73062   0.00130   0.00000   0.01808   0.01698   1.74760
   A35        1.94440   0.02020   0.00000   0.04863   0.04805   1.99245
   A36        2.16927  -0.00522   0.00000  -0.01515  -0.01501   2.15426
   A37        2.15779  -0.01430   0.00000  -0.03113  -0.03085   2.12694
    D1        2.45734   0.00057   0.00000  -0.00499  -0.00513   2.45222
    D2       -1.41101  -0.00550   0.00000  -0.03290  -0.03277  -1.44378
    D3        0.56504  -0.00490   0.00000  -0.02563  -0.02562   0.53942
    D4       -0.73545   0.00427   0.00000   0.01882   0.01869  -0.71677
    D5        1.67938  -0.00181   0.00000  -0.00909  -0.00896   1.67042
    D6       -2.62775  -0.00120   0.00000  -0.00182  -0.00181  -2.62957
    D7        3.02029  -0.00711   0.00000  -0.02742  -0.02732   2.99297
    D8       -0.31808  -0.00616   0.00000  -0.02080  -0.02081  -0.33888
    D9        0.68427  -0.00067   0.00000   0.00751   0.00770   0.69196
   D10       -2.65410   0.00028   0.00000   0.01413   0.01421  -2.63989
   D11       -1.34981  -0.00269   0.00000  -0.01091  -0.01068  -1.36049
   D12        1.59501  -0.00174   0.00000  -0.00429  -0.00417   1.59084
   D13        2.33804   0.00092   0.00000   0.01126   0.01124   2.34928
   D14       -0.64433  -0.00258   0.00000  -0.00227  -0.00223  -0.64657
   D15       -1.64332  -0.00126   0.00000  -0.01252  -0.01210  -1.65542
   D16        1.65750  -0.00476   0.00000  -0.02606  -0.02557   1.63192
   D17        0.36948   0.00087   0.00000   0.00658   0.00678   0.37626
   D18       -2.61289  -0.00263   0.00000  -0.00695  -0.00669  -2.61958
   D19       -0.37033   0.00094   0.00000   0.02560   0.02565  -0.34468
   D20        2.74589   0.00415   0.00000   0.04073   0.04081   2.78670
   D21        2.97076   0.00072   0.00000   0.02065   0.02074   2.99150
   D22       -0.19621   0.00394   0.00000   0.03578   0.03590  -0.16031
   D23        0.65371  -0.00969   0.00000  -0.03911  -0.03929   0.61442
   D24       -2.81667   0.00075   0.00000   0.01412   0.01444  -2.80224
   D25       -2.46283  -0.01290   0.00000  -0.05413  -0.05429  -2.51711
   D26        0.34997  -0.00245   0.00000  -0.00091  -0.00056   0.34941
   D27        2.45801  -0.00213   0.00000   0.02237   0.02556   2.48357
   D28        0.26326   0.00648   0.00000   0.00871   0.00608   0.26934
   D29       -0.33605  -0.01425   0.00000  -0.03744  -0.03424  -0.37029
   D30       -2.53080  -0.00563   0.00000  -0.05110  -0.05372  -2.58452
   D31       -1.41006  -0.01996   0.00000  -0.06619  -0.06556  -1.47562
   D32        2.87836  -0.01556   0.00000  -0.06181  -0.06130   2.81706
   D33        0.89220  -0.00055   0.00000   0.01940   0.01746   0.90965
   D34       -1.10257   0.00384   0.00000   0.02377   0.02172  -1.08086
   D35        1.54996   0.01949   0.00000   0.08491   0.08263   1.63259
   D36       -1.90504   0.02081   0.00000   0.09113   0.08948  -1.81555
   D37       -0.80388  -0.00128   0.00000   0.01416   0.01390  -0.78997
   D38        2.02431   0.00004   0.00000   0.02037   0.02076   2.04507
   D39       -0.61791  -0.03502   0.00000  -0.11583  -0.11843  -0.73634
   D40        1.64847  -0.02024   0.00000  -0.06113  -0.06200   1.58647
   D41        1.31867  -0.01831   0.00000  -0.07960  -0.08108   1.23759
   D42       -2.69813  -0.00352   0.00000  -0.02490  -0.02465  -2.72278
   D43        0.16371   0.01640   0.00000   0.09478   0.09236   0.25607
   D44       -2.73474   0.00980   0.00000   0.03986   0.03707  -2.69767
   D45       -2.00811  -0.00878   0.00000  -0.01060  -0.01103  -2.01914
   D46        1.37662  -0.01538   0.00000  -0.06552  -0.06631   1.31030
   D47        0.39991  -0.00461   0.00000  -0.04721  -0.04950   0.35041
   D48       -2.36279  -0.01290   0.00000  -0.07231  -0.07319  -2.43598
   D49       -2.99703   0.00370   0.00000   0.01387   0.01144  -2.98560
   D50        0.52345  -0.00458   0.00000  -0.01122  -0.01226   0.51119
   D51        1.09165  -0.01726   0.00000  -0.06145  -0.05987   1.03178
   D52       -2.48455  -0.00329   0.00000  -0.02294  -0.02261  -2.50716
   D53        0.94091  -0.01198   0.00000  -0.03177  -0.03071   0.91020
   D54       -2.35867  -0.00755   0.00000  -0.01669  -0.01592  -2.37459
         Item               Value     Threshold  Converged?
 Maximum Force            0.097846     0.000450     NO 
 RMS     Force            0.018199     0.000300     NO 
 Maximum Displacement     0.473090     0.001800     NO 
 RMS     Displacement     0.088982     0.001200     NO 
 Predicted change in Energy=-5.576890D-02
 GradGradGradGradGradGradGradGradGradGradGradGradGradGradGradGradGradGrad

                          Input orientation:                          
 ---------------------------------------------------------------------
 Center     Atomic      Atomic             Coordinates (Angstroms)
 Number     Number       Type             X           Y           Z
 ---------------------------------------------------------------------
      1         16           0        0.792798   -0.177797    0.230597
      2          6           0        2.426275   -0.069251    0.055508
      3          6           0        3.247889    1.049134    0.673891
      4          6           0        4.554260    0.464794    1.199037
      5          6           0        5.675151    1.014810    1.689938
      6          6           0        6.248052    2.358395    1.586624
      7          6           0        5.593395    3.547057    1.544159
      8          6           0        6.056521    4.809355    2.200378
      9          6           0        5.525568    4.573256    3.496576
     10          6           0        4.177059    4.014518    3.261225
     11          6           0        4.169284    3.662456    1.933974
     12         16           0        2.954345    3.816984    0.724366
     13          6           0        3.229360    2.312965   -0.189896
     14         16           0        3.244211    2.286765   -1.840527
     15          1           0        2.980994   -0.798536   -0.545363
     16          1           0        2.706183    1.313886    1.592848
     17          1           0        4.482679   -0.616939    1.336160
     18          1           0        6.288922    0.340627    2.296254
     19          1           0        7.314477    2.373898    1.815460
     20          1           0        5.526552    5.667111    1.728796
     21          1           0        6.208997    4.061073    4.185517
     22          1           0        3.338658    4.067298    3.949500
 ---------------------------------------------------------------------
                    Distance matrix (angstroms):
                    1          2          3          4          5
     1  S    0.000000
     2  C    1.646416   0.000000
     3  C    2.780169   1.519287   0.000000
     4  C    3.936927   2.474103   1.524414   0.000000
     5  C    5.233485   3.794964   2.631565   1.341603   0.000000
     6  C    6.166918   4.779515   3.398268   2.569996   1.464278
     7  C    6.216568   5.032337   3.535305   3.270972   2.537756
     8  C    7.513887   6.448252   4.935366   4.704751   3.847670
     9  C    7.459104   6.557396   5.057154   4.806411   3.993601
    10  C    6.181702   5.478964   4.043657   4.122553   3.702900
    11  C    5.389777   4.526848   3.044048   3.303541   3.055686
    12  S    4.568847   3.978574   2.783830   3.744626   4.023344
    13  C    3.509636   2.525891   1.530928   2.664627   3.346771
    14  S    4.046362   3.132854   2.802506   3.778195   4.471188
    15  H    2.403255   1.095726   2.229731   2.667227   3.942497
    16  H    2.782425   2.086824   1.099100   2.071578   2.985573
    17  H    3.876898   2.483713   2.176949   1.092736   2.051769
    18  H    5.894326   4.484305   3.518796   2.056296   1.094923
    19  H    7.180197   5.741161   4.426660   3.412250   2.133134
    20  H    7.669157   6.731824   5.256505   5.318844   4.654835
    21  H    7.933764   6.958846   5.492855   4.958875   3.973993
    22  H    6.191323   5.753839   4.455016   4.692630   4.458980
                    6          7          8          9         10
     6  C    0.000000
     7  C    1.357680   0.000000
     8  C    2.533887   1.496164   0.000000
     9  C    3.012558   2.206722   1.420487   0.000000
    10  C    3.136247   2.274389   2.299899   1.478531   0.000000
    11  C    2.478407   1.481001   2.224412   2.260706   1.373173
    12  S    3.703981   2.776601   3.575879   3.855942   2.823067
    13  C    3.502940   3.180973   4.465222   4.896076   3.962783
    14  S    4.557801   4.308491   5.531859   6.238373   5.466554
    15  H    5.018491   5.484061   6.960345   7.188065   6.251894
    16  H    3.692678   3.650400   4.879770   4.711327   3.498624
    17  H    3.468701   4.314604   5.715638   5.717791   5.024905
    18  H    2.139307   3.366095   4.475794   4.465269   4.346102
    19  H    1.090811   2.100482   2.768044   3.295986   3.824299
    20  H    3.389450   2.129129   1.113105   2.078838   2.626887
    21  H    3.107230   2.760426   2.126959   1.097290   2.232768
    22  H    4.119236   3.337688   3.316150   2.289915   1.086013
                   11         12         13         14         15
    11  C    0.000000
    12  S    1.721368   0.000000
    13  C    2.686150   1.781454   0.000000
    14  S    4.122516   3.000711   1.650906   0.000000
    15  H    5.240191   4.787061   3.141574   3.356459   0.000000
    16  H    2.787976   2.661080   2.109514   3.608883   3.018245
    17  H    4.332299   4.729669   3.533269   4.478464   2.414159
    18  H    3.957102   5.067080   4.408172   5.492784   4.507202
    19  H    3.400980   4.720565   4.551192   5.471827   5.866592
    20  H    2.429591   3.323868   4.495415   5.419952   7.311379
    21  H    3.064110   4.757301   5.574796   6.946318   7.511127
    22  H    2.217247   3.257583   4.497136   6.058353   6.633858
                   16         17         18         19         20
    16  H    0.000000
    17  H    2.636269   0.000000
    18  H    3.778629   2.258590   0.000000
    19  H    4.733873   4.146554   2.327470   0.000000
    20  H    5.188789   6.382250   5.410605   3.748258   0.000000
    21  H    5.151570   5.743065   4.173418   3.112205   3.013399
    22  H    3.679009   5.484561   5.032431   4.819634   3.503970
                   21         22
    21  H    0.000000
    22  H    2.880033   0.000000
 Stoichiometry    C11H8S3
 Framework group  C1[X(C11H8S3)]
 Deg. of freedom    60
 Full point group                 C1      NOp   1
 Largest Abelian subgroup         C1      NOp   1
 Largest concise Abelian subgroup C1      NOp   1
                         Standard orientation:                         
 ---------------------------------------------------------------------
 Center     Atomic      Atomic             Coordinates (Angstroms)
 Number     Number       Type             X           Y           Z
 ---------------------------------------------------------------------
      1         16           0        3.653687   -0.527882   -1.219620
      2          6           0        2.656938   -0.913806    0.032673
      3          6           0        1.158199   -0.667209   -0.002054
      4          6           0        0.451732   -1.849575    0.651210
      5          6           0       -0.821232   -2.075710    1.009435
      6          6           0       -1.954198   -1.182845    1.261008
      7          6           0       -2.258659   -0.018539    0.632526
      8          6           0       -3.641622    0.442290    0.295545
      9          6           0       -3.794839   -0.251506   -0.934477
     10          6           0       -2.498992   -0.090609   -1.627981
     11          6           0       -1.633948    0.352551   -0.657975
     12         16           0       -0.387842    1.539283   -0.702669
     13          6           0        0.810456    0.775998    0.372068
     14         16           0        1.617618    1.635795    1.527372
     15          1           0        3.052588   -1.344774    0.959141
     16          1           0        0.886224   -0.769164   -1.062081
     17          1           0        1.095656   -2.731761    0.685564
     18          1           0       -1.081459   -3.131916    1.134202
     19          1           0       -2.737213   -1.661449    1.850664
     20          1           0       -3.611790    1.538765    0.106191
     21          1           0       -4.238130   -1.251242   -0.844665
     22          1           0       -2.344310   -0.129828   -2.702207
 ---------------------------------------------------------------------
 Rotational constants (GHZ):           0.8744532           0.3412014           0.3217002
 Standard basis: 6-31G(2df,p) (6D, 7F)
 There are   486 symmetry adapted cartesian basis functions of A   symmetry.
 There are   444 symmetry adapted basis functions of A   symmetry.
   444 basis functions,   744 primitive gaussians,   486 cartesian basis functions
    61 alpha electrons       61 beta electrons
       nuclear repulsion energy      1131.1434454771 Hartrees.
 NAtoms=   22 NActive=   22 NUniq=   22 SFac= 1.00D+00 NAtFMM=   60 NAOKFM=F Big=F
 Integral buffers will be    131072 words long.
 Raffenetti 2 integral format.
 Two-electron integral symmetry is turned on.
 One-electron integrals computed using PRISM.
 PrsmSu:  requested number of processors reduced to:  12 ShMem   1 Linda.
 NBasis=   444 RedAO= T EigKep=  3.65D-04  NBF=   444
 NBsUse=   444 1.00D-06 EigRej= -1.00D+00 NBFU=   444
 Initial guess from the checkpoint file:  "SdCC1CdCCdC2CdCCdC2SC1dS.chk"
 B after Tr=     0.000000   -0.000000   -0.000000
         Rot=    0.997872   -0.064868   -0.003899   -0.005394 Ang=  -7.48 deg.
 ExpMin= 1.17D-01 ExpMax= 2.19D+04 ExpMxC= 3.30D+03 IAcc=2 IRadAn=         4 AccDes= 0.00D+00
 Harris functional with IExCor=  402 and IRadAn=       4 diagonalized for initial guess.
 HarFok:  IExCor=  402 AccDes= 0.00D+00 IRadAn=         4 IDoV= 1 UseB2=F ITyADJ=14
 ICtDFT=  3500011 ScaDFX=  1.000000  1.000000  1.000000  1.000000
 FoFCou: FMM=F IPFlag=           0 FMFlag=      100000 FMFlg1=           0
         NFxFlg=           0 DoJE=T BraDBF=F KetDBF=T FulRan=T
         wScrn=  0.000000 ICntrl=       500 IOpCl=  0 I1Cent=   200000004 NGrid=           0
         NMat0=    1 NMatS0=      1 NMatT0=    0 NMatD0=    1 NMtDS0=    0 NMtDT0=    0
 Petite list used in FoFCou.
 Requested convergence on RMS density matrix=1.00D-08 within 128 cycles.
 Requested convergence on MAX density matrix=1.00D-06.
 Requested convergence on             energy=1.00D-06.
 No special actions if energy rises.
 Integral accuracy reduced to 1.0D-05 until final iterations.
 Initial convergence to 1.0D-05 achieved.  Increase integral accuracy.
 SCF Done:  E(RB3LYP) =  -1618.26717079     A.U. after   16 cycles
            NFock= 16  Conv=0.83D-08     -V/T= 2.0044
 PrsmSu:  requested number of processors reduced to:  13 ShMem   1 Linda.
 Calling FoFJK, ICntrl=      2127 FMM=F ISym2X=0 I1Cent= 0 IOpClX= 0 NMat=1 NMatS=1 NMatT=0.
 ***** Axes restored to original set *****
 -------------------------------------------------------------------
 Center     Atomic                   Forces (Hartrees/Bohr)
 Number     Number              X              Y              Z
 -------------------------------------------------------------------
      1       16           0.022881120   -0.002803035   -0.001494379
      2        6          -0.024146338    0.003308650   -0.007289699
      3        6           0.002660531   -0.002959127    0.010552983
      4        6           0.000912631   -0.003803018    0.003237153
      5        6           0.002275806    0.004854652   -0.006370268
      6        6          -0.004625365    0.003236630    0.004389900
      7        6           0.050055815   -0.048975387    0.012495830
      8        6          -0.025468519    0.025412314   -0.044750493
      9        6          -0.026624896   -0.049524927    0.026542913
     10        6           0.019614054    0.060857269    0.045622305
     11        6           0.002926438    0.018539640   -0.026980535
     12       16          -0.011373254   -0.002468134   -0.004312572
     13        6           0.001744433   -0.007937255   -0.021778940
     14       16          -0.000053709    0.002221049    0.019112970
     15        1          -0.001875410    0.001854671    0.001580794
     16        1          -0.000873249    0.000680824   -0.002149184
     17        1          -0.004236134    0.003094307    0.003862200
     18        1           0.003280420   -0.000303851   -0.010977668
     19        1          -0.000626457    0.004236613   -0.008415574
     20        1           0.003179726   -0.004958169    0.000777223
     21        1          -0.008250368    0.003690777    0.008188847
     22        1          -0.001377276   -0.008254494   -0.001843805
 -------------------------------------------------------------------
 Cartesian Forces:  Max     0.060857269 RMS     0.018475222

 GradGradGradGradGradGradGradGradGradGradGradGradGradGradGradGradGradGrad
 Berny optimization.
 Using GEDIIS/GDIIS optimizer.
 FormGI is forming the generalized inverse of G from B-inverse, IUseBI=4.
 Internal  Forces:  Max     0.043017135 RMS     0.010167146
 Search for a local minimum.
 Step number   2 out of a maximum of  124
 All quantities printed in internal units (Hartrees-Bohrs-Radians)
 Mixed Optimization -- RFO/linear search
 Update second derivatives using D2CorX and points    1    2
 DE= -5.58D-02 DEPred=-5.58D-02 R= 1.00D+00
 TightC=F SS=  1.41D+00  RLast= 4.30D-01 DXNew= 5.0454D-01 1.2885D+00
 Trust test= 1.00D+00 RLast= 4.30D-01 DXMaxT set to 5.05D-01
 ITU=  1  0
 Use linear search instead of GDIIS.
     Eigenvalues ---    0.00517   0.00564   0.00567   0.00710   0.01459
     Eigenvalues ---    0.01510   0.01705   0.01893   0.02085   0.02111
     Eigenvalues ---    0.02150   0.02442   0.02624   0.03453   0.03966
     Eigenvalues ---    0.04295   0.04859   0.06496   0.07205   0.07345
     Eigenvalues ---    0.08123   0.11564   0.14547   0.14762   0.15605
     Eigenvalues ---    0.15685   0.16000   0.16012   0.16306   0.18090
     Eigenvalues ---    0.19636   0.20302   0.21648   0.21998   0.22114
     Eigenvalues ---    0.23014   0.24773   0.26804   0.27960   0.29018
     Eigenvalues ---    0.29951   0.30818   0.31704   0.31925   0.33433
     Eigenvalues ---    0.33451   0.33483   0.34043   0.34077   0.34295
     Eigenvalues ---    0.34356   0.35003   0.35423   0.37008   0.38462
     Eigenvalues ---    0.39173   0.47826   0.51759   0.55413   0.57987
 RFO step:  Lambda=-3.44031223D-02 EMin= 5.16992309D-03
 Quartic linear search produced a step of  1.51451.
 Iteration  1 RMS(Cart)=  0.17167584 RMS(Int)=  0.01712280
 Iteration  2 RMS(Cart)=  0.01859170 RMS(Int)=  0.00790700
 Iteration  3 RMS(Cart)=  0.00044208 RMS(Int)=  0.00790295
 Iteration  4 RMS(Cart)=  0.00000620 RMS(Int)=  0.00790295
 Iteration  5 RMS(Cart)=  0.00000011 RMS(Int)=  0.00790295
 Variable       Old X    -DE/DX   Delta X   Delta X   Delta X     New X
                                 (Linear)    (Quad)   (Total)
    R1        3.11127  -0.02267  -0.09293   0.00189  -0.09104   3.02023
    R2        2.87104   0.00289   0.01150   0.00352   0.01502   2.88606
    R3        2.07062  -0.00305  -0.01772   0.00562  -0.01210   2.05852
    R4        2.88073   0.00214   0.01650  -0.01895  -0.00290   2.87783
    R5        2.89303   0.00033   0.01003  -0.00944   0.00240   2.89543
    R6        2.07700  -0.00120  -0.00911   0.00526  -0.00385   2.07315
    R7        2.53526   0.00329   0.02048  -0.02089  -0.00120   2.53406
    R8        2.06497  -0.00230  -0.01086   0.00086  -0.01000   2.05497
    R9        2.76708  -0.00334  -0.01891   0.00062  -0.01935   2.74773
   R10        2.06910  -0.00405  -0.02059   0.00324  -0.01735   2.05175
   R11        2.56564  -0.01228  -0.00313  -0.04412  -0.04696   2.51868
   R12        2.06133  -0.00232  -0.00901  -0.00178  -0.01080   2.05054
   R13        2.82734   0.00046   0.02988  -0.04652   0.00087   2.82821
   R14        2.79869   0.01789   0.13635  -0.06330   0.07292   2.87161
   R15        2.68433   0.04302   0.16139  -0.04588   0.10728   2.79161
   R16        2.10346  -0.00566  -0.00908  -0.02516  -0.03424   2.06922
   R17        2.79402  -0.04098  -0.15049  -0.09172  -0.24806   2.54596
   R18        2.07358  -0.00172   0.00709  -0.02102  -0.01393   2.05965
   R19        2.59492   0.03841   0.11574  -0.00306   0.11040   2.70532
   R20        2.05227  -0.00051   0.00345  -0.00803  -0.00458   2.04769
   R21        3.25291   0.00882   0.03143   0.01720   0.04796   3.30088
   R22        3.36646   0.00478   0.02784  -0.00884   0.01822   3.38468
   R23        3.11976  -0.01915  -0.08373   0.00862  -0.07511   3.04465
    A1        2.14336   0.00613   0.02897   0.01414   0.04173   2.18509
    A2        2.11381  -0.00343  -0.02379   0.00470  -0.02047   2.09334
    A3        2.02569  -0.00263  -0.00389  -0.01748  -0.02274   2.00295
    A4        1.89809   0.00357   0.01365  -0.01152  -0.00124   1.89685
    A5        1.95142  -0.00475  -0.03307  -0.02831  -0.06370   1.88772
    A6        1.82461   0.00132   0.01078   0.02089   0.03249   1.85710
    A7        2.11904  -0.00262  -0.01661  -0.01488  -0.03226   2.08678
    A8        1.79946   0.00164   0.01872   0.02786   0.04495   1.84441
    A9        1.84100   0.00197   0.01695   0.01984   0.03747   1.87847
   A10        2.32524   0.00155   0.01336  -0.00644   0.00277   2.32801
   A11        1.94610  -0.00299  -0.02163   0.00381  -0.01598   1.93011
   A12        1.99836   0.00150   0.00968   0.00418   0.01588   2.01424
   A13        2.31481   0.00228   0.00942   0.00643   0.01056   2.32537
   A14        2.00262  -0.00084   0.00144  -0.00871  -0.00510   1.99752
   A15        1.96572  -0.00142  -0.01056   0.00246  -0.00594   1.95977
   A16        2.23559  -0.00170  -0.00513   0.02582   0.01294   2.24853
   A17        1.96140   0.00548   0.03020   0.02422   0.04815   2.00954
   A18        2.05503  -0.00194  -0.00429  -0.02037  -0.03140   2.02363
   A19        2.18424   0.02035   0.09756   0.08198   0.17139   2.35563
   A20        2.12193   0.01907   0.13675   0.07866   0.20015   2.32208
   A21        1.68753  -0.02978  -0.15034  -0.06714  -0.22548   1.46205
   A22        1.71560   0.01344   0.02082   0.04243   0.06766   1.78326
   A23        1.89331   0.00667   0.04994   0.00266   0.05503   1.94834
   A24        1.91422  -0.00453  -0.02720   0.04866   0.01526   1.92948
   A25        1.83224  -0.00683   0.00417  -0.07861  -0.08903   1.74321
   A26        2.00171   0.01106   0.10939   0.06686   0.16257   2.16428
   A27        2.08473   0.00644   0.00230   0.07865   0.07973   2.16447
   A28        1.82958  -0.00377  -0.05122   0.03770  -0.02118   1.80840
   A29        2.19551   0.00815   0.05128   0.03171   0.07950   2.27500
   A30        2.24038  -0.00357   0.01839  -0.05438  -0.04092   2.19946
   A31        1.84309   0.01375   0.10187  -0.02447   0.08162   1.92471
   A32        2.09523  -0.00092  -0.01652   0.03907   0.01227   2.10750
   A33        2.29186  -0.01125  -0.07636   0.00486  -0.07016   2.22170
   A34        1.74760   0.00107   0.02572   0.02556   0.03843   1.78603
   A35        1.99245   0.00995   0.07278  -0.01536   0.04940   2.04185
   A36        2.15426  -0.00149  -0.02273   0.01366  -0.00566   2.14860
   A37        2.12694  -0.00815  -0.04672  -0.00252  -0.04493   2.08201
    D1        2.45222   0.00007  -0.00776  -0.03685  -0.04602   2.40619
    D2       -1.44378  -0.00465  -0.04963  -0.09492  -0.14289  -1.58667
    D3        0.53942  -0.00379  -0.03881  -0.07317  -0.11214   0.42728
    D4       -0.71677   0.00287   0.02830   0.01948   0.04632  -0.67045
    D5        1.67042  -0.00185  -0.01357  -0.03859  -0.05055   1.61986
    D6       -2.62957  -0.00099  -0.00274  -0.01684  -0.01980  -2.64937
    D7        2.99297  -0.00431  -0.04137  -0.03124  -0.07243   2.92054
    D8       -0.33888  -0.00388  -0.03151  -0.01972  -0.05163  -0.39052
    D9        0.69196   0.00164   0.01166   0.04028   0.05126   0.74323
   D10       -2.63989   0.00207   0.02152   0.05180   0.07206  -2.56783
   D11       -1.36049  -0.00075  -0.01618   0.00039  -0.01489  -1.37539
   D12        1.59084  -0.00032  -0.00631   0.01190   0.00590   1.59674
   D13        2.34928   0.00121   0.01702  -0.00414   0.01189   2.36117
   D14       -0.64657  -0.00052  -0.00338   0.02833   0.02435  -0.62221
   D15       -1.65542  -0.00138  -0.01833  -0.07032  -0.08491  -1.74033
   D16        1.63192  -0.00311  -0.03873  -0.03784  -0.07245   1.55947
   D17        0.37626   0.00081   0.01027  -0.02633  -0.01501   0.36125
   D18       -2.61958  -0.00092  -0.01013   0.00614  -0.00255  -2.62213
   D19       -0.34468   0.00341   0.03885   0.09267   0.13019  -0.21448
   D20        2.78670   0.00508   0.06181   0.11701   0.17855   2.96525
   D21        2.99150   0.00334   0.03142   0.08096   0.11130   3.10280
   D22       -0.16031   0.00501   0.05437   0.10530   0.15966  -0.00065
   D23        0.61442  -0.00739  -0.05951  -0.10320  -0.16560   0.44883
   D24       -2.80224   0.00047   0.02186   0.02168   0.04802  -2.75421
   D25       -2.51711  -0.00904  -0.08222  -0.12710  -0.21317  -2.73029
   D26        0.34941  -0.00118  -0.00085  -0.00222   0.00045   0.34986
   D27        2.48357   0.00124   0.03870   0.09479   0.15711   2.64068
   D28        0.26934   0.00237   0.00921   0.00269  -0.00765   0.26169
   D29       -0.37029  -0.00797  -0.05186  -0.04229  -0.06876  -0.43905
   D30       -2.58452  -0.00685  -0.08136  -0.13439  -0.23352  -2.81804
   D31       -1.47562  -0.00880  -0.09929  -0.02922  -0.11639  -1.59200
   D32        2.81706  -0.01167  -0.09284  -0.10178  -0.18808   2.62898
   D33        0.90965   0.00476   0.02644   0.08899   0.10725   1.01690
   D34       -1.08086   0.00189   0.03289   0.01642   0.03555  -1.04530
   D35        1.63259   0.01297   0.12514   0.07906   0.19063   1.82322
   D36       -1.81555   0.01532   0.13552   0.13262   0.25759  -1.55796
   D37       -0.78997  -0.00189   0.02106  -0.03881  -0.01441  -0.80438
   D38        2.04507   0.00046   0.03144   0.01474   0.05255   2.09762
   D39       -0.73634  -0.02286  -0.17937  -0.06216  -0.25333  -0.98967
   D40        1.58647  -0.01131  -0.09390   0.02878  -0.07399   1.51248
   D41        1.23759  -0.01083  -0.12280  -0.02495  -0.15168   1.08591
   D42       -2.72278   0.00072  -0.03733   0.06599   0.02766  -2.69512
   D43        0.25607   0.00701   0.13988   0.00789   0.12916   0.38523
   D44       -2.69767   0.00351   0.05615  -0.06419  -0.03191  -2.72958
   D45       -2.01914  -0.00741  -0.01670  -0.07613  -0.09769  -2.11683
   D46        1.31030  -0.01091  -0.10043  -0.14820  -0.25876   1.05155
   D47        0.35041  -0.00064  -0.07497   0.03396  -0.05299   0.29742
   D48       -2.43598  -0.00686  -0.11085  -0.03560  -0.14894  -2.58493
   D49       -2.98560   0.00470   0.01732   0.12159   0.11618  -2.86942
   D50        0.51119  -0.00152  -0.01857   0.05203   0.02023   0.53142
   D51        1.03178  -0.01213  -0.09068  -0.10032  -0.17785   0.85392
   D52       -2.50716  -0.00326  -0.03424  -0.03398  -0.06410  -2.57126
   D53        0.91020  -0.00545  -0.04650   0.03490  -0.00627   0.90393
[...]
 0336,0.00063724,-0.00193532,0.00253347,0.01281577,0.00560116,0.0000034
 7,0.00005011,-0.00076532,0.00004157,0.00175774,0.00029881,0.00320858,-
 0.00103153,0.00017100,-0.01481818,-0.00337078,-0.01784848,-0.00783195,
 0.00431027,-0.00539690,0.00114946,0.00034476,-0.00419858,-0.01123534,0
 .00360150,-0.01645039,-0.01181564,0.03219273,-0.14128304,0.05993408,-0
 .01565384,0.23523992,-0.00441871,-0.00184763,-0.00050791,0.00271823,-0
 .01380599,0.02028686,-0.05426294,-0.00688002,-0.00415811,-0.00567337,0
 .01863680,-0.01676032,-0.00342510,0.00127155,-0.00031402,0.00112955,0.
 00168573,0.00089747,-0.00147231,-0.00173723,0.00048822,0.00076511,0.00
 108341,-0.00081147,-0.00039835,-0.00001451,0.00031819,0.00272579,-0.00
 058588,0.00049874,-0.00896077,-0.00700089,-0.00390418,-0.03497579,-0.0
 2056701,-0.00791421,0.17248849,0.00108291,0.00134672,-0.00272426,-0.00
 886281,-0.02422570,0.01927613,-0.00916313,-0.10205859,0.04133092,0.017
 90336,-0.01859709,0.00853343,-0.00269289,0.00500155,0.00146180,0.00199
 316,-0.00135623,0.00161383,-0.00190215,0.00387754,0.00004519,0.0031019
 2,-0.00173687,0.00573927,0.00073636,-0.00057730,0.00123068,0.00289087,
 -0.00174260,0.00099856,-0.00383094,0.00705196,-0.01149072,-0.03354094,
 -0.14307834,-0.01075763,0.04711450,0.31127945,-0.00368442,-0.00193695,
 0.00153465,0.01727057,0.01329334,0.00291789,-0.00316790,0.02187252,-0.
 11043178,-0.01402614,0.00619859,-0.00010646,0.00186538,-0.00223574,-0.
 00053709,-0.00124767,0.00086473,0.00115414,0.00146487,-0.00028930,0.00
 201172,0.00264428,0.00143479,-0.00291596,-0.00062277,-0.00008538,-0.00
 099931,-0.00119935,-0.00147350,0.00011058,-0.00875766,-0.02207902,-0.0
 0989405,0.00368518,0.02830874,-0.03862858,0.09122241,-0.01588469,0.448
 56939,0.00071591,0.00072139,0.00062779,-0.00144026,-0.00210812,-0.0017
 5692,0.00597145,0.00023070,-0.00883660,0.00026872,-0.00048770,-0.00029
 295,0.00095570,-0.00003324,-0.00012711,-0.00031991,-0.00051944,-0.0004
 3779,0.00080507,0.00050308,0.00037332,0.00032331,-0.00013227,-0.000806
 45,-0.00015302,-0.00022424,-0.00063647,-0.00166913,0.00032455,-0.00021
 231,0.00311176,-0.00281043,-0.00116468,-0.00105837,-0.01110508,-0.0137
 4137,-0.06432162,-0.01274333,-0.08219090,0.05562348,-0.00056605,0.0005
 8760,0.00157676,-0.00168799,-0.00315101,0.00084568,0.00396475,0.009528
 95,0.01160440,0.00005361,0.00097014,0.00149777,0.00031889,-0.00114317,
 -0.00037381,-0.00088875,0.00051242,-0.00039903,0.00162704,-0.00101034,
 0.00024076,0.00021080,0.00062768,-0.00241532,-0.00063567,-0.00008418,-
 0.00076409,-0.00126184,0.00051133,-0.00022136,-0.00309232,-0.00490119,
 -0.00040391,-0.01008068,-0.00414665,-0.02208330,-0.01673143,-0.0479258
 4,-0.04589730,0.02736815,0.05173209,0.00118898,0.00089934,-0.00017882,
 -0.00345608,-0.00123035,-0.00316695,-0.01177189,0.00125356,-0.02330046
 ,0.00177798,-0.00112385,-0.00407734,0.00000627,0.00138955,0.00076988,0
 .00004586,-0.00054575,-0.00050422,0.00045668,0.00020754,-0.00078261,-0
 .00006471,0.00085589,-0.00154535,-0.00016526,-0.00021894,-0.00015480,-
 0.00097036,0.00011045,0.00028806,-0.00193995,-0.00287653,0.00218078,-0
 .01394052,-0.02632434,-0.01842576,-0.07869834,-0.02921728,-0.27078816,
 0.10803465,0.05206456,0.32282333,0.00184922,0.00199454,0.02286803,-0.0
 5050707,-0.01499438,-0.02549815,-0.00004589,-0.01795558,-0.01783603,0.
 00346158,-0.00034973,-0.00077417,0.00000520,0.00012320,-0.00004785,0.0
 0001268,0.00003294,0.00004245,0.00029425,-0.00014150,0.00007481,-0.000
 09066,-0.00019021,0.00011493,-0.00001545,-0.00000256,0.00003452,-0.000
 03392,0.00008021,0.00009323,-0.00019831,0.00001989,-0.00004319,0.00009
 900,-0.00040335,-0.00001214,-0.00079982,0.00020113,-0.00255325,0.00070
 424,0.00115877,0.00077433,0.04855234,-0.00521432,0.01076822,0.00600587
 ,-0.01813137,-0.11147038,-0.11705851,-0.00574843,-0.00319915,-0.019446
 85,-0.00007907,-0.00082563,0.00056456,-0.00031912,0.00049271,0.0001982
 4,0.00020313,-0.00004799,0.00011243,0.00014749,-0.00011022,0.00011185,
 -0.00005058,-0.00018101,0.00019159,0.00001000,-0.00002623,0.00003720,0
 .00001052,0.00002662,0.00015868,-0.00028742,0.00005008,-0.00026856,0.0
 0017270,0.00050137,-0.00020296,0.00042911,0.00124285,-0.00188986,0.000
 02184,0.00019912,0.00139179,0.03296165,0.10313559,0.00634067,-0.006361
 86,-0.01415066,-0.03110395,-0.12285124,-0.25332578,0.00300713,-0.00314
 131,0.00107913,0.00030431,0.00017544,0.00016572,0.00001411,0.00018373,
 0.00009165,-0.00003428,0.00005176,-0.00006341,0.00015048,-0.00002034,0
 .00011212,-0.00001287,-0.00002644,-0.00011205,-0.00002049,0.00002977,0
 .00003975,0.00006737,0.00001079,-0.00002603,-0.00019859,-0.00022013,0.
 00017533,-0.00023509,-0.00024986,-0.00016635,-0.00087748,-0.00058111,-
 0.00070537,0.00130134,0.00248313,-0.00159558,0.02169943,0.13018543,0.2
 6813285,0.00084197,0.00129002,-0.00034450,-0.00275116,-0.01475935,-0.0
 2420363,-0.04461177,0.00183829,0.00742908,-0.00214187,0.01534360,0.024
 22713,0.00038454,0.00007072,-0.00020513,0.00005570,0.00016576,0.000958
 25,-0.00186148,-0.00145224,-0.00069146,0.00028721,0.00043652,-0.000698
 19,0.00001656,-0.00002270,-0.00009273,0.00026288,-0.00026914,-0.000476
 16,0.00016161,-0.00244492,0.00110140,0.00001491,-0.00098405,0.00027892
 ,-0.00071662,0.00072187,-0.00413918,0.00055451,0.00010320,-0.00039986,
 -0.00280238,-0.00349036,0.00029321,0.05514115,0.00132113,0.00086616,0.
 00092924,-0.00207127,-0.01174281,-0.01975965,0.00085666,-0.09859578,-0
 .10863469,0.00321470,-0.01019357,-0.01517757,-0.00127724,0.00091918,0.
 00061540,0.00094148,0.00046887,-0.00022439,-0.00157277,-0.00105302,-0.
 00025951,-0.00006873,-0.00018547,-0.00076781,-0.00018223,0.00011238,-0
 .00017858,-0.00032720,-0.00121380,-0.00096931,-0.00239119,-0.00358251,
 0.00133678,0.00014533,-0.00108929,0.00098300,-0.00026166,0.01039165,0.
 02094532,0.00119866,-0.00250242,0.00268359,-0.00330497,-0.00106551,0.0
 0013829,0.00102431,0.11980901,0.00031106,0.00142568,0.00145151,0.00005
 573,-0.00096162,-0.00145551,0.00534058,-0.10923946,-0.26425503,0.00078
 901,-0.00192443,-0.00059824,-0.00097966,-0.00042191,0.00070833,0.00031
 793,0.00103423,0.00043470,0.00140549,-0.00117874,0.00049171,-0.0002870
 5,-0.00112599,-0.00021865,-0.00021222,0.00000663,0.00004138,-0.0002034
 3,-0.00039000,0.00020837,-0.00180393,-0.00138093,0.00081201,-0.0010045
 0,-0.00028316,-0.00057290,-0.00105150,-0.00692795,-0.02216661,-0.00017
 443,0.00232502,-0.00143425,0.00068938,0.00001732,0.00016391,-0.0031387
 7,0.11829987,0.28653340,-0.00007427,-0.00021662,-0.00052516,0.00145707
 ,0.00199986,0.00194159,-0.00278299,0.02202391,0.01358307,-0.05018640,-
 0.00909357,-0.01281771,-0.00271323,-0.02538853,-0.01782162,-0.00278994
 ,0.00142599,-0.00293420,-0.00094089,0.00024324,-0.00002904,0.00004880,
 -0.00004176,0.00021741,-0.00013328,0.00000975,0.00005419,0.00018307,-0
 .00001469,0.00009090,0.00031681,-0.00017575,-0.00017546,0.00039340,0.0
 0057282,-0.00036872,-0.00059774,-0.00135598,0.00274545,-0.00003057,-0.
 00028373,-0.00051085,-0.00034056,-0.00052030,-0.00064558,-0.00349847,0
 .00256777,-0.00001608,0.06170228,0.00023674,0.00026533,-0.00007949,-0.
 00193877,0.00014428,0.00054024,0.00098499,-0.01024637,-0.01012056,-0.0
 1298029,-0.23795710,-0.13868625,0.00189333,-0.00447314,-0.00552945,-0.
 00040519,0.00507861,-0.00459418,0.00074981,-0.00041461,0.00050275,-0.0
 0037809,-0.00029047,0.00076106,-0.00008897,0.00014842,-0.00003159,0.00
 008903,0.00020619,-0.00000010,0.00022694,0.00025858,-0.00044085,-0.000
 39168,0.00000180,0.00014153,-0.00042935,0.00106441,-0.00188723,-0.0000
 3987,0.00026664,0.00099300,0.00077735,0.00043413,0.00012774,0.00201840
 ,-0.00071933,0.00080025,0.01096825,0.24767052,0.00003004,0.00005568,-0
 .00011949,-0.00074229,-0.00092616,0.00076322,0.00005056,-0.00125760,0.
 00049840,-0.01634641,-0.13844537,-0.13035323,0.00000973,-0.01149331,-0
 .00240831,-0.00307392,-0.00355214,0.00737546,-0.00014825,0.00061966,-0
 .00037738,0.00044077,0.00028566,-0.00109987,0.00013324,-0.00024188,0.0
 0011304,-0.00018350,-0.00025301,0.00008624,-0.00036584,-0.00022172,0.0
 0056039,0.00071519,0.00010950,-0.00002154,0.00049205,-0.00103005,0.001
 03742,-0.00001765,-0.00012338,-0.00026756,0.00030161,0.00020249,0.0000
 8709,0.00045014,-0.00051048,0.00005665,0.01683136,0.15356531,0.1289584
 1,-0.00017334,-0.00025699,0.00023150,0.00013951,0.00099499,-0.00020008
 ,-0.00230211,-0.00074859,-0.00425148,-0.02309831,0.01940111,0.00443458
 ,-0.20414806,0.13444326,0.03488582,0.00644304,-0.00823840,-0.00406703,
 0.00004772,-0.00134724,-0.00092616,0.00018114,-0.00040704,0.00017552,-
 0.00005630,0.00003187,0.00001859,0.00006101,0.00002044,-0.00000878,0.0
 0005165,-0.00016658,0.00006095,0.00004495,0.00017155,-0.00017490,-0.00
 053871,-0.00054248,0.00072483,0.00006349,0.00012469,-0.00043560,-0.000
 06632,-0.00005834,-0.00003621,0.00053881,-0.00029280,0.00004244,0.0002
 4517,-0.00120621,0.00163689,0.22150334,0.00011246,0.00009465,-0.000036
 99,0.00049271,-0.00011606,-0.00011874,-0.00138139,0.00426058,-0.004454
 38,-0.00666658,0.00563047,-0.00075676,0.13515303,-0.16245881,-0.039038
 18,0.01901535,-0.01699806,-0.00674596,-0.00283855,-0.00221696,-0.00313
 194,0.00019636,-0.00035157,0.00017953,-0.00021995,-0.00006548,0.000206
 53,0.00020981,0.00008053,0.00020771,0.00022860,-0.00005356,-0.00004150
 ,0.00015587,0.00033921,-0.00031585,-0.00118144,-0.00048589,0.00060341,
 0.00008582,0.00017249,-0.00029781,-0.00002270,0.00008243,-0.00003207,0
 .00024800,-0.00036943,-0.00000504,-0.00164313,-0.00094492,0.00341787,-
 0.14181910,0.17298123,-0.00041388,-0.00049634,0.00037572,-0.00044612,0
 .00138987,0.00020740,-0.00381319,-0.00555476,0.00584132,-0.01070273,0.
 00651660,0.00544979,0.03424514,-0.04080652,-0.05322703,0.01221073,-0.0
 1141444,-0.00038616,-0.00163804,-0.00317867,-0.00049268,0.00018897,-0.
 00027020,0.00004780,0.00000151,-0.00004811,0.00019320,0.00008619,-0.00
 003595,-0.00001295,0.00006709,-0.00010529,-0.00007352,-0.00015699,0.00
 002869,0.00014799,0.00144398,-0.00091513,-0.00010643,0.00005178,0.0000
 6451,0.00037342,0.00007214,-0.00019259,0.00004732,-0.00061259,0.000470
 14,0.00006108,0.00106688,0.00415837,-0.00475685,-0.03225477,0.04972428
 ,0.04662522,-0.00006929,-0.00003456,0.00006464,0.00012415,0.00007013,-
 0.00007511,0.00012566,-0.00000563,0.00010067,0.00167083,-0.00112925,-0
 .00106477,-0.00718000,0.00190179,-0.00216215,-0.29616343,0.00355917,-0
 .09154952,-0.01823608,0.00347222,-0.00644964,0.00056644,0.00031772,0.0
 0242884,0.00020567,0.00036021,0.00027181,0.00068704,-0.00021587,-0.000
 79309,0.00169698,0.00037036,-0.00210315,-0.00020483,0.00034698,0.00013
 666,0.00028934,0.00009659,0.00010600,-0.00009481,-0.00009547,-0.000139
 20,-0.00001401,0.00000377,0.00000580,0.00009911,0.00005933,-0.00001131
 ,-0.00040607,-0.00007319,-0.00010293,0.00102065,-0.00029674,0.00051247
 ,0.31583598,-0.00004632,-0.00003070,0.00006946,0.00005911,0.00012499,-
 0.00005982,0.00013750,-0.00004013,-0.00004777,0.00042372,-0.00329418,-
 0.00293177,-0.02580748,0.00048938,-0.00986248,0.00490157,-0.04968641,-
 0.00475632,0.02898147,-0.00176263,0.00886920,-0.00285547,0.00119521,0.
 00211302,-0.00031962,0.00005857,-0.00000544,0.00020646,-0.00099937,0.0
 0087839,0.00425731,-0.00014097,-0.00497298,-0.00033569,0.00057426,-0.0
 0056281,-0.00006776,-0.00038289,0.00013890,0.00004624,0.00016060,0.000
 02808,0.00002133,0.00000726,0.00002781,0.00000944,-0.00006422,0.000075
 92,-0.00100124,-0.00039565,-0.00040159,-0.00009642,0.00048305,0.000706
 60,-0.00867913,0.05448421,-0.00001710,-0.00002584,0.00003628,0.0000443
 7,0.00005359,-0.00001168,0.00005433,0.00026237,-0.00011166,0.00003496,
 -0.00314960,-0.00012764,-0.01523686,-0.00086598,-0.00260420,-0.0892122
 5,-0.00437707,-0.07130197,0.00422422,-0.00021396,0.00452555,0.00287709
 ,0.00048690,-0.00578659,-0.00021513,-0.00048892,-0.00034927,-0.0008773
 1,0.00139739,0.00096877,-0.00153167,-0.00418136,0.00913818,0.00088180,
 -0.00098373,0.00019591,-0.00049724,-0.00057446,-0.00003094,0.00013340,
 0.00020649,0.00013338,0.00004031,-0.00001292,0.00002042,-0.00022375,-0
 .00004987,-0.00006106,-0.00064332,-0.00016571,-0.00017666,0.00014082,0
 .00070883,-0.00026589,0.10054061,0.01078991,0.06577344,0.00006163,0.00
 001696,-0.00005812,-0.00007041,-0.00010414,-0.00011241,-0.00009791,-0.
 00017968,0.00032276,-0.00025810,0.00055834,0.00003040,-0.00038022,-0.0
 0077271,0.00104665,0.00056104,0.00021618,0.00055883,0.00562306,0.00627
 407,-0.00839322,-0.15127417,-0.11891850,0.08762989,-0.00348844,-0.0061
 8472,0.00026475,-0.00154317,-0.00266985,-0.00043472,-0.00879038,-0.010
 13118,0.01337798,0.00144347,0.00092146,0.00148647,0.00017572,-0.000788
 65,-0.00023551,-0.00004629,0.00013731,0.00008706,-0.00004842,-0.000033
 39,-0.00002074,0.00009648,0.00018712,-0.00019779,0.00010118,0.00003471
 ,-0.00012594,0.00003626,0.00013892,0.00006202,0.00006327,0.00027992,-0
 .00065957,0.15935638,-0.00006915,-0.00001808,0.00007096,0.00014231,0.0
 0006765,-0.00017804,-0.00009908,0.00001062,-0.00012873,0.00008201,-0.0
 0017595,0.00012718,0.00030799,0.00046730,-0.00136488,-0.00089031,0.001
 96924,0.00015413,-0.01625044,-0.01573700,0.00928983,-0.12359884,-0.162
 74658,0.08305620,0.00622810,0.00770083,-0.00225946,0.00141540,-0.00045
 798,-0.00170742,0.00226716,-0.00199234,-0.00187410,-0.00062400,0.00079
 795,-0.00040441,0.00010107,-0.00037406,0.00015686,0.00004642,0.0000755
 5,0.00002407,-0.00002033,-0.00004645,0.00003191,0.00011836,-0.00004700
 ,-0.00005130,-0.00007563,-0.00009862,0.00014374,-0.00001405,-0.0001329
 4,-0.00007399,0.00006967,-0.00079253,0.00105809,0.12987957,0.17196511,
 -0.00001764,0.00001185,0.00002681,0.00010020,-0.00002969,-0.00025070,-
 0.00023030,-0.00031938,0.00007037,-0.00025250,0.00031854,0.00008252,0.
 00004802,-0.00014477,0.00012910,-0.00036580,0.00079616,0.00053655,-0.0
 0257823,-0.00427431,-0.00234911,0.09152418,0.08841291,-0.10351387,0.00
 854451,0.01516015,-0.00209551,0.00393570,-0.00220845,-0.00541669,-0.00
 836901,-0.01156403,0.00874813,0.00072553,0.00095017,0.00226393,0.00014
 736,-0.00061489,-0.00001779,0.00000883,0.00012463,0.00001169,-0.000072
 15,-0.00006497,-0.00000585,0.00022632,0.00016164,-0.00026456,0.0000363
 6,-0.00004476,0.00000341,0.00002129,0.00002689,0.00001467,0.00015814,0
 .00005279,0.00010875,-0.09455055,-0.08632002,0.10086347,0.00002397,0.0
 0000159,-0.00002877,-0.00005084,-0.00003976,-0.00000124,0.00010905,-0.
 00000993,0.00007306,-0.00008178,0.00015185,0.00008402,0.00004312,-0.00
 000575,-0.00011975,0.00056531,0.00059121,0.00042137,-0.00141597,-0.002
 12192,-0.00118697,0.00585028,0.00585456,0.01085845,-0.06944105,-0.0220
 5969,-0.04758327,0.00627338,-0.00475374,-0.01623248,0.00176654,-0.0036
 9498,0.00035576,0.00034874,0.00065162,-0.00076007,0.00025229,-0.000049
 21,0.00008967,-0.00002222,0.00010984,0.00005921,-0.00000891,-0.0000011
 3,0.00000379,0.00002004,0.00010480,0.00003539,0.00001822,-0.00002287,0
 .00001361,0.00000472,0.00003287,0.00001600,0.00001354,-0.00015244,0.00
 014742,0.00011042,-0.00016740,0.00074810,0.05552095,-0.00003504,0.0000
 1139,0.00007157,0.00006751,0.00001168,-0.00001115,-0.00003026,-0.00018
 004,-0.00005482,-0.00009055,0.00005377,0.00002462,0.00011648,-0.000080
 10,-0.00003459,-0.00066040,-0.00053076,-0.00030147,0.00198774,0.001335
 50,0.00258923,-0.00157762,-0.00060156,0.00188635,-0.01897078,-0.070916
 84,-0.09688963,0.00268885,0.00071054,-0.01468481,-0.00927532,0.0094159
 2,-0.00275572,-0.00003539,-0.00140125,-0.00188912,0.00056594,0.0008822
 5,-0.00030649,-0.00032758,-0.00042440,-0.00017198,0.00000584,0.0000327
 3,0.00000042,-0.00004764,-0.00009534,-0.00007246,0.00002090,0.00001770
 ,-0.00000899,0.00001190,0.00002630,-0.00001177,-0.00015638,0.00012865,
 0.00009271,-0.00021347,-0.00010088,-0.00044906,0.02515016,0.06412411,-
 0.00008088,-0.00003947,0.00006245,0.00014435,0.00008299,-0.00006625,-0
 .00005709,0.00008879,-0.00001084,0.00007031,-0.00011496,-0.00004069,-0
 .00010639,0.00001193,0.00009454,0.00007553,0.00001179,-0.00008697,-0.0
 0088234,0.00047408,-0.00068718,-0.00611068,-0.00155474,-0.00496988,-0.
 05245145,-0.10566965,-0.29956311,0.00564835,0.00056648,-0.00089280,0.0
 0069475,-0.00527199,-0.00412247,0.00023366,-0.00108603,0.00162265,-0.0
 0008468,0.00018123,-0.00022078,-0.00009014,-0.00017136,-0.00020135,-0.
 00001128,-0.00000438,0.00000320,0.00001781,0.00003465,-0.00000099,-0.0
 0001388,-0.00000054,-0.00000609,-0.00000230,-0.00004513,-0.00001493,0.
 00015740,0.00002012,-0.00021725,0.00015958,-0.00006504,-0.00040538,0.0
 5342319,0.11137837,0.30994237,-0.00002883,-0.00003801,-0.00007059,-0.0
 0003940,-0.00000543,-0.00000682,0.00010410,0.00013584,0.00027253,-0.00
 008841,0.00004768,-0.00007163,0.00007116,-0.00003426,0.00005565,-0.000
 29269,-0.00018196,-0.00014767,0.00127031,-0.00005432,-0.00013951,-0.00
 383858,-0.00704111,0.00117693,-0.00691096,0.00058297,0.01398041,-0.302
 00458,-0.07109014,0.07931819,-0.00089680,-0.00286543,-0.00425190,-0.00
 024657,0.00024581,0.00051219,0.00001731,-0.00037017,0.00000609,0.00005
 856,0.00014689,0.00006160,-0.00000680,-0.00002636,-0.00000237,-0.00009
 172,0.00012876,0.00009365,0.00002840,-0.00002507,0.00000152,0.00000168
 ,-0.00000020,0.00001341,-0.00003015,0.00003749,-0.00000514,-0.00163139
 ,0.00115118,0.00021162,0.00010021,0.00080512,-0.00073382,0.31445515,-0
 .00004302,0.00010545,0.00010445,0.00010490,0.00006975,-0.00002028,0.00
 000308,-0.00007630,-0.00021099,0.00004550,-0.00008951,0.00003963,-0.00
 018421,0.00018727,-0.00011034,0.00102972,0.00065231,0.00055197,-0.0039
 4696,-0.00162628,-0.00052159,-0.00348607,0.01237949,-0.00094033,-0.003
 94795,0.00398543,0.00304104,-0.07707555,-0.06247306,0.00937898,0.00694
 141,0.00124320,0.00118120,-0.00000231,0.00025358,-0.00051056,0.0002227
 1,0.00040302,0.00014825,-0.00001556,-0.00005542,0.00010544,0.00000845,
 -0.00000055,0.00003814,0.00008191,-0.00004773,-0.00002193,-0.00002156,
 -0.00001641,0.00006575,-0.00000556,0.00004274,0.00004470,0.00005830,-0
 .00011651,0.00003314,0.00135171,-0.00033384,0.00001861,0.00043033,-0.0
 0241938,0.00117285,0.07845073,0.04793274,-0.00012450,0.00011970,0.0001
 1489,0.00017236,0.00007380,-0.00014316,-0.00013557,-0.00003634,-0.0003
 4437,0.00017920,-0.00024501,0.00005530,-0.00003199,0.00027040,-0.00025
 986,0.00041784,0.00016258,0.00005051,0.00015992,0.00124843,-0.00068436
 ,0.00240093,-0.00526940,-0.00003508,-0.01236508,-0.00229014,0.00988533
 ,0.08721181,0.01206495,-0.07779637,0.01318245,0.00557926,-0.00027969,-
 0.00005058,0.00020569,0.00045127,-0.00021583,0.00030715,0.00021349,-0.
 00004535,-0.00018084,-0.00015734,0.00004304,-0.00003585,0.00003257,0.0
 0024368,-0.00006604,0.00006474,-0.00006558,-0.00000954,0.00004725,-0.0
 0001592,-0.00005470,-0.00004851,-0.00003217,-0.00016922,0.00014415,-0.
 00023784,0.00031441,0.00146005,-0.00041650,0.00159880,-0.00021824,-0.0
 9027434,-0.01358811,0.06744742\\-0.00000526,-0.00000684,0.00000717,0.0
 0001309,0.00001160,-0.00000245,-0.00000024,0.00001333,-0.00000389,-0.0
 0001052,-0.00003397,-0.00001555,0.00001472,0.00001329,0.00001169,-0.00
 005771,-0.00000735,-0.00002944,0.00011726,-0.00000927,0.00007643,0.000
 00967,-0.00002874,-0.00007674,-0.00002802,0.00001068,0.00005551,0.0000
 2820,-0.00002893,-0.00005952,-0.00010569,0.00006238,-0.00001359,0.0000
 0909,-0.00000676,0.00002656,-0.00001072,-0.00000085,0.00000535,0.00000
 314,0.00000094,-0.00000556,-0.00000217,-0.00000083,-0.00000091,0.00001
 040,0.00000348,-0.00000127,0.00000631,0.00000127,0.00000354,0.00000240
 ,-0.00000144,0.00000719,0.00000612,-0.00000560,0.00000373,0.00000014,0
 .00000672,0.00000334,0.00000012,0.00000246,0.00000261,-0.00000033,0.00
 000444,0.00000578\\\@


 I FIND THAT THE THREE TRULY GREAT TIMES FOR THINKING THOUGHTS
 ARE WHEN I AM STANDING IN THE SHOWER, SITTING ON THE JOHN, OR WALKING.

                                    -- COLIN FLETCHER
 Job cpu time:       0 days  5 hours 41 minutes  3.4 seconds.
 Elapsed time:       0 days  1 hours 25 minutes 16.9 seconds.
 File lengths (MBytes):  RWF=    373 Int=      0 D2E=      0 Chk=     17 Scr=      1
 Normal termination of Gaussian 16 at Sat May 20 06:23:23 2023.
### All Done ###
