### Starting Gaussian ###
 Entering Gaussian System, Link 0=g16
 Initial command:
 /cluster/software/gaussian/gaussian-16-A.03/avx2/g16/l1.exe "/local/scratch/ks29c/Gau-21676.inp" -scrdir="/local/scratch/ks29c/"
 Entering Link 1 = /cluster/software/gaussian/gaussian-16-A.03/avx2/g16/l1.exe PID=     21680.
  
 Copyright (c) 1988,1990,1992,1993,1995,1998,2003,2009,2016,
            Gaussian, Inc.  All Rights Reserved.
  
 This is part of the Gaussian(R) 16 program.  It is based on
 the Gaussian(R) 09 system (copyright 2009, Gaussian, Inc.),
 the Gaussian(R) 03 system (copyright 2003, Gaussian, Inc.),
 the Gaussian(R) 98 system (copyright 1998, Gaussian, Inc.),
 the Gaussian(R) 94 system (copyright 1995, Gaussian, Inc.),
 the Gaussian 92(TM) system (copyright 1992, Gaussian, Inc.),
 the Gaussian 90(TM) system (copyright 1990, Gaussian, Inc.),
 the Gaussian 88(TM) system (copyright 1988, Gaussian, Inc.),
 the Gaussian 86(TM) system (copyright 1986, Carnegie Mellon
 University), and the Gaussian 82(TM) system (copyright 1983,
 Carnegie Mellon University). Gaussian is a federally registered
 trademark of Gaussian, Inc.
  
 This software contains proprietary and confidential information,
 including trade secrets, belonging to Gaussian, Inc.
  
 This software is provided under written license and may be
 used, copied, transmitted, or stored only in accord with that
 written license.
  
 The following legend is applicable only to US Government
 contracts under FAR:
  
                    RESTRICTED RIGHTS LEGEND
  
 Use, reproduction and disclosure by the US Government is
 subject to restrictions as set forth in subparagraphs (a)
 and (c) of the Commercial Computer Software - Restricted
 Rights clause in FAR 52.227-19.
  
 Gaussian, Inc.
 340 Quinnipiac St., Bldg. 40, Wallingford CT 06492
  
  
 ---------------------------------------------------------------
 Warning -- This program may not be used in any manner that
 competes with the business of Gaussian, Inc. or will provide
 assistance to any competitor of Gaussian, Inc.  The licensee
 of this program is prohibited from giving any competitor of
 Gaussian, Inc. access to this program.  By using this program,
 the user acknowledges that Gaussian, Inc. is engaged in the
 business of creating and licensing software in the field of
 computational chemistry and represents and warrants to the
 licensee that it is not a competitor of Gaussian, Inc. and that
 it will not use this program in any manner prohibited above.
 ---------------------------------------------------------------
  

 Cite this work as:
 Gaussian 16, Revision A.03,
 M. J. Frisch, G. W. Trucks, H. B. Schlegel, G. E. Scuseria, 
 M. A. Robb, J. R. Cheeseman, G. Scalmani, V. Barone, 
 G. A. Petersson, H. Nakatsuji, X. Li, M. Caricato, A. V. Marenich, 
 J. Bloino, B. G. Janesko, R. Gomperts, B. Mennucci, H. P. Hratchian, 
 J. V. Ortiz, A. F. Izmaylov, J. L. Sonnenberg, D. Williams-Young, 
 F. Ding, F. Lipparini, F. Egidi, J. Goings, B. Peng, A. Petrone, 
 T. Henderson, D. Ranasinghe, V. G. Zakrzewski, J. Gao, N. Rega, 
 G. Zheng, W. Liang, M. Hada, M. Ehara, K. Toyota, R. Fukuda, 
 J. Hasegawa, M. Ishida, T. Nakajima, Y. Honda, O. Kitao, H. Nakai, 
 T. Vreven, K. Throssell, J. A. Montgomery, Jr., J. E. Peralta, 
 F. Ogliaro, M. J. Bearpark, J. J. Heyd, E. N. Brothers, K. N. Kudin, 
 V. N. Staroverov, T. A. Keith, R. Kobayashi, J. Normand, 
 K. Raghavachari, A. P. Rendell, J. C. Burant, S. S. Iyengar, 
 J. Tomasi, M. Cossi, J. M. Millam, M. Klene, C. Adamo, R. Cammi, 
 J. W. Ochterski, R. L. Martin, K. Morokuma, O. Farkas, 
 J. B. Foresman, and D. J. Fox, Gaussian, Inc., Wallingford CT, 2016.
 
 ******************************************
 Gaussian 16:  ES64L-G16RevA.03 25-Dec-2016
                16-May-2023 
 ******************************************
 %chk=SdCC1dNNNSC2dCCdCSC2dCCdCS1.chk
 %NProcShared=20
 Will use up to   20 processors via shared memory.
 -----------------------------
 # opt freq b3lyp/6-31g(2df,p)
 -----------------------------
 1/18=20,19=15,26=3,38=1/1,3;
 2/9=110,12=2,17=6,18=5,40=1/2;
 3/5=1,6=6,7=104,11=2,25=1,30=1,71=1,74=-5/1,2,3;
 4//1;
 5/5=2,38=5/2;
 6/7=2,8=2,9=2,10=2,28=1/1;
 7//1,2,3,16;
 1/18=20,19=15,26=3/3(2);
 2/9=110/2;
 99//99;
 2/9=110/2;
 3/5=1,6=6,7=104,11=2,25=1,30=1,71=1,74=-5/1,2,3;
 4/5=5,16=3,69=1/1;
 5/5=2,38=5/2;
 7//1,2,3,16;
 1/18=20,19=15,26=3/3(-5);
 2/9=110/2;
 6/7=2,8=2,9=2,10=2,19=2,28=1/1;
 99/9=1/99;
 -------------------
 Title Card Required
 -------------------
 Symbolic Z-matrix:
 Charge =  0 Multiplicity = 1
 S                     2.02909  -1.29612   0.40797 
 C                     3.61841  -1.41421  -0.18947 
 C                     4.85579  -1.93228   0.65719 
 N                     5.18856  -0.90827   1.37509 
 N                     5.6943   -1.16013   2.54583 
 N                     7.06604  -1.28635   2.44777 
 S                     7.54941  -1.75894   3.94604 
 C                     9.22555  -2.10134   3.61744 
 C                     10.05614  -1.08682   4.015 
 C                     11.45686  -1.17247   3.9303 
 C                     12.12982  -2.1922    3.37235 
 S                     11.3804  -3.52681   2.52502 
 C                     9.70562  -3.28198   2.92769 
 C                     8.65558  -4.06539   2.47439 
 C                     8.35119  -4.78047   1.32218 
 C                     7.07727  -4.75534   0.75027 
 S                     5.34164  -3.76034   0.79447 
 H                     3.86004  -0.57557  -0.88627 
 H                     5.2718   -1.98559   2.98189 
 H                     7.45986  -0.39845   2.12799 
 H                     9.59764  -0.21601   4.45198 
 H                     11.98255  -0.3414    4.39464 
 H                     13.21541  -2.16325   3.42007 
 H                     7.74944  -4.02835   3.0379 
 H                     9.1133   -5.57707   1.14073 
 H                     6.90661  -5.78709   0.39904 
 

 GradGradGradGradGradGradGradGradGradGradGradGradGradGradGradGradGradGrad
 Berny optimization.
 Initialization pass.
                           ----------------------------
                           !    Initial Parameters    !
                           ! (Angstroms and Degrees)  !
 --------------------------                            --------------------------
 ! Name  Definition              Value          Derivative Info.                !
 --------------------------------------------------------------------------------
 ! R1    R(1,2)                  1.702          estimate D2E/DX2                !
 ! R2    R(2,3)                  1.5863         estimate D2E/DX2                !
 ! R3    R(2,18)                 1.1168         estimate D2E/DX2                !
 ! R4    R(3,4)                  1.2941         estimate D2E/DX2                !
 ! R5    R(3,17)                 1.8965         estimate D2E/DX2                !
 ! R6    R(4,5)                  1.2999         estimate D2E/DX2                !
 ! R7    R(5,6)                  1.381          estimate D2E/DX2                !
 ! R8    R(5,19)                 1.0247         estimate D2E/DX2                !
 ! R9    R(6,7)                  1.6437         estimate D2E/DX2                !
 ! R10   R(6,20)                 1.0226         estimate D2E/DX2                !
 ! R11   R(7,8)                  1.742          estimate D2E/DX2                !
 ! R12   R(8,9)                  1.3701         estimate D2E/DX2                !
 ! R13   R(8,13)                 1.4492         estimate D2E/DX2                !
 ! R14   R(9,10)                 1.4059         estimate D2E/DX2                !
 ! R15   R(9,21)                 1.0768         estimate D2E/DX2                !
 ! R16   R(10,11)                1.3431         estimate D2E/DX2                !
 ! R17   R(10,22)                1.0875         estimate D2E/DX2                !
 ! R18   R(11,12)                1.7495         estimate D2E/DX2                !
 ! R19   R(11,23)                1.087          estimate D2E/DX2                !
 ! R20   R(12,13)                1.7398         estimate D2E/DX2                !
 ! R21   R(13,14)                1.3863         estimate D2E/DX2                !
 ! R22   R(14,15)                1.3898         estimate D2E/DX2                !
 ! R23   R(14,24)                1.0677         estimate D2E/DX2                !
 ! R24   R(15,16)                1.3966         estimate D2E/DX2                !
 ! R25   R(15,25)                1.1173         estimate D2E/DX2                !
 ! R26   R(16,17)                2.0011         estimate D2E/DX2                !
 ! R27   R(16,26)                1.1032         estimate D2E/DX2                !
 ! A1    A(1,2,3)              124.3125         estimate D2E/DX2                !
 ! A2    A(1,2,18)             111.6506         estimate D2E/DX2                !
 ! A3    A(3,2,18)             114.1728         estimate D2E/DX2                !
 ! A4    A(2,3,4)              103.7828         estimate D2E/DX2                !
 ! A5    A(2,3,17)             123.5919         estimate D2E/DX2                !
 ! A6    A(4,3,17)             131.0488         estimate D2E/DX2                !
 ! A7    A(3,4,5)              116.5092         estimate D2E/DX2                !
 ! A8    A(4,5,6)              109.8887         estimate D2E/DX2                !
 ! A9    A(4,5,19)             112.2664         estimate D2E/DX2                !
 ! A10   A(6,5,19)             111.4772         estimate D2E/DX2                !
 ! A11   A(5,6,7)              104.6936         estimate D2E/DX2                !
 ! A12   A(5,6,20)             108.9882         estimate D2E/DX2                !
 ! A13   A(7,6,20)             114.9249         estimate D2E/DX2                !
 ! A14   A(6,7,8)               99.6437         estimate D2E/DX2                !
 ! A15   A(7,8,9)              112.5208         estimate D2E/DX2                !
 ! A16   A(7,8,13)             124.6561         estimate D2E/DX2                !
 ! A17   A(9,8,13)             122.7204         estimate D2E/DX2                !
 ! A18   A(8,9,10)             122.7791         estimate D2E/DX2                !
 ! A19   A(8,9,21)             117.2869         estimate D2E/DX2                !
 ! A20   A(10,9,21)            119.8646         estimate D2E/DX2                !
 ! A21   A(9,10,11)            124.7831         estimate D2E/DX2                !
 ! A22   A(9,10,22)            114.1632         estimate D2E/DX2                !
 ! A23   A(11,10,22)           121.0221         estimate D2E/DX2                !
 ! A24   A(10,11,12)           124.4531         estimate D2E/DX2                !
 ! A25   A(10,11,23)           117.5109         estimate D2E/DX2                !
 ! A26   A(12,11,23)           117.9936         estimate D2E/DX2                !
 ! A27   A(11,12,13)           101.1223         estimate D2E/DX2                !
 ! A28   A(8,13,12)            122.935          estimate D2E/DX2                !
 ! A29   A(8,13,14)            111.4142         estimate D2E/DX2                !
 ! A30   A(12,13,14)           125.0246         estimate D2E/DX2                !
 ! A31   A(13,14,15)           136.6971         estimate D2E/DX2                !
 ! A32   A(13,14,24)           116.7852         estimate D2E/DX2                !
 ! A33   A(15,14,24)           105.6358         estimate D2E/DX2                !
 ! A34   A(14,15,16)           122.0054         estimate D2E/DX2                !
 ! A35   A(14,15,25)           110.615          estimate D2E/DX2                !
 ! A36   A(16,15,25)           124.6462         estimate D2E/DX2                !
 ! A37   A(15,16,17)           142.2822         estimate D2E/DX2                !
 ! A38   A(15,16,26)           104.753          estimate D2E/DX2                !
 ! A39   A(17,16,26)           109.7484         estimate D2E/DX2                !
 ! A40   A(3,17,16)            134.4176         estimate D2E/DX2                !
 ! D1    D(1,2,3,4)            -79.6727         estimate D2E/DX2                !
 ! D2    D(1,2,3,17)            87.4016         estimate D2E/DX2                !
 ! D3    D(18,2,3,4)            63.0711         estimate D2E/DX2                !
 ! D4    D(18,2,3,17)         -129.8546         estimate D2E/DX2                !
 ! D5    D(2,3,4,5)            148.5095         estimate D2E/DX2                !
 ! D6    D(17,3,4,5)           -17.186          estimate D2E/DX2                !
 ! D7    D(2,3,17,16)          137.6818         estimate D2E/DX2                !
 ! D8    D(4,3,17,16)          -59.0605         estimate D2E/DX2                !
 ! D9    D(3,4,5,6)             89.4458         estimate D2E/DX2                !
 ! D10   D(3,4,5,19)           -35.2244         estimate D2E/DX2                !
 ! D11   D(4,5,6,7)           -174.0757         estimate D2E/DX2                !
 ! D12   D(4,5,6,20)            62.4899         estimate D2E/DX2                !
 ! D13   D(19,5,6,7)           -48.9513         estimate D2E/DX2                !
 ! D14   D(19,5,6,20)         -172.3856         estimate D2E/DX2                !
 ! D15   D(5,6,7,8)            172.1007         estimate D2E/DX2                !
 ! D16   D(20,6,7,8)           -68.3757         estimate D2E/DX2                !
 ! D17   D(6,7,8,9)            100.4838         estimate D2E/DX2                !
 ! D18   D(6,7,8,13)           -75.908          estimate D2E/DX2                !
 ! D19   D(7,8,9,10)           175.8494         estimate D2E/DX2                !
 ! D20   D(7,8,9,21)            -1.1145         estimate D2E/DX2                !
 ! D21   D(13,8,9,10)           -7.6782         estimate D2E/DX2                !
 ! D22   D(13,8,9,21)          175.3578         estimate D2E/DX2                !
 ! D23   D(7,8,13,12)          175.6116         estimate D2E/DX2                !
 ! D24   D(7,8,13,14)            4.2751         estimate D2E/DX2                !
 ! D25   D(9,8,13,12)           -0.4262         estimate D2E/DX2                !
 ! D26   D(9,8,13,14)         -171.7627         estimate D2E/DX2                !
 ! D27   D(8,9,10,11)            5.0759         estimate D2E/DX2                !
 ! D28   D(8,9,10,22)         -172.8898         estimate D2E/DX2                !
 ! D29   D(21,9,10,11)        -178.0356         estimate D2E/DX2                !
 ! D30   D(21,9,10,22)           3.9987         estimate D2E/DX2                !
 ! D31   D(9,10,11,12)           5.7304         estimate D2E/DX2                !
 ! D32   D(9,10,11,23)        -176.6905         estimate D2E/DX2                !
 ! D33   D(22,10,11,12)       -176.4355         estimate D2E/DX2                !
 ! D34   D(22,10,11,23)          1.1436         estimate D2E/DX2                !
 ! D35   D(10,11,12,13)        -10.933          estimate D2E/DX2                !
 ! D36   D(23,11,12,13)        171.4986         estimate D2E/DX2                !
 ! D37   D(11,12,13,8)           8.2595         estimate D2E/DX2                !
 ! D38   D(11,12,13,14)        178.3994         estimate D2E/DX2                !
 ! D39   D(8,13,14,15)         138.1344         estimate D2E/DX2                !
 ! D40   D(8,13,14,24)         -29.2464         estimate D2E/DX2                !
 ! D41   D(12,13,14,15)        -32.9849         estimate D2E/DX2                !
 ! D42   D(12,13,14,24)        159.6344         estimate D2E/DX2                !
 ! D43   D(13,14,15,16)       -137.5178         estimate D2E/DX2                !
 ! D44   D(13,14,15,25)         60.4214         estimate D2E/DX2                !
 ! D45   D(24,14,15,16)         30.7976         estimate D2E/DX2                !
 ! D46   D(24,14,15,25)       -131.2632         estimate D2E/DX2                !
 ! D47   D(14,15,16,17)         13.9741         estimate D2E/DX2                !
 ! D48   D(14,15,16,26)       -141.7586         estimate D2E/DX2                !
 ! D49   D(25,15,16,17)        173.4609         estimate D2E/DX2                !
 ! D50   D(25,15,16,26)         17.7283         estimate D2E/DX2                !
 ! D51   D(15,16,17,3)          51.3397         estimate D2E/DX2                !
 ! D52   D(26,16,17,3)        -153.639          estimate D2E/DX2                !
 --------------------------------------------------------------------------------
 Trust Radius=3.00D-01 FncErr=1.00D-07 GrdErr=1.00D-06 EigMax=2.50D+02 EigMin=1.00D-04
 Number of steps in this run=    129 maximum allowed number of steps=    156.
 GradGradGradGradGradGradGradGradGradGradGradGradGradGradGradGradGradGrad

                          Input orientation:                          
 ---------------------------------------------------------------------
 Center     Atomic      Atomic             Coordinates (Angstroms)
 Number     Number       Type             X           Y           Z
 ---------------------------------------------------------------------
      1         16           0        2.029090   -1.296120    0.407970
      2          6           0        3.618410   -1.414210   -0.189470
      3          6           0        4.855790   -1.932280    0.657190
      4          7           0        5.188560   -0.908270    1.375090
      5          7           0        5.694300   -1.160130    2.545830
      6          7           0        7.066040   -1.286350    2.447770
      7         16           0        7.549410   -1.758940    3.946040
      8          6           0        9.225550   -2.101340    3.617440
      9          6           0       10.056140   -1.086820    4.015000
     10          6           0       11.456860   -1.172470    3.930300
     11          6           0       12.129820   -2.192200    3.372350
     12         16           0       11.380400   -3.526810    2.525020
     13          6           0        9.705620   -3.281980    2.927690
     14          6           0        8.655580   -4.065390    2.474390
     15          6           0        8.351190   -4.780470    1.322180
     16          6           0        7.077270   -4.755340    0.750270
     17         16           0        5.341640   -3.760340    0.794470
     18          1           0        3.860040   -0.575570   -0.886270
     19          1           0        5.271800   -1.985590    2.981890
     20          1           0        7.459860   -0.398450    2.127990
     21          1           0        9.597640   -0.216010    4.451980
     22          1           0       11.982550   -0.341400    4.394640
     23          1           0       13.215410   -2.163250    3.420070
     24          1           0        7.749440   -4.028350    3.037900
     25          1           0        9.113300   -5.577070    1.140730
     26          1           0        6.906610   -5.787090    0.399040
 ---------------------------------------------------------------------
                    Distance matrix (angstroms):
                    1          2          3          4          5
     1  S    0.000000
     2  C    1.702004   0.000000
     3  C    2.908100   1.586297   0.000000
     4  N    3.326860   2.273586   1.294107   0.000000
     5  N    4.245315   3.443217   2.205964   1.299938   0.000000
     6  N    5.434312   4.342526   2.916952   2.195112   1.381021
     7  S    6.573133   5.716121   4.254664   3.592636   2.400124
     8  C    7.920739   6.812102   5.280764   4.769574   3.808405
     9  C    8.802727   7.696046   6.247666   5.540247   4.603204
    10  C   10.065036   8.858456   7.407070   6.774252   5.926551
    11  C   10.564812   9.259370   7.768601   7.336117   6.569948
    12  S    9.844027   8.489995   6.971503   6.820409   6.159005
    13  C    8.319960   7.089385   5.522473   5.333751   4.553982
    14  C    7.473240   6.284742   4.721311   4.816232   4.149074
    15  C    7.276361   6.001333   4.557655   4.999896   4.654379
    16  C    6.129233   4.899997   3.593509   4.331001   4.249962
    17  S    4.146655   3.072781   1.896497   2.914594   3.154794
    18  H    2.355128   1.116796   2.283517   2.643748   3.935166
    19  H    4.197094   3.621836   2.362231   1.936325   1.024714
    20  H    5.766935   4.599905   3.361111   2.446544   1.967727
    21  H    8.648908   7.663546   6.311193   5.420928   4.445316
    22  H   10.764590   9.598116   8.203057   7.456361   6.605339
    23  H   11.617160  10.280674   8.807389   8.377782   7.637908
    24  H    6.863237   5.857905   4.293542   4.365540   3.562642
    25  H    8.309603   7.020873   5.625362   6.103786   5.759620
    26  H    6.630165   5.502789   4.374022   5.263768   5.242820
                    6          7          8          9         10
     6  N    0.000000
     7  S    1.643716   0.000000
     8  C    2.587628   1.742028   0.000000
     9  C    3.381822   2.596189   1.370104   0.000000
    10  C    4.635748   3.951248   2.437094   1.405890   0.000000
    11  C    5.226594   4.636485   2.916009   2.436188   1.343143
    12  S    4.862029   4.452095   2.805125   3.150755   2.742914
    13  C    3.343687   2.829475   1.449184   2.474638   2.919264
    14  C    3.201626   2.951115   2.342845   3.634134   4.282036
    15  C    3.889401   4.081315   3.634620   4.878646   5.428180
    16  C    3.862062   4.406163   4.458642   5.743707   6.490790
    17  S    3.439125   4.337308   5.079980   6.304445   7.343461
    18  H    4.679687   6.193790   7.169385   7.916785   9.014838
    19  H    1.998379   2.483639   4.006178   4.976446   6.309961
    20  H    1.022604   2.272500   2.869836   3.282580   4.452352
    21  H    3.401688   2.613782   2.095084   1.076793   2.154916
    22  H    5.371713   4.675831   3.361916   2.100198   1.087492
    23  H    6.287215   5.704706   3.995218   3.390226   2.081941
    24  H    2.886841   2.452540   2.495623   3.863701   4.764178
    25  H    4.930508   4.989352   4.269355   5.414122   5.716159
    26  H    4.947663   5.405589   5.414825   6.714704   7.380331
                   11         12         13         14         15
    11  C    0.000000
    12  S    1.749509   0.000000
    13  C    2.694826   1.739820   0.000000
    14  C    4.047903   2.777999   1.386289   0.000000
    15  C    5.018006   3.492077   2.580236   1.389813   0.000000
    16  C    6.242856   4.814141   3.717549   2.437147   1.396633
    17  S    7.428588   6.286172   4.880961   3.727920   3.221263
    18  H    9.441324   8.769409   7.486104   6.816897   6.536732
    19  H    6.872233   6.316572   4.619775   4.004134   4.477570
    20  H    5.155046   5.031392   3.741350   3.872491   4.543776
    21  H    3.388637   4.225258   3.425681   4.429003   5.673057
    22  H    2.119487   3.742312   3.997920   5.350158   6.506314
    23  H    1.087024   2.455132   3.716533   5.030358   5.908606
    24  H    4.761411   3.701143   2.096629   1.067710   1.967608
    25  H    5.053401   3.355528   2.968418   2.067204   1.117277
    26  H    7.003266   5.444580   4.528146   3.214067   1.988035
                   16         17         18         19         20
    16  C    0.000000
    17  S    2.001097   0.000000
    18  H    5.522618   3.893942   0.000000
    19  H    3.988905   2.817698   4.352457   0.000000
    20  H    4.585518   4.191353   4.698493   2.834743   0.000000
    21  H    6.376554   6.637258   7.845142   4.899538   3.162960
    22  H    7.538307   8.291686   9.691131   7.052190   5.059218
    23  H    7.177989   8.452262  10.420568   7.957670   6.157138
    24  H    2.492705   3.301864   6.515231   3.211652   3.753394
    25  H    2.230049   4.200693   7.531299   5.571869   5.525093
    26  H    1.103175   2.590987   6.171997   4.878024   5.686193
                   21         22         23         24         25
    21  H    0.000000
    22  H    2.388892   0.000000
    23  H    4.236135   2.406007   0.000000
    24  H    4.466475   5.775254   5.788046   0.000000
    25  H    6.319804   6.799468   5.803177   2.803195   0.000000
    26  H    7.396276   8.448996   7.877804   3.281328   2.337454
                   26
    26  H    0.000000
 Stoichiometry    C10H9N3S4
 Framework group  C1[X(C10H9N3S4)]
 Deg. of freedom    72
 Full point group                 C1      NOp   1
 Largest Abelian subgroup         C1      NOp   1
 Largest concise Abelian subgroup C1      NOp   1
                         Standard orientation:                         
 ---------------------------------------------------------------------
 Center     Atomic      Atomic             Coordinates (Angstroms)
 Number     Number       Type             X           Y           Z
 ---------------------------------------------------------------------
      1         16           0        5.669926   -0.583100   -0.082938
      2          6           0        4.374214   -0.056439   -1.052771
      3          6           0        2.877967    0.086204   -0.545584
      4          7           0        2.424974   -1.125626   -0.576853
      5          7           0        1.529636   -1.433534    0.313878
      6          7           0        0.267211   -1.160941   -0.175196
      7         16           0       -0.740283   -1.438051    1.093649
      8          6           0       -2.230731   -0.839770    0.418903
      9          6           0       -3.041649   -1.845765   -0.036695
     10          6           0       -4.331680   -1.612522   -0.544577
     11          6           0       -4.873300   -0.397801   -0.732011
     12         16           0       -4.017549    1.112146   -0.511706
     13          6           0       -2.563208    0.562812    0.269381
     14          6           0       -1.505115    1.376499    0.643745
     15          6           0       -0.900587    2.533260    0.166219
     16          6           0        0.487590    2.682643    0.131107
     17         16           0        2.195091    1.650110    0.281807
     18          1           0        4.468019   -0.426645   -2.102237
     19          1           0        1.694794   -0.963157    1.209147
     20          1           0        0.095639   -1.744584   -0.997172
     21          1           0       -2.674406   -2.854135    0.051667
     22          1           0       -4.898295   -2.517036   -0.753001
     23          1           0       -5.902084   -0.355079   -1.080435
     24          1           0       -0.845007    0.994168    1.390796
     25          1           0       -1.631145    3.378289    0.143457
     26          1           0        0.663769    3.736476    0.405682
 ---------------------------------------------------------------------
 Rotational constants (GHZ):           0.7336418           0.1601751           0.1388326
 Standard basis: 6-31G(2df,p) (6D, 7F)
 There are   588 symmetry adapted cartesian basis functions of A   symmetry.
 There are   537 symmetry adapted basis functions of A   symmetry.
   537 basis functions,   907 primitive gaussians,   588 cartesian basis functions
    77 alpha electrons       77 beta electrons
       nuclear repulsion energy      1608.6382729774 Hartrees.
 NAtoms=   26 NActive=   26 NUniq=   26 SFac= 1.00D+00 NAtFMM=   60 NAOKFM=F Big=F
 Integral buffers will be    131072 words long.
 Raffenetti 2 integral format.
 Two-electron integral symmetry is turned on.
 One-electron integrals computed using PRISM.
 PrsmSu:  requested number of processors reduced to:  12 ShMem   1 Linda.
 NBasis=   537 RedAO= T EigKep=  2.65D-04  NBF=   537
 NBsUse=   537 1.00D-06 EigRej= -1.00D+00 NBFU=   537
 ExpMin= 1.17D-01 ExpMax= 2.19D+04 ExpMxC= 3.30D+03 IAcc=3 IRadAn=         5 AccDes= 0.00D+00
 Harris functional with IExCor=  402 and IRadAn=       5 diagonalized for initial guess.
 HarFok:  IExCor=  402 AccDes= 0.00D+00 IRadAn=         5 IDoV= 1 UseB2=F ITyADJ=14
 ICtDFT=  3500011 ScaDFX=  1.000000  1.000000  1.000000  1.000000
 FoFCou: FMM=F IPFlag=           0 FMFlag=      100000 FMFlg1=           0
         NFxFlg=           0 DoJE=T BraDBF=F KetDBF=T FulRan=T
         wScrn=  0.000000 ICntrl=       500 IOpCl=  0 I1Cent=   200000004 NGrid=           0
         NMat0=    1 NMatS0=      1 NMatT0=    0 NMatD0=    1 NMtDS0=    0 NMtDT0=    0
 Petite list used in FoFCou.
 Requested convergence on RMS density matrix=1.00D-08 within 128 cycles.
 Requested convergence on MAX density matrix=1.00D-06.
 Requested convergence on             energy=1.00D-06.
 No special actions if energy rises.
 Integral accuracy reduced to 1.0D-05 until final iterations.
 Initial convergence to 1.0D-05 achieved.  Increase integral accuracy.
 SCF Done:  E(RB3LYP) =  -2143.14778454     A.U. after   19 cycles
            NFock= 19  Conv=0.49D-08     -V/T= 2.0041

 **********************************************************************

            Population analysis using the SCF density.

 **********************************************************************

 Orbital symmetries:
       Occupied  (A) (A) (A) (A) (A) (A) (A) (A) (A) (A) (A) (A)
                 (A) (A) (A) (A) (A) (A) (A) (A) (A) (A) (A) (A)
                 (A) (A) (A) (A) (A) (A) (A) (A) (A) (A) (A) (A)
                 (A) (A) (A) (A) (A) (A) (A) (A) (A) (A) (A) (A)
                 (A) (A) (A) (A) (A) (A) (A) (A) (A) (A) (A) (A)
                 (A) (A) (A) (A) (A) (A) (A) (A) (A) (A) (A) (A)
                 (A) (A) (A) (A) (A)
       Virtual   (A) (A) (A) (A) (A) (A) (A) (A) (A) (A) (A) (A)
                 (A) (A) (A) (A) (A) (A) (A) (A) (A) (A) (A) (A)
                 (A) (A) (A) (A) (A) (A) (A) (A) (A) (A) (A) (A)
                 (A) (A) (A) (A) (A) (A) (A) (A) (A) (A) (A) (A)
                 (A) (A) (A) (A) (A) (A) (A) (A) (A) (A) (A) (A)
                 (A) (A) (A) (A) (A) (A) (A) (A) (A) (A) (A) (A)
                 (A) (A) (A) (A) (A) (A) (A) (A) (A) (A) (A) (A)
                 (A) (A) (A) (A) (A) (A) (A) (A) (A) (A) (A) (A)
                 (A) (A) (A) (A) (A) (A) (A) (A) (A) (A) (A) (A)
                 (A) (A) (A) (A) (A) (A) (A) (A) (A) (A) (A) (A)
                 (A) (A) (A) (A) (A) (A) (A) (A) (A) (A) (A) (A)
                 (A) (A) (A) (A) (A) (A) (A) (A) (A) (A) (A) (A)
                 (A) (A) (A) (A) (A) (A) (A) (A) (A) (A) (A) (A)
                 (A) (A) (A) (A) (A) (A) (A) (A) (A) (A) (A) (A)
                 (A) (A) (A) (A) (A) (A) (A) (A) (A) (A) (A) (A)
                 (A) (A) (A) (A) (A) (A) (A) (A) (A) (A) (A) (A)
                 (A) (A) (A) (A) (A) (A) (A) (A) (A) (A) (A) (A)
                 (A) (A) (A) (A) (A) (A) (A) (A) (A) (A) (A) (A)
                 (A) (A) (A) (A) (A) (A) (A) (A) (A) (A) (A) (A)
                 (A) (A) (A) (A) (A) (A) (A) (A) (A) (A) (A) (A)
                 (A) (A) (A) (A) (A) (A) (A) (A) (A) (A) (A) (A)
                 (A) (A) (A) (A) (A) (A) (A) (A) (A) (A) (A) (A)
                 (A) (A) (A) (A) (A) (A) (A) (A) (A) (A) (A) (A)
                 (A) (A) (A) (A) (A) (A) (A) (A) (A) (A) (A) (A)
                 (A) (A) (A) (A) (A) (A) (A) (A) (A) (A) (A) (A)
                 (A) (A) (A) (A) (A) (A) (A) (A) (A) (A) (A) (A)
                 (A) (A) (A) (A) (A) (A) (A) (A) (A) (A) (A) (A)
                 (A) (A) (A) (A) (A) (A) (A) (A) (A) (A) (A) (A)
                 (A) (A) (A) (A) (A) (A) (A) (A) (A) (A) (A) (A)
                 (A) (A) (A) (A) (A) (A) (A) (A) (A) (A) (A) (A)
                 (A) (A) (A) (A) (A) (A) (A) (A) (A) (A) (A) (A)
                 (A) (A) (A) (A) (A) (A) (A) (A) (A) (A) (A) (A)
                 (A) (A) (A) (A) (A) (A) (A) (A) (A) (A) (A) (A)
                 (A) (A) (A) (A) (A) (A) (A) (A) (A) (A) (A) (A)
                 (A) (A) (A) (A) (A) (A) (A) (A) (A) (A) (A) (A)
                 (A) (A) (A) (A) (A) (A) (A) (A) (A) (A) (A) (A)
                 (A) (A) (A) (A) (A) (A) (A) (A) (A) (A) (A) (A)
                 (A) (A) (A) (A) (A) (A) (A) (A) (A) (A) (A) (A)
                 (A) (A) (A) (A)
 The electronic state is 1-A.
 Alpha  occ. eigenvalues --  -88.93132 -88.90813 -88.90480 -88.87445 -14.38621
 Alpha  occ. eigenvalues --  -14.37816 -14.36592 -10.29135 -10.28802 -10.24914
 Alpha  occ. eigenvalues --  -10.24751 -10.24070 -10.24062 -10.21656 -10.21539
 Alpha  occ. eigenvalues --  -10.21083 -10.18173  -7.99298  -7.96718  -7.96629
 Alpha  occ. eigenvalues --   -7.93768  -5.95741  -5.95347  -5.94998  -5.93225
 Alpha  occ. eigenvalues --   -5.93221  -5.92807  -5.92778  -5.92315  -5.92064
 Alpha  occ. eigenvalues --   -5.90198  -5.89996  -5.89241  -1.08374  -0.94904
 Alpha  occ. eigenvalues --   -0.89490  -0.83396  -0.82330  -0.80097  -0.78608
 Alpha  occ. eigenvalues --   -0.75431  -0.72702  -0.70465  -0.69102  -0.65052
 Alpha  occ. eigenvalues --   -0.62520  -0.61338  -0.57728  -0.55226  -0.52912
 Alpha  occ. eigenvalues --   -0.52798  -0.50779  -0.48825  -0.48632  -0.46864
 Alpha  occ. eigenvalues --   -0.46317  -0.43818  -0.42915  -0.41945  -0.41216
 Alpha  occ. eigenvalues --   -0.39782  -0.39380  -0.38260  -0.35568  -0.35105
 Alpha  occ. eigenvalues --   -0.34542  -0.33182  -0.31343  -0.30824  -0.30625
 Alpha  occ. eigenvalues --   -0.28734  -0.27901  -0.24432  -0.23161  -0.22792
 Alpha  occ. eigenvalues --   -0.19188  -0.17969
 Alpha virt. eigenvalues --   -0.10615  -0.09204  -0.08362  -0.05022  -0.03589
 Alpha virt. eigenvalues --    0.00487   0.02125   0.03471   0.04977   0.06374
 Alpha virt. eigenvalues --    0.06700   0.07807   0.08579   0.09326   0.10788
 Alpha virt. eigenvalues --    0.11139   0.12371   0.13814   0.14586   0.16330
 Alpha virt. eigenvalues --    0.17042   0.17174   0.17540   0.19658   0.20844
 Alpha virt. eigenvalues --    0.21365   0.22576   0.24251   0.24632   0.26263
 Alpha virt. eigenvalues --    0.26724   0.29232   0.30150   0.30472   0.31145
 Alpha virt. eigenvalues --    0.31525   0.32365   0.32928   0.33433   0.34311
 Alpha virt. eigenvalues --    0.34843   0.35326   0.36007   0.36507   0.36922
 Alpha virt. eigenvalues --    0.37561   0.37915   0.39309   0.39641   0.39728
 Alpha virt. eigenvalues --    0.40074   0.40649   0.41338   0.42666   0.44145
 Alpha virt. eigenvalues --    0.44459   0.45193   0.45719   0.46491   0.47025
 Alpha virt. eigenvalues --    0.47957   0.48841   0.49167   0.50084   0.50504
 Alpha virt. eigenvalues --    0.52265   0.52598   0.53365   0.55005   0.56469
 Alpha virt. eigenvalues --    0.57150   0.58324   0.58478   0.59006   0.60054
 Alpha virt. eigenvalues --    0.61009   0.61564   0.62236   0.62567   0.64212
 Alpha virt. eigenvalues --    0.64862   0.65266   0.66140   0.66775   0.67350
 Alpha virt. eigenvalues --    0.68238   0.69192   0.70376   0.70681   0.71301
 Alpha virt. eigenvalues --    0.71506   0.71702   0.72908   0.73700   0.74906
 Alpha virt. eigenvalues --    0.75126   0.76383   0.77005   0.77140   0.77692
 Alpha virt. eigenvalues --    0.78477   0.78726   0.79878   0.80256   0.80902
 Alpha virt. eigenvalues --    0.81356   0.82239   0.82833   0.83362   0.84713
 Alpha virt. eigenvalues --    0.85048   0.85976   0.86701   0.87219   0.88313
 Alpha virt. eigenvalues --    0.88911   0.89913   0.90283   0.92433   0.94412
 Alpha virt. eigenvalues --    0.95249   0.96866   0.97428   0.98162   0.99837
 Alpha virt. eigenvalues --    1.01463   1.02225   1.02919   1.05281   1.06328
 Alpha virt. eigenvalues --    1.07365   1.08119   1.09533   1.11144   1.12831
 Alpha virt. eigenvalues --    1.15261   1.16165   1.17917   1.18792   1.20062
 Alpha virt. eigenvalues --    1.22014   1.22562   1.23067   1.24793   1.26205
 Alpha virt. eigenvalues --    1.27973   1.29735   1.30256   1.31644   1.33317
 Alpha virt. eigenvalues --    1.33541   1.33905   1.34212   1.36745   1.38505
 Alpha virt. eigenvalues --    1.39712   1.40976   1.41515   1.41962   1.42435
 Alpha virt. eigenvalues --    1.43386   1.44687   1.46639   1.47153   1.48043
 Alpha virt. eigenvalues --    1.49730   1.51110   1.52196   1.53814   1.54097
 Alpha virt. eigenvalues --    1.56012   1.58334   1.58948   1.60063   1.61542
 Alpha virt. eigenvalues --    1.62229   1.63058   1.63721   1.64333   1.65430
 Alpha virt. eigenvalues --    1.66202   1.66278   1.66527   1.67976   1.68269
 Alpha virt. eigenvalues --    1.69265   1.70655   1.71471   1.72567   1.73805
 Alpha virt. eigenvalues --    1.74937   1.76224   1.77761   1.79249   1.79979
 Alpha virt. eigenvalues --    1.80842   1.81276   1.82157   1.83778   1.84760
 Alpha virt. eigenvalues --    1.85152   1.86144   1.87677   1.89383   1.89954
 Alpha virt. eigenvalues --    1.90369   1.91888   1.93965   1.94204   1.95537
 Alpha virt. eigenvalues --    1.96543   1.98430   1.99471   2.01232   2.02965
 Alpha virt. eigenvalues --    2.04439   2.05159   2.05989   2.07762   2.08494
 Alpha virt. eigenvalues --    2.09719   2.11529   2.13944   2.14897   2.15602
 Alpha virt. eigenvalues --    2.16494   2.17942   2.19345   2.20553   2.21786
 Alpha virt. eigenvalues --    2.24383   2.25208   2.25725   2.26484   2.28184
 Alpha virt. eigenvalues --    2.28510   2.29398   2.30649   2.31841   2.32898
 Alpha virt. eigenvalues --    2.34530   2.35766   2.36930   2.37808   2.38192
 Alpha virt. eigenvalues --    2.38591   2.40455   2.41632   2.43363   2.44684
 Alpha virt. eigenvalues --    2.46467   2.48266   2.50334   2.55009   2.56191
 Alpha virt. eigenvalues --    2.57266   2.59813   2.62522   2.63418   2.65669
 Alpha virt. eigenvalues --    2.68832   2.71513   2.72757   2.74436   2.74568
 Alpha virt. eigenvalues --    2.76446   2.76884   2.79312   2.80308   2.82116
 Alpha virt. eigenvalues --    2.83476   2.86072   2.87056   2.88712   2.90164
 Alpha virt. eigenvalues --    2.91288   2.92804   2.95279   2.96835   2.98301
 Alpha virt. eigenvalues --    2.99521   3.00512   3.01049   3.02099   3.03649
 Alpha virt. eigenvalues --    3.04314   3.05382   3.06427   3.08600   3.09534
 Alpha virt. eigenvalues --    3.10741   3.12123   3.12192   3.13358   3.15888
 Alpha virt. eigenvalues --    3.17543   3.17819   3.18788   3.19570   3.20791
 Alpha virt. eigenvalues --    3.21806   3.23280   3.25522   3.26544   3.27910
 Alpha virt. eigenvalues --    3.29312   3.30357   3.30727   3.31187   3.32939
 Alpha virt. eigenvalues --    3.34303   3.35953   3.38271   3.38992   3.40015
 Alpha virt. eigenvalues --    3.41130   3.43918   3.45623   3.46833   3.48123
 Alpha virt. eigenvalues --    3.48827   3.50568   3.51742   3.52183   3.54208
 Alpha virt. eigenvalues --    3.57176   3.59331   3.59898   3.63193   3.64641
 Alpha virt. eigenvalues --    3.66421   3.68049   3.70622   3.71505   3.72483
 Alpha virt. eigenvalues --    3.76135   3.78245   3.80220   3.80910   3.83203
 Alpha virt. eigenvalues --    3.84460   3.85132   3.86494   3.88738   3.90164
 Alpha virt. eigenvalues --    3.91323   3.93059   3.95554   3.97039   3.99476
 Alpha virt. eigenvalues --    4.01069   4.02321   4.02524   4.03896   4.08856
 Alpha virt. eigenvalues --    4.11202   4.12043   4.13151   4.15295   4.15661
 Alpha virt. eigenvalues --    4.18199   4.20418   4.24089   4.26156   4.28653
 Alpha virt. eigenvalues --    4.29394   4.31022   4.31504   4.32612   4.33270
 Alpha virt. eigenvalues --    4.35682   4.37578   4.39563   4.40002   4.41483
 Alpha virt. eigenvalues --    4.42686   4.43459   4.45792   4.47274   4.47567
 Alpha virt. eigenvalues --    4.48051   4.49721   4.50496   4.51428   4.53409
 Alpha virt. eigenvalues --    4.54900   4.55588   4.57084   4.57961   4.58736
 Alpha virt. eigenvalues --    4.59272   4.60034   4.61249   4.62773   4.63051
 Alpha virt. eigenvalues --    4.64054   4.65232   4.66208   4.67103   4.69317
 Alpha virt. eigenvalues --    4.70942   4.71798   4.74236   4.76086   4.78815
 Alpha virt. eigenvalues --    4.80234   4.81069   4.84200   4.84825   4.86635
 Alpha virt. eigenvalues --    4.89018   4.90045   4.95256   4.99856   5.03908
 Alpha virt. eigenvalues --    5.04049   5.07346   5.08936   5.09595   5.11275
 Alpha virt. eigenvalues --    5.12384   5.13620   5.20218   5.21571   5.23799
 Alpha virt. eigenvalues --    5.27534   5.30269   5.35053   5.40100   5.42482
 Alpha virt. eigenvalues --    5.44565   5.48411   5.49391   5.51416   5.53608
 Alpha virt. eigenvalues --    5.55161   5.57043   5.68648   5.70733   5.73110
 Alpha virt. eigenvalues --    5.74586   5.77791   5.89068   6.58664   9.83253
 Alpha virt. eigenvalues --   10.06049  10.19935  10.65606  10.71509  11.01311
 Alpha virt. eigenvalues --   11.22105  11.30110  11.34807  11.40087  11.50374
 Alpha virt. eigenvalues --   11.66566  11.90831  12.40926  14.90301  15.99286
          Condensed to atoms (all electrons):
               1          2          3          4          5          6
     1  S   15.786812   0.488817  -0.037506  -0.008045   0.000083   0.000028
     2  C    0.488817   4.926484   0.350251  -0.043730   0.002904  -0.000166
     3  C   -0.037506   0.350251   4.909716   0.547320  -0.133714   0.019126
     4  N   -0.008045  -0.043730   0.547320   6.401066   0.399901  -0.085003
     5  N    0.000083   0.002904  -0.133714   0.399901   6.522305   0.193803
     6  N    0.000028  -0.000166   0.019126  -0.085003   0.193803   6.661118
     7  S    0.000006  -0.000010  -0.000659   0.004938  -0.044447   0.184863
     8  C    0.000000  -0.000000   0.000049  -0.000081   0.001708  -0.020848
     9  C   -0.000000  -0.000000  -0.000001  -0.000002   0.000019  -0.001259
    10  C   -0.000000   0.000000  -0.000000  -0.000000   0.000001   0.000007
    11  C    0.000000   0.000000   0.000000  -0.000000  -0.000000  -0.000000
    12  S   -0.000000  -0.000000  -0.000000   0.000000   0.000001  -0.000133
    13  C   -0.000000   0.000000  -0.000014  -0.000019   0.000166  -0.001634
    14  C    0.000000   0.000000   0.000087  -0.000027  -0.000438   0.007957
    15  C    0.000000  -0.000001  -0.000310   0.000029   0.000068  -0.001532
    16  C   -0.000005   0.000128  -0.003145  -0.000160   0.000166  -0.000381
    17  S    0.005914  -0.032754   0.268369  -0.057753  -0.001873   0.008019
    18  H   -0.060637   0.356702  -0.033223   0.000234   0.000016   0.000023
    19  H    0.000117   0.000679  -0.012409  -0.057624   0.339304  -0.049086
    20  H    0.000003  -0.000016  -0.001549   0.008458  -0.038831   0.306886
    21  H   -0.000000   0.000000   0.000000   0.000001  -0.000009  -0.000084
    22  H    0.000000  -0.000000  -0.000000   0.000000  -0.000000   0.000000
    23  H   -0.000000   0.000000   0.000000  -0.000000   0.000000   0.000000
    24  H   -0.000000   0.000001  -0.000139  -0.000034   0.000096  -0.005255
    25  H   -0.000000   0.000000  -0.000002  -0.000000   0.000000  -0.000009
    26  H    0.000001  -0.000004   0.000313  -0.000008  -0.000006   0.000033
               7          8          9         10         11         12
     1  S    0.000006   0.000000  -0.000000  -0.000000   0.000000  -0.000000
     2  C   -0.000010  -0.000000  -0.000000   0.000000   0.000000  -0.000000
     3  C   -0.000659   0.000049  -0.000001  -0.000000   0.000000  -0.000000
     4  N    0.004938  -0.000081  -0.000002  -0.000000  -0.000000   0.000000
     5  N   -0.044447   0.001708   0.000019   0.000001  -0.000000   0.000001
     6  N    0.184863  -0.020848  -0.001259   0.000007  -0.000000  -0.000133
     7  S   15.868914   0.299244  -0.072448   0.007698   0.000617   0.005698
     8  C    0.299244   4.725732   0.512504   0.028719  -0.040927  -0.017792
     9  C   -0.072448   0.512504   4.908654   0.419313   0.025007  -0.037942
    10  C    0.007698   0.028719   0.419313   4.756688   0.618702  -0.019683
    11  C    0.000617  -0.040927   0.025007   0.618702   4.908337   0.322226
    12  S    0.005698  -0.017792  -0.037942  -0.019683   0.322226  15.544373
    13  C   -0.053172   0.420593   0.018479  -0.034794   0.002420   0.313367
    14  C   -0.039554  -0.031115   0.004096   0.001262   0.000901  -0.061306
    15  C    0.004595   0.003626  -0.000461   0.000018   0.000053  -0.003602
    16  C    0.000958   0.000082   0.000002   0.000000  -0.000001   0.000022
    17  S   -0.002632  -0.000161  -0.000002   0.000000   0.000000  -0.000013
    18  H   -0.000002   0.000000   0.000000  -0.000000  -0.000000   0.000000
    19  H    0.006937  -0.000216   0.000013   0.000000  -0.000000   0.000002
    20  H   -0.056728   0.001622   0.003481  -0.000087  -0.000015   0.000051
    21  H   -0.007319  -0.042743   0.378960  -0.057570   0.006642  -0.000422
    22  H   -0.000556   0.005051  -0.043264   0.374028  -0.053531   0.006610
    23  H    0.000028   0.000910   0.002924  -0.025704   0.363442  -0.042591
    24  H    0.013293  -0.021167   0.001510  -0.000087  -0.000035   0.005339
    25  H   -0.000033  -0.000137   0.000014  -0.000002   0.000007   0.001854
    26  H   -0.000049  -0.000003  -0.000000  -0.000000   0.000000   0.000002
              13         14         15         16         17         18
     1  S   -0.000000   0.000000   0.000000  -0.000005   0.005914  -0.060637
     2  C    0.000000   0.000000  -0.000001   0.000128  -0.032754   0.356702
     3  C   -0.000014   0.000087  -0.000310  -0.003145   0.268369  -0.033223
     4  N   -0.000019  -0.000027   0.000029  -0.000160  -0.057753   0.000234
     5  N    0.000166  -0.000438   0.000068   0.000166  -0.001873   0.000016
     6  N   -0.001634   0.007957  -0.001532  -0.000381   0.008019   0.000023
     7  S   -0.053172  -0.039554   0.004595   0.000958  -0.002632  -0.000002
     8  C    0.420593  -0.031115   0.003626   0.000082  -0.000161   0.000000
     9  C    0.018479   0.004096  -0.000461   0.000002  -0.000002   0.000000
    10  C   -0.034794   0.001262   0.000018   0.000000   0.000000  -0.000000
    11  C    0.002420   0.000901   0.000053  -0.000001   0.000000  -0.000000
    12  S    0.313367  -0.061306  -0.003602   0.000022  -0.000013   0.000000
    13  C    4.798665   0.555741  -0.011796   0.002016   0.000405  -0.000000
    14  C    0.555741   4.917083   0.424207  -0.030672   0.000369  -0.000000
    15  C   -0.011796   0.424207   4.930622   0.597902  -0.028320   0.000000
    16  C    0.002016  -0.030672   0.597902   5.064551   0.243920  -0.000001
    17  S    0.000405   0.000369  -0.028320   0.243920  15.725003   0.003191
    18  H   -0.000000  -0.000000   0.000000  -0.000001   0.003191   0.548622
    19  H    0.000067  -0.000534   0.000032  -0.000107   0.020053   0.000012
    20  H    0.000506  -0.000972   0.000101   0.000015   0.000124   0.000003
    21  H    0.007130  -0.000129   0.000002  -0.000000   0.000000  -0.000000
    22  H    0.000047   0.000001   0.000000   0.000000  -0.000000  -0.000000
    23  H    0.000760  -0.000063  -0.000000  -0.000000   0.000000  -0.000000
    24  H   -0.030988   0.386442  -0.062789  -0.020192   0.005306  -0.000000
    25  H   -0.006197  -0.035025   0.337078  -0.034334   0.002652  -0.000000
    26  H   -0.000077   0.003898  -0.040381   0.346530  -0.030303   0.000000
              19         20         21         22         23         24
     1  S    0.000117   0.000003  -0.000000   0.000000  -0.000000  -0.000000
     2  C    0.000679  -0.000016   0.000000  -0.000000   0.000000   0.000001
     3  C   -0.012409  -0.001549   0.000000  -0.000000   0.000000  -0.000139
     4  N   -0.057624   0.008458   0.000001   0.000000  -0.000000  -0.000034
     5  N    0.339304  -0.038831  -0.000009  -0.000000   0.000000   0.000096
     6  N   -0.049086   0.306886  -0.000084   0.000000   0.000000  -0.005255
     7  S    0.006937  -0.056728  -0.007319  -0.000556   0.000028   0.013293
     8  C   -0.000216   0.001622  -0.042743   0.005051   0.000910  -0.021167
     9  C    0.000013   0.003481   0.378960  -0.043264   0.002924   0.001510
    10  C    0.000000  -0.000087  -0.057570   0.374028  -0.025704  -0.000087
    11  C   -0.000000  -0.000015   0.006642  -0.053531   0.363442  -0.000035
    12  S    0.000002   0.000051  -0.000422   0.006610  -0.042591   0.005339
    13  C    0.000067   0.000506   0.007130   0.000047   0.000760  -0.030988
    14  C   -0.000534  -0.000972  -0.000129   0.000001  -0.000063   0.386442
    15  C    0.000032   0.000101   0.000002   0.000000  -0.000000  -0.062789
    16  C   -0.000107   0.000015  -0.000000   0.000000  -0.000000  -0.020192
    17  S    0.020053   0.000124   0.000000  -0.000000   0.000000   0.005306
    18  H    0.000012   0.000003  -0.000000  -0.000000  -0.000000  -0.000000
    19  H    0.486075   0.008640   0.000002   0.000000  -0.000000   0.000601
    20  H    0.008640   0.515160   0.000377   0.000005  -0.000000   0.000263
    21  H    0.000002   0.000377   0.595135  -0.008234  -0.000165  -0.000002
    22  H    0.000000   0.000005  -0.008234   0.613452  -0.009033   0.000000
    23  H   -0.000000  -0.000000  -0.000165  -0.009033   0.565496   0.000001
    24  H    0.000601   0.000263  -0.000002   0.000000   0.000001   0.578354
    25  H   -0.000001  -0.000001  -0.000000  -0.000000   0.000000   0.008203
    26  H    0.000009  -0.000001   0.000000  -0.000000   0.000000   0.000345
              25         26
     1  S   -0.000000   0.000001
     2  C    0.000000  -0.000004
     3  C   -0.000002   0.000313
     4  N   -0.000000  -0.000008
     5  N    0.000000  -0.000006
     6  N   -0.000009   0.000033
     7  S   -0.000033  -0.000049
     8  C   -0.000137  -0.000003
     9  C    0.000014  -0.000000
    10  C   -0.000002  -0.000000
    11  C    0.000007   0.000000
    12  S    0.001854   0.000002
    13  C   -0.006197  -0.000077
    14  C   -0.035025   0.003898
    15  C    0.337078  -0.040381
    16  C   -0.034334   0.346530
    17  S    0.002652  -0.030303
    18  H   -0.000000   0.000000
    19  H   -0.000001   0.000009
    20  H   -0.000001  -0.000001
    21  H   -0.000000   0.000000
    22  H   -0.000000  -0.000000
    23  H    0.000000   0.000000
    24  H    0.008203   0.000345
    25  H    0.606042  -0.003984
    26  H   -0.003984   0.574073
 Mulliken charges:
               1
     1  S   -0.175588
     2  C   -0.049283
     3  C    0.127440
     4  N   -0.109460
     5  N   -0.241224
     6  N   -0.216472
     7  S   -0.120181
     8  C    0.175350
     9  C   -0.119597
    10  C   -0.068508
    11  C   -0.153845
    12  S   -0.016062
    13  C    0.018327
    14  C   -0.102207
    15  C   -0.149143
    16  C   -0.167293
    17  S   -0.129515
    18  H    0.185060
    19  H    0.257434
    20  H    0.252502
    21  H    0.128427
    22  H    0.115422
    23  H    0.143994
    24  H    0.140934
    25  H    0.123875
    26  H    0.149613
 Sum of Mulliken charges =  -0.00000
 Mulliken charges with hydrogens summed into heavy atoms:
               1
     1  S   -0.175588
     2  C    0.135776
     3  C    0.127440
     4  N   -0.109460
     5  N    0.016209
     6  N    0.036031
     7  S   -0.120181
     8  C    0.175350
     9  C    0.008829
    10  C    0.046915
    11  C   -0.009851
    12  S   -0.016062
    13  C    0.018327
    14  C    0.038726
    15  C   -0.025268
    16  C   -0.017681
    17  S   -0.129515
 Electronic spatial extent (au):  <R**2>=           7225.6262
 Charge=             -0.0000 electrons
 Dipole moment (field-independent basis, Debye):
    X=             -6.2401    Y=             -0.3382    Z=             -1.5559  Tot=              6.4400
 Quadrupole moment (field-independent basis, Debye-Ang):
   XX=           -125.0961   YY=           -122.6809   ZZ=           -125.3320
   XY=              5.6724   XZ=              1.4753   YZ=              3.3552
 Traceless Quadrupole moment (field-independent basis, Debye-Ang):
   XX=             -0.7265   YY=              1.6888   ZZ=             -0.9624
   XY=              5.6724   XZ=              1.4753   YZ=              3.3552
 Octapole moment (field-independent basis, Debye-Ang**2):
  XXX=           -200.3836  YYY=              5.7742  ZZZ=             -5.2709  XYY=            -29.1099
  XXY=            -22.2098  XXZ=            -33.7900  XZZ=             11.5271  YZZ=             -8.4262
  YYZ=             -0.7226  XYZ=             -8.6735
 Hexadecapole moment (field-independent basis, Debye-Ang**3):
 XXXX=          -7875.8859 YYYY=          -1581.8580 ZZZZ=           -402.9306 XXXY=            139.0813
 XXXZ=            160.6578 YYYX=             18.0989 YYYZ=             41.1606 ZZZX=            -26.1419
 ZZZY=              1.2040 XXYY=          -1572.0726 XXZZ=          -1355.9853 YYZZ=           -361.5040
 XXYZ=             -8.5526 YYXZ=             23.2073 ZZXY=             -9.6490
 N-N= 1.608638272977D+03 E-N=-8.280605900084D+03  KE= 2.134376041213D+03
 PrsmSu:  requested number of processors reduced to:  13 ShMem   1 Linda.
 Calling FoFJK, ICntrl=      2127 FMM=F ISym2X=0 I1Cent= 0 IOpClX= 0 NMat=1 NMatS=1 NMatT=0.
 ***** Axes restored to original set *****
 -------------------------------------------------------------------
 Center     Atomic                   Forces (Hartrees/Bohr)
 Number     Number              X              Y              Z
 -------------------------------------------------------------------
      1       16           0.044562866   -0.019804943   -0.021302386
      2        6          -0.023083194    0.023007330    0.029546602
      3        6          -0.009255455    0.013131205   -0.008968204
      4        7          -0.040881015   -0.004308486   -0.085479385
      5        7          -0.011680348    0.009625983    0.074519417
      6        7           0.033146540   -0.007430436   -0.039111926
      7       16           0.010464315   -0.003555246    0.059296350
      8        6           0.031869197    0.014899833    0.015607241
      9        6          -0.018711279   -0.015581485   -0.001074438
     10        6           0.013695231    0.008735118    0.008264659
     11        6           0.006717884    0.006720755   -0.000819335
     12       16           0.012475660    0.003675164    0.000418315
     13        6          -0.046400625   -0.012144562   -0.007625766
     14        6           0.015942216    0.028920025    0.013742872
     15        6          -0.021289225   -0.018072259   -0.006900516
     16        6           0.034313375   -0.014196774    0.008622773
     17       16          -0.000214493   -0.021218255   -0.002394730
     18        1           0.005441381   -0.022489498    0.000844815
     19        1           0.012411260   -0.010905489   -0.005969912
     20        1          -0.003822658    0.003933844    0.007337755
     21        1           0.000439124    0.005264436    0.000341933
     22        1           0.007200684   -0.004214666   -0.001978265
     23        1          -0.001569172   -0.007524266   -0.007341291
     24        1          -0.007608370    0.022734032    0.010372691
     25        1          -0.020604260    0.003182870   -0.020696837
     26        1          -0.023559638    0.017615770   -0.019252433
 -------------------------------------------------------------------
 Cartesian Forces:  Max     0.085479385 RMS     0.022410300

 GradGradGradGradGradGradGradGradGradGradGradGradGradGradGradGradGradGrad
 Berny optimization.
 FormGI is forming the generalized inverse of G from B-inverse, IUseBI=4.
 Internal  Forces:  Max     0.101453046 RMS     0.020848607
 Search for a local minimum.
 Step number   1 out of a maximum of  129
 All quantities printed in internal units (Hartrees-Bohrs-Radians)
 Mixed Optimization -- RFO/linear search
 Second derivative matrix not updated -- first step.
 ITU=  0
     Eigenvalues ---    0.00230   0.00799   0.01146   0.01354   0.01555
     Eigenvalues ---    0.01609   0.01727   0.01849   0.01850   0.01929
     Eigenvalues ---    0.02016   0.02169   0.02219   0.02274   0.02277
     Eigenvalues ---    0.02344   0.02384   0.02547   0.02770   0.03089
     Eigenvalues ---    0.03992   0.05413   0.08539   0.11691   0.13228
     Eigenvalues ---    0.14206   0.15330   0.15686   0.15842   0.15978
     Eigenvalues ---    0.15990   0.15994   0.16000   0.16013   0.19520
     Eigenvalues ---    0.19912   0.21541   0.21998   0.22425   0.22603
     Eigenvalues ---    0.23131   0.23339   0.23798   0.24584   0.24707
     Eigenvalues ---    0.24759   0.24782   0.24848   0.30101   0.30979
     Eigenvalues ---    0.31088   0.31842   0.31891   0.33333   0.35104
     Eigenvalues ---    0.35159   0.35650   0.36385   0.36928   0.37521
     Eigenvalues ---    0.42992   0.43594   0.43606   0.43925   0.45592
     Eigenvalues ---    0.46946   0.47622   0.48574   0.49666   0.54883
     Eigenvalues ---    0.66317   0.68248
 RFO step:  Lambda=-1.33901881D-01 EMin= 2.30000000D-03
 Linear search not attempted -- first point.
 Maximum step size (   0.300) exceeded in Quadratic search.
    -- Step size scaled by   0.582
 Iteration  1 RMS(Cart)=  0.14217932 RMS(Int)=  0.00452470
 Iteration  2 RMS(Cart)=  0.00831687 RMS(Int)=  0.00056249
 Iteration  3 RMS(Cart)=  0.00001642 RMS(Int)=  0.00056243
 Iteration  4 RMS(Cart)=  0.00000001 RMS(Int)=  0.00056243
 Variable       Old X    -DE/DX   Delta X   Delta X   Delta X     New X
                                 (Linear)    (Quad)   (Total)
    R1        3.21632  -0.05046   0.00000  -0.05986  -0.05986   3.15646
    R2        2.99767  -0.03215   0.00000  -0.04900  -0.04900   2.94867
    R3        2.11044  -0.01624   0.00000  -0.02086  -0.02086   2.08958
    R4        2.44551  -0.00112   0.00000  -0.00103  -0.00120   2.44431
    R5        3.58386  -0.02137   0.00000  -0.04251  -0.04279   3.54107
    R6        2.45653   0.10145   0.00000   0.07538   0.07543   2.53196
    R7        2.60975   0.05069   0.00000   0.04877   0.04903   2.65878
    R8        1.93643   0.00113   0.00000   0.00115   0.00115   1.93758
    R9        3.10617   0.05398   0.00000   0.05826   0.05832   3.16449
   R10        1.93244  -0.00035   0.00000  -0.00036  -0.00036   1.93209
   R11        3.29196   0.01242   0.00000   0.01812   0.01843   3.31039
   R12        2.58912   0.00197   0.00000   0.00231   0.00242   2.59154
   R13        2.73856   0.00632   0.00000   0.00930   0.00978   2.74834
   R14        2.65675   0.02657   0.00000   0.02669   0.02663   2.68337
   R15        2.03484   0.00421   0.00000   0.00492   0.00492   2.03976
   R16        2.53817   0.00423   0.00000   0.00313   0.00295   2.54112
   R17        2.05506  -0.00058   0.00000  -0.00070  -0.00070   2.05436
   R18        3.30609  -0.00376   0.00000  -0.00571  -0.00585   3.30024
   R19        2.05418  -0.00209   0.00000  -0.00250  -0.00250   2.05167
   R20        3.28778   0.01169   0.00000   0.01512   0.01520   3.30299
   R21        2.61971  -0.00375   0.00000  -0.00399  -0.00404   2.61567
   R22        2.62637   0.05502   0.00000   0.05186   0.05199   2.67835
   R23        2.01768   0.01272   0.00000   0.01453   0.01453   2.03221
   R24        2.63925  -0.03352   0.00000  -0.03496  -0.03515   2.60410
   R25        2.11135  -0.01296   0.00000  -0.01667  -0.01667   2.09468
   R26        3.78153  -0.04314   0.00000  -0.09329  -0.09363   3.68790
   R27        2.08470  -0.00670   0.00000  -0.00834  -0.00834   2.07636
    A1        2.16966   0.00477   0.00000   0.01548   0.01380   2.18346
    A2        1.94867   0.01277   0.00000   0.03867   0.03673   1.98540
    A3        1.99269  -0.00171   0.00000   0.00791   0.00618   1.99887
    A4        1.81135   0.02627   0.00000   0.04080   0.04128   1.85263
    A5        2.15709  -0.04169   0.00000  -0.06239  -0.06217   2.09492
    A6        2.28723   0.01638   0.00000   0.02684   0.02593   2.31316
    A7        2.03347   0.02643   0.00000   0.05447   0.05329   2.08676
    A8        1.91792   0.01307   0.00000   0.02697   0.02672   1.94464
    A9        1.95942  -0.00364   0.00000  -0.00345  -0.00342   1.95600
   A10        1.94564  -0.01491   0.00000  -0.03381  -0.03330   1.91234
   A11        1.82725   0.03547   0.00000   0.05850   0.05874   1.88599
   A12        1.90220  -0.00182   0.00000   0.00004  -0.00045   1.90175
   A13        2.00582  -0.01204   0.00000  -0.02639  -0.02655   1.97926
   A14        1.73911  -0.02680   0.00000  -0.03692  -0.03654   1.70257
   A15        1.96386   0.03193   0.00000   0.04129   0.04021   2.00407
   A16        2.17566  -0.03785   0.00000  -0.04946  -0.04809   2.12757
   A17        2.14187   0.00592   0.00000   0.00808   0.00779   2.14967
   A18        2.14290   0.00077   0.00000   0.00450   0.00476   2.14766
   A19        2.04704   0.00228   0.00000   0.00307   0.00294   2.04998
   A20        2.09203  -0.00300   0.00000  -0.00732  -0.00746   2.08457
   A21        2.17788  -0.00570   0.00000  -0.00814  -0.00818   2.16969
   A22        1.99252   0.01167   0.00000   0.02156   0.02157   2.01410
   A23        2.11223  -0.00594   0.00000  -0.01330  -0.01328   2.09895
   A24        2.17212  -0.00083   0.00000  -0.00118  -0.00130   2.17082
   A25        2.05095   0.01083   0.00000   0.02124   0.02130   2.07225
   A26        2.05938  -0.00998   0.00000  -0.01996  -0.01991   2.03947
   A27        1.76492   0.01161   0.00000   0.01800   0.01824   1.78315
   A28        2.14562  -0.01113   0.00000  -0.01876  -0.01892   2.12670
   A29        1.94454   0.02881   0.00000   0.05009   0.05110   1.99564
   A30        2.18209  -0.01777   0.00000  -0.03026  -0.03114   2.15095
   A31        2.38581  -0.02043   0.00000  -0.02844  -0.02902   2.35680
   A32        2.03829  -0.00784   0.00000  -0.02037  -0.02004   2.01825
   A33        1.84369   0.02803   0.00000   0.04940   0.04967   1.89336
   A34        2.12940   0.03649   0.00000   0.05350   0.05307   2.18247
   A35        1.93060   0.01147   0.00000   0.03666   0.03688   1.96747
   A36        2.17549  -0.04385   0.00000  -0.07837  -0.07889   2.09659
   A37        2.48329  -0.00053   0.00000  -0.00842  -0.00930   2.47399
   A38        1.82828   0.03445   0.00000   0.07493   0.07524   1.90353
   A39        1.91547  -0.03074   0.00000  -0.05668  -0.05660   1.85887
   A40        2.34603  -0.03506   0.00000  -0.06175  -0.06194   2.28409
    D1       -1.39055  -0.02319   0.00000  -0.08868  -0.08861  -1.47917
    D2        1.52545  -0.01518   0.00000  -0.06102  -0.06189   1.46356
    D3        1.10080   0.00770   0.00000   0.02906   0.02993   1.13073
    D4       -2.26639   0.01571   0.00000   0.05672   0.05666  -2.20973
    D5        2.59198   0.01494   0.00000   0.05590   0.05735   2.64933
    D6       -0.29995   0.01674   0.00000   0.04170   0.04195  -0.25800
    D7        2.40300  -0.00766   0.00000  -0.03393  -0.03326   2.36975
    D8       -1.03080   0.00049   0.00000  -0.00170  -0.00151  -1.03231
    D9        1.56112   0.00624   0.00000   0.02775   0.02861   1.58974
   D10       -0.61478   0.01847   0.00000   0.05403   0.05459  -0.56019
   D11       -3.03819   0.00726   0.00000  -0.00134  -0.00070  -3.03890
   D12        1.09065   0.00179   0.00000  -0.00425  -0.00407   1.08658
   D13       -0.85436   0.00146   0.00000  -0.01027  -0.00989  -0.86425
   D14       -3.00870  -0.00401   0.00000  -0.01318  -0.01326  -3.02196
   D15        3.00372  -0.02838   0.00000  -0.08431  -0.08283   2.92089
   D16       -1.19338  -0.01323   0.00000  -0.05924  -0.05880  -1.25218
   D17        1.75377   0.02369   0.00000   0.05481   0.05483   1.80860
   D18       -1.32484   0.02314   0.00000   0.05559   0.05573  -1.26911
   D19        3.06915   0.00054   0.00000   0.00358   0.00353   3.07269
   D20       -0.01945  -0.00050   0.00000  -0.00178  -0.00181  -0.02126
   D21       -0.13401  -0.00077   0.00000   0.00039   0.00032  -0.13369
   D22        3.06057  -0.00181   0.00000  -0.00498  -0.00503   3.05554
   D23        3.06500   0.00542   0.00000   0.00942   0.00925   3.07425
   D24        0.07461   0.00728   0.00000   0.00425   0.00411   0.07873
   D25       -0.00744   0.00417   0.00000   0.00945   0.00936   0.00193
   D26       -2.99783   0.00602   0.00000   0.00428   0.00423  -2.99360
   D27        0.08859  -0.00030   0.00000  -0.00095  -0.00093   0.08766
   D28       -3.01750  -0.00102   0.00000  -0.00453  -0.00451  -3.02201
   D29       -3.10731   0.00093   0.00000   0.00486   0.00482  -3.10248
   D30        0.06979   0.00021   0.00000   0.00128   0.00125   0.07104
   D31        0.10001  -0.00203   0.00000  -0.00852  -0.00847   0.09154
   D32       -3.08383  -0.00170   0.00000  -0.00606  -0.00599  -3.08982
   D33       -3.07938  -0.00094   0.00000  -0.00404  -0.00406  -3.08344
   D34        0.01996  -0.00060   0.00000  -0.00158  -0.00158   0.01838
   D35       -0.19082   0.00296   0.00000   0.01274   0.01278  -0.17804
   D36        2.99322   0.00216   0.00000   0.00935   0.00943   3.00264
   D37        0.14415  -0.00417   0.00000  -0.01368  -0.01361   0.13054
   D38        3.11366  -0.00216   0.00000  -0.00068  -0.00075   3.11291
   D39        2.41090   0.01273   0.00000   0.04856   0.04834   2.45924
   D40       -0.51045   0.01070   0.00000   0.03827   0.03803  -0.47241
   D41       -0.57569   0.01381   0.00000   0.04184   0.04171  -0.53399
   D42        2.78615   0.01179   0.00000   0.03155   0.03140   2.81754
   D43       -2.40014  -0.00084   0.00000  -0.01303  -0.01223  -2.41236
   D44        1.05455  -0.00489   0.00000  -0.03490  -0.03614   1.01842
   D45        0.53752  -0.00141   0.00000  -0.00850  -0.00771   0.52981
   D46       -2.29098  -0.00546   0.00000  -0.03038  -0.03162  -2.32259
   D47        0.24389  -0.01067   0.00000  -0.03826  -0.03758   0.20632
   D48       -2.47415  -0.01829   0.00000  -0.06883  -0.06843  -2.54258
   D49        3.02746   0.00696   0.00000   0.01244   0.01144   3.03891
   D50        0.30942  -0.00066   0.00000  -0.01813  -0.01941   0.29001
   D51        0.89605  -0.00453   0.00000  -0.01666  -0.01648   0.87957
   D52       -2.68151   0.01271   0.00000   0.03360   0.03267  -2.64884
         Item               Value     Threshold  Converged?
 Maximum Force            0.101453     0.000450     NO 
 RMS     Force            0.020849     0.000300     NO 
 Maximum Displacement     0.568454     0.001800     NO 
 RMS     Displacement     0.142130     0.001200     NO 
 Predicted change in Energy=-6.523074D-02
 GradGradGradGradGradGradGradGradGradGradGradGradGradGradGradGradGradGrad

                          Input orientation:                          
 ---------------------------------------------------------------------
 Center     Atomic      Atomic             Coordinates (Angstroms)
 Number     Number       Type             X           Y           Z
 ---------------------------------------------------------------------
      1         16           0        2.078958   -1.510335    0.107157
      2          6           0        3.702477   -1.502063   -0.285407
      3          6           0        4.853868   -1.989328    0.648202
      4          7           0        5.149723   -0.985556    1.408457
      5          7           0        5.650393   -1.207460    2.631283
      6          7           0        7.056512   -1.251711    2.610529
      7         16           0        7.584653   -1.691122    4.137678
      8          6           0        9.251172   -2.028899    3.716537
      9          6           0       10.146773   -1.058890    4.087585
     10          6           0       11.549061   -1.189286    3.906124
     11          6           0       12.138976   -2.218002    3.272114
     12         16           0       11.276548   -3.496929    2.453263
     13          6           0        9.627716   -3.211295    2.958040
     14          6           0        8.558172   -3.975119    2.523850
     15          6           0        8.253208   -4.692395    1.340077
     16          6           0        7.022903   -4.708840    0.719553
     17         16           0        5.290757   -3.809854    0.726577
     18          1           0        3.988111   -0.692477   -0.982315
     19          1           0        5.285693   -2.071359    3.045964
     20          1           0        7.412971   -0.344103    2.303092
     21          1           0        9.754678   -0.180808    4.577822
     22          1           0       12.151855   -0.400051    4.348368
     23          1           0       13.223259   -2.250973    3.227559
     24          1           0        7.667371   -3.911495    3.122944
     25          1           0        9.004197   -5.473739    1.107293
     26          1           0        6.858316   -5.700150    0.275154
 ---------------------------------------------------------------------
                    Distance matrix (angstroms):
                    1          2          3          4          5
     1  S    0.000000
     2  C    1.670327   0.000000
     3  C    2.867454   1.560370   0.000000
     4  N    3.376148   2.287023   1.293474   0.000000
     5  N    4.383845   3.519694   2.275605   1.339856   0.000000
     6  N    5.577616   4.438318   3.040796   2.269726   1.406968
     7  S    6.825721   5.888185   4.441009   3.724964   2.498903
     8  C    8.045942   6.861569   5.362138   4.820547   3.849434
     9  C    9.007622   7.800539   6.380432   5.670416   4.728670
    10  C   10.208725   8.901440   7.488639   6.872508   6.034884
    11  C   10.569849   9.183846   7.746612   7.337697   6.597997
    12  S    9.697754   8.297370   6.839731   6.703476   6.076757
    13  C    8.246487   6.967774   5.442259   5.235221   4.465560
    14  C    7.341374   6.130718   4.602530   4.668952   4.015801
    15  C    7.054570   5.790472   4.397814   4.834972   4.537249
    16  C    5.920140   4.724256   3.479303   4.224481   4.218786
    17  S    3.998390   2.978698   1.873854   2.908868   3.244950
    18  H    2.345359   1.105756   2.256091   2.674141   4.010796
    19  H    4.385714   3.732118   2.437717   1.969488   1.025323
    20  H    5.885059   4.670006   3.463298   2.516769   1.989919
    21  H    8.981713   7.875649   6.536864   5.647841   4.657058
    22  H   10.985620   9.699396   8.335324   7.616806   6.772687
    23  H   11.596590  10.175808   8.761748   8.372120   7.667644
    24  H    6.789028   5.756961   4.211278   4.223639   3.409066
    25  H    8.041629   6.769199   5.438485   5.923805   5.636638
    26  H    6.358069   5.281806   4.234049   5.141115   5.214852
                    6          7          8          9         10
     6  N    0.000000
     7  S    1.674575   0.000000
     8  C    2.577558   1.751781   0.000000
     9  C    3.430538   2.639448   1.371385   0.000000
    10  C    4.676052   4.002747   2.453811   1.419980   0.000000
    11  C    5.215636   4.665690   2.927915   2.444874   1.344703
    12  S    4.782723   4.441653   2.802342   3.145065   2.740490
    13  C    3.251434   2.806525   1.454361   2.485587   2.946006
    14  C    3.111181   2.961220   2.385482   3.670602   4.314738
    15  C    3.858036   4.157064   3.706442   4.933230   5.451516
    16  C    3.940642   4.594102   4.596649   5.867226   6.559543
    17  S    3.634730   4.624565   5.272243   6.514988   7.492881
    18  H    4.757768   6.336146   7.180881   7.985441   9.017296
    19  H    1.999306   2.573254   4.022001   5.073477   6.383393
    20  H    1.022416   2.282464   2.866243   3.342007   4.515671
    21  H    3.506733   2.680258   2.100183   1.079397   2.165182
    22  H    5.450498   4.750851   3.386195   2.126600   1.087121
    23  H    6.277581   5.738957   4.008228   3.409615   2.095369
    24  H    2.776719   2.442659   2.530800   3.900682   4.805342
    25  H    4.886586   5.050400   4.328519   5.447799   5.715446
    26  H    5.028108   5.614176   5.571980   6.847619   7.452176
                   11         12         13         14         15
    11  C    0.000000
    12  S    1.746411   0.000000
    13  C    2.718768   1.747865   0.000000
    14  C    4.058265   2.761018   1.384151   0.000000
    15  C    4.995456   3.436410   2.588578   1.417324   0.000000
    16  C    6.236509   4.750576   3.746801   2.480098   1.378031
    17  S    7.477423   6.237713   4.913951   3.732760   3.151408
    18  H    9.320086   8.531674   7.326390   6.629811   6.291574
    19  H    6.858581   6.186589   4.490028   3.821782   4.311151
    20  H    5.175483   4.988997   3.681691   3.813725   4.532223
    21  H    3.397044   4.222144   3.438556   4.477413   5.752550
    22  H    2.112685   3.734734   4.025839   5.387443   6.532495
    23  H    1.085699   2.437545   3.731325   5.023039   5.850174
    24  H    4.783871   3.694117   2.088164   1.075402   2.032640
    25  H    5.011298   3.298938   2.988761   2.109843   1.108455
    26  H    6.999464   5.396213   4.589320   3.304826   2.023698
                   16         17         18         19         20
    16  C    0.000000
    17  S    1.951552   0.000000
    18  H    5.313896   3.786190   0.000000
    19  H    3.922549   2.898612   4.451075   0.000000
    20  H    4.659472   4.358970   4.758669   2.839117   0.000000
    21  H    6.546137   6.923053   8.026845   5.088477   3.268739
    22  H    7.618406   8.474597   9.754405   7.185659   5.161715
    23  H    7.125701   8.462246  10.268394   7.941674   6.184678
    24  H    2.612927   3.376566   6.383743   3.010716   3.669218
    25  H    2.158921   4.086942   7.237959   5.400177   5.502282
    26  H    1.098760   2.496846   5.907291   4.828939   5.753904
                   21         22         23         24         25
    21  H    0.000000
    22  H    2.418092   0.000000
    23  H    4.259090   2.414547   0.000000
    24  H    4.515700   5.826019   5.799670   0.000000
    25  H    6.373611   6.793720   5.716837   2.879334   0.000000
    26  H    7.573969   8.526645   7.818313   3.458868   2.312688
                   26
    26  H    0.000000
 Stoichiometry    C10H9N3S4
 Framework group  C1[X(C10H9N3S4)]
 Deg. of freedom    72
 Full point group                 C1      NOp   1
 Largest Abelian subgroup         C1      NOp   1
 Largest concise Abelian subgroup C1      NOp   1
                         Standard orientation:                         
 ---------------------------------------------------------------------
 Center     Atomic      Atomic             Coordinates (Angstroms)
 Number     Number       Type             X           Y           Z
 ---------------------------------------------------------------------
      1         16           0        5.674953   -0.503079   -0.219156
      2          6           0        4.312431   -0.081161   -1.088357
      3          6           0        2.870035    0.021062   -0.502013
      4          7           0        2.381882   -1.176257   -0.536793
      5          7           0        1.454684   -1.538417    0.360067
      6          7           0        0.154294   -1.291556   -0.117013
      7         16           0       -0.924018   -1.619706    1.121438
      8          6           0       -2.338405   -0.883198    0.396313
      9          6           0       -3.242791   -1.769279   -0.130603
     10          6           0       -4.486316   -1.368103   -0.686522
     11          6           0       -4.868193   -0.088568   -0.845224
     12         16           0       -3.850519    1.292221   -0.517025
     13          6           0       -2.486577    0.560007    0.294492
     14          6           0       -1.384240    1.278427    0.724143
     15          6           0       -0.713866    2.446294    0.281996
     16          6           0        0.654401    2.601742    0.230520
     17         16           0        2.317824    1.589631    0.361692
     18          1           0        4.355162   -0.374421   -2.153660
     19          1           0        1.585244   -1.066761    1.261056
     20          1           0       -0.005084   -1.856012   -0.954463
     21          1           0       -3.001602   -2.819817   -0.073202
     22          1           0       -5.156730   -2.178167   -0.962514
     23          1           0       -5.860410    0.115322   -1.235964
     24          1           0       -0.772835    0.794022    1.464429
     25          1           0       -1.376249    3.334531    0.251057
     26          1           0        0.905776    3.646507    0.459760
 ---------------------------------------------------------------------
 Rotational constants (GHZ):           0.7160070           0.1593947           0.1385942
 Standard basis: 6-31G(2df,p) (6D, 7F)
 There are   588 symmetry adapted cartesian basis functions of A   symmetry.
 There are   537 symmetry adapted basis functions of A   symmetry.
   537 basis functions,   907 primitive gaussians,   588 cartesian basis functions
    77 alpha electrons       77 beta electrons
       nuclear repulsion energy      1601.6867273246 Hartrees.
 NAtoms=   26 NActive=   26 NUniq=   26 SFac= 1.00D+00 NAtFMM=   60 NAOKFM=F Big=F
 Integral buffers will be    131072 words long.
 Raffenetti 2 integral format.
 Two-electron integral symmetry is turned on.
 One-electron integrals computed using PRISM.
 PrsmSu:  requested number of processors reduced to:  12 ShMem   1 Linda.
 NBasis=   537 RedAO= T EigKep=  2.85D-04  NBF=   537
 NBsUse=   537 1.00D-06 EigRej= -1.00D+00 NBFU=   537
 Initial guess from the checkpoint file:  "SdCC1dNNNSC2dCCdCSC2dCCdCS1.chk"
 B after Tr=    -0.000000   -0.000000    0.000000
         Rot=    0.999594   -0.024497    0.000867    0.014514 Ang=  -3.26 deg.
 ExpMin= 1.17D-01 ExpMax= 2.19D+04 ExpMxC= 3.30D+03 IAcc=2 IRadAn=         4 AccDes= 0.00D+00
 Harris functional with IExCor=  402 and IRadAn=       4 diagonalized for initial guess.
 HarFok:  IExCor=  402 AccDes= 0.00D+00 IRadAn=         4 IDoV= 1 UseB2=F ITyADJ=14
 ICtDFT=  3500011 ScaDFX=  1.000000  1.000000  1.000000  1.000000
 FoFCou: FMM=F IPFlag=           0 FMFlag=      100000 FMFlg1=           0
         NFxFlg=           0 DoJE=T BraDBF=F KetDBF=T FulRan=T
         wScrn=  0.000000 ICntrl=       500 IOpCl=  0 I1Cent=   200000004 NGrid=           0
         NMat0=    1 NMatS0=      1 NMatT0=    0 NMatD0=    1 NMtDS0=    0 NMtDT0=    0
 Petite list used in FoFCou.
 Requested convergence on RMS density matrix=1.00D-08 within 128 cycles.
 Requested convergence on MAX density matrix=1.00D-06.
 Requested convergence on             energy=1.00D-06.
 No special actions if energy rises.
 Integral accuracy reduced to 1.0D-05 until final iterations.
 Initial convergence to 1.0D-05 achieved.  Increase integral accuracy.
 SCF Done:  E(RB3LYP) =  -2143.21369115     A.U. after   15 cycles
            NFock= 15  Conv=0.37D-08     -V/T= 2.0043
 PrsmSu:  requested number of processors reduced to:  13 ShMem   1 Linda.
 Calling FoFJK, ICntrl=      2127 FMM=F ISym2X=0 I1Cent= 0 IOpClX= 0 NMat=1 NMatS=1 NMatT=0.
 ***** Axes restored to original set *****
 -------------------------------------------------------------------
 Center     Atomic                   Forces (Hartrees/Bohr)
 Number     Number              X              Y              Z
 -------------------------------------------------------------------
      1       16           0.033539988   -0.014264485   -0.010807407
      2        6          -0.017445231    0.016150243    0.020391809
      3        6          -0.002458600    0.010657258    0.000665192
      4        7          -0.018586081   -0.009676708   -0.051463385
      5        7          -0.012349789    0.004835589    0.044296430
      6        7           0.020506435   -0.003751211   -0.030756355
      7       16           0.004852461    0.006249738    0.037950153
      8        6           0.026566184    0.007306616    0.011691792
      9        6          -0.014260123   -0.014720837   -0.000365499
     10        6           0.007448163    0.005742533    0.006842220
     11        6           0.002610915    0.005710845   -0.001142352
     12       16           0.011201099    0.002083061   -0.000868093
     13        6          -0.037985066   -0.010839277   -0.007773129
     14        6           0.007849403    0.022066581    0.002208248
     15        6          -0.011805867   -0.014040467    0.005380977
     16        6           0.016414438   -0.005908253    0.010029392
     17       16           0.003613505   -0.017422675   -0.000837590
     18        1           0.006390826   -0.015741940   -0.000770995
     19        1           0.010180767   -0.008369481   -0.007369836
     20        1          -0.005955207    0.002859225    0.007364886
     21        1           0.000516148    0.003576744   -0.000029410
     22        1           0.004242616   -0.003304807   -0.001806901
     23        1          -0.001699361   -0.005338968   -0.006093206
     24        1          -0.004933985    0.017196466    0.003380496
     25        1          -0.013939641    0.003045964   -0.014306024
     26        1          -0.014513997    0.015898247   -0.015811413
[...]
 676,0.00333829,-0.00054433,0.00015328,-0.00008669,0.00001145,0.0001323
 9,0.00010040,0.00007821,-0.00008085,0.00003668,-0.00001337,-0.00012334
 ,-0.00008792,0.00022950,0.00016990,-0.00010130,-0.00024657,-0.00041097
 ,-0.00032187,-0.00087347,0.00030885,0.00111771,0.00011649,0.00013861,0
 .00002475,0.00103403,0.00008891,0.00099659,-0.00255309,0.00036922,-0.0
 0043989,0.00043191,-0.00011011,0.00004062,0.05135380,-0.00002454,-0.00
 094681,-0.00103739,-0.00115776,-0.00062219,0.00229625,0.00031900,0.001
 82821,-0.00597969,0.00386124,0.00235103,0.01254672,-0.09693733,-0.3119
 2156,0.11356940,0.00511890,-0.00951882,0.00090957,-0.00108292,0.002919
 94,-0.00153333,-0.00011829,-0.00043318,0.00008109,0.00026689,-0.000111
 19,-0.00006731,-0.00013221,0.00016525,0.00011189,-0.00009998,-0.000119
 33,-0.00012645,0.00001038,0.00001361,0.00016530,0.00022081,0.00011394,
 -0.00006484,0.00032907,-0.00085087,-0.00025708,-0.00000096,0.00023987,
 0.00010331,0.00037787,-0.00064436,-0.00039109,0.00168857,0.00104759,0.
 00176262,-0.00009598,-0.00006935,0.00017612,0.08837881,0.31929240,-0.0
 0029125,-0.00027281,0.00011025,0.00038290,-0.00050335,-0.00131655,0.00
 290187,0.00795128,0.00293773,0.00842149,0.03381245,-0.03265726,0.02093
 603,0.10704614,-0.10377543,-0.00800437,-0.02143460,0.00485506,0.002629
 08,-0.00181290,0.00187170,-0.00030073,0.00109999,-0.00013188,0.0004046
 1,-0.00006724,-0.00029678,-0.00003900,-0.00008511,0.00026605,-0.000018
 00,-0.00004116,-0.00005811,-0.00017177,-0.00002706,0.00027705,0.000494
 29,0.00025767,-0.00002544,-0.00025221,-0.00007490,-0.00026250,-0.00012
 987,0.00008353,0.00017504,0.00080409,-0.00010135,0.00065216,-0.0012285
 0,-0.00137962,0.00109092,-0.00010923,-0.00044239,0.00037468,-0.0246956
 9,-0.12231879,0.12522910,0.00004152,-0.00021805,-0.00042484,-0.0004252
 5,-0.00019070,0.00058111,-0.00062870,0.00017706,-0.00204373,0.00043916
 ,-0.00319164,-0.00002849,0.00414881,-0.02805189,-0.02526431,-0.1390312
 0,0.14986509,0.11336489,-0.00813665,0.00487836,0.01307795,-0.00312865,
 0.00341680,-0.00256315,0.00003782,0.00065579,0.00052096,0.00015618,-0.
 00036547,0.00072476,-0.00051276,-0.00023515,-0.00021764,0.00038829,-0.
 00008275,-0.00007219,-0.00097410,-0.00068754,-0.00033454,0.00044963,0.
 00015535,-0.00006088,-0.00000053,-0.00023220,-0.00026718,-0.00008284,0
 .00013507,0.00005676,0.00010700,-0.00009073,-0.00025527,0.00003122,-0.
 00000577,0.00003778,-0.00066841,-0.00254268,-0.00172385,0.14800966,0.0
 0000388,0.00022168,0.00030970,0.00012204,-0.00003782,-0.00071908,0.000
 15366,0.00009796,0.00067124,0.00003858,-0.00154111,-0.00079832,-0.0004
 6810,-0.01140325,-0.01444209,0.10692181,-0.16424694,-0.15119079,0.0171
 7971,-0.01464380,-0.00148495,0.00020538,-0.00010879,0.00198849,0.00003
 160,-0.00008167,0.00012104,-0.00015518,0.00000304,-0.00026765,0.000174
 66,0.00005695,0.00005800,-0.00023246,0.00020853,0.00032026,0.00006300,
 0.00001234,0.00012481,-0.00016040,0.00005999,-0.00000617,-0.00003085,0
 .00008589,0.00003914,-0.00009178,0.00000005,-0.00015983,-0.00009642,-0
 .00006900,0.00002786,0.00002173,-0.00001889,-0.00001546,0.00021163,-0.
 00262119,-0.00164249,-0.12373554,0.19416002,0.00005817,-0.00022308,-0.
 00045595,-0.00043636,-0.00028371,0.00059742,-0.00061039,0.00061749,-0.
 00199906,-0.00062068,-0.00589021,-0.00324755,0.00231041,-0.00476299,-0
 .01439712,0.11078263,-0.17861619,-0.17005028,-0.01817105,0.01894193,0.
 00001015,0.00105756,0.00294665,-0.00166094,-0.00044444,-0.00025165,0.0
 0022598,0.00038236,-0.00003892,0.00006441,-0.00031915,-0.00002281,0.00
 002255,0.00024752,-0.00003128,-0.00009531,-0.00099945,-0.00020676,0.00
 032684,0.00023323,0.00006663,0.00013771,0.00003949,-0.00020706,-0.0002
 0367,-0.00005017,0.00020759,0.00020052,0.00002890,-0.00009384,-0.00007
 854,-0.00000128,0.00000161,0.00003716,0.00124225,0.00070345,-0.0002063
 9,-0.09479820,0.16700951,0.19096852,0.00001067,0.00003822,0.00006938,0
 .00000396,0.00001563,-0.00012634,0.00002865,0.00001143,0.00017287,0.00
 007527,-0.00000499,-0.00021284,-0.00015579,-0.00008794,0.00026173,-0.0
 0048388,0.00020208,-0.00008601,0.00055295,-0.00053952,-0.00237833,0.00
 030071,-0.01991683,-0.02033020,-0.05383282,0.00554785,0.00956308,0.001
 88805,0.01798702,0.02125312,-0.00488473,-0.00003765,0.00240215,-0.0004
 7811,-0.00020310,-0.00029525,-0.00389414,-0.00272763,0.00144930,0.0005
 7096,-0.00076697,-0.00112136,-0.00046506,0.00002661,-0.00013242,0.0000
 8463,-0.00011633,-0.00009355,-0.00001143,0.00002391,0.00002224,0.00000
 377,-0.00000070,-0.00000608,-0.00001885,0.00000257,-0.00002439,-0.0001
 5384,0.00003830,0.00002652,0.05986619,-0.00000817,0.00006935,0.0000344
 3,0.00004818,0.00000267,-0.00014910,-0.00009204,-0.00007417,0.00020725
 ,0.00018715,-0.00005944,-0.00045880,0.00042168,-0.00000238,0.00067021,
 0.00091347,0.00060582,-0.00061950,-0.00034917,-0.00313318,0.00297366,0
 .00009170,-0.00676470,-0.01279907,0.00377203,-0.17155342,-0.14886092,-
 0.00236216,0.00153629,-0.00313228,0.00060591,0.00205723,-0.00097448,0.
 00013345,-0.00010519,0.00047296,-0.00360639,0.00498379,-0.00352646,-0.
 00019122,-0.00023598,-0.00045400,0.00026534,-0.00069219,0.00080022,0.0
 0003659,-0.00002356,0.00000207,-0.00006617,0.00006585,0.00011202,-0.00
 000951,0.00000809,-0.00001017,0.00000901,-0.00004904,0.00004560,0.0002
 3101,-0.00006483,0.00004599,-0.00009393,0.17371641,0.00001468,-0.00000
 623,0.00004159,-0.00003595,0.00001376,-0.00002293,0.00006967,0.0000578
 8,0.00004010,-0.00004963,0.00000074,0.00002060,-0.00009045,-0.00000030
 ,-0.00007154,-0.00103857,0.00031476,0.00024226,0.00243952,0.00357061,-
 0.00147148,0.00212646,-0.00673881,-0.00340220,0.00555418,-0.14903421,-
 0.20733668,-0.00038482,-0.00987769,-0.00671608,0.00266817,-0.00083733,
 0.00151651,-0.00032355,0.00034317,0.00016843,0.00076015,-0.00416014,0.
 00408428,0.00042118,-0.00015041,-0.00030513,-0.00050251,0.00067679,-0.
 00041328,-0.00003063,-0.00012553,-0.00007265,0.00004082,-0.00002858,-0
 .00008380,0.00001267,-0.00000882,-0.00000033,-0.00003583,0.00003537,-0
 .00007936,-0.00030322,-0.00005752,-0.00004032,-0.01105130,0.16526798,0
 .21398853,-0.00000939,-0.00003992,-0.00008612,-0.00000685,-0.00000264,
 0.00016688,-0.00005340,-0.00006006,-0.00016737,-0.00002912,0.00004678,
 0.00025911,0.00001289,0.00000911,-0.00020092,-0.00007002,0.00026084,-0
 .00010376,-0.00057976,-0.00049692,0.00012830,-0.00184177,0.00185618,0.
 00308620,-0.01905063,-0.01371471,-0.01093389,-0.23873404,-0.10939331,-
 0.08078964,0.00399996,0.00155693,0.00246756,0.00239791,0.00026172,0.00
 245773,-0.00040561,0.00031436,0.00045294,0.00021451,-0.00007244,-0.000
 27618,-0.00006736,0.00001037,-0.00000992,0.00001004,-0.00003183,-0.000
 01376,0.00002374,0.00000594,-0.00002167,0.00000104,0.00000465,0.000004
 18,0.00000201,-0.00001441,0.00001408,-0.00007433,-0.00005965,-0.000009
 09,0.00094627,0.00027084,-0.00016428,0.25259352,-0.00000493,0.00000131
 ,0.00001595,-0.00000356,0.00000987,-0.00002045,0.00005236,0.00004178,0
 .00003678,-0.00004096,-0.00000459,-0.00003198,-0.00000373,-0.00000199,
 0.00002053,-0.00009373,0.00001927,0.00006381,0.00017135,0.00016026,-0.
 00017519,0.00078766,0.00161088,-0.00139820,0.00503705,0.00409394,0.001
 56838,-0.10984467,-0.10274032,-0.05864957,-0.01543278,-0.00512025,-0.0
 0834552,-0.00079047,0.00396589,-0.00497827,0.00074060,-0.00008518,-0.0
 0003518,-0.00003024,0.00003380,0.00032251,0.00003673,-0.00006963,-0.00
 005265,0.00002620,-0.00000657,0.00001711,-0.00001513,-0.00003736,0.000
 01741,0.00000601,-0.00001050,0.00000136,0.00001965,0.00000721,-0.00001
 137,-0.00000054,0.00003239,-0.00001733,0.00011114,-0.00045093,0.001189
 12,0.11808596,0.10207502,-0.00000732,0.00003073,0.00000801,0.00002031,
 0.00000424,-0.00003843,-0.00006169,-0.00005932,0.00006254,0.00007733,0
 .00000738,-0.00016483,-0.00005594,0.00000326,0.00011315,0.00015435,-0.
 00017295,0.00000086,0.00044995,0.00025394,-0.00000344,0.00224937,-0.00
 177157,-0.00028622,0.01436827,0.00773609,0.00713549,-0.08054684,-0.057
 79737,-0.08281750,-0.02136577,-0.01471246,-0.00823704,0.00114661,-0.00
 555066,-0.00022470,0.00047480,0.00020975,-0.00040834,-0.00002875,0.000
 19305,0.00003393,-0.00003922,-0.00006579,-0.00001902,0.00003194,-0.000
 00070,0.00004861,-0.00000851,0.00008031,0.00000519,0.00000239,0.000003
 98,-0.00000593,0.00000737,-0.00001156,-0.00001450,0.00004597,-0.000016
 89,0.00002228,-0.00061966,0.00086661,-0.00011172,0.08455183,0.06723600
 ,0.08612497,-0.00000863,0.00001338,-0.00003160,0.00001864,0.00001496,0
 .00003645,-0.00004544,-0.00006656,0.00005109,0.00005953,0.00004632,-0.
 00009732,-0.00009141,-0.00001287,0.00004870,-0.00010498,-0.00014066,-0
 .00004374,0.00008239,0.00037737,-0.00012843,0.00040909,-0.00014893,-0.
 00073656,0.00176509,-0.00148561,0.00128037,0.00215764,-0.00182042,-0.0
 0123416,-0.27150322,0.02698469,0.12791963,-0.01517100,0.00047357,0.008
 25624,-0.00119826,-0.00270268,-0.00386378,-0.00087351,0.00073694,0.001
 33114,-0.00005944,0.00037254,0.00005275,-0.00003264,-0.00011106,-0.000
 04960,0.00003039,0.00001156,-0.00002065,0.00000397,0.00000416,-0.00000
 380,0.00003021,-0.00000968,-0.00002734,0.00000949,-0.00001401,0.000024
 88,0.00006344,-0.00010039,-0.00009685,0.00066160,0.00131728,-0.0008137
 3,0.28392163,-0.00000162,0.00001158,0.00000972,0.00001702,0.00000130,-
 0.00004467,0.00000043,0.00000467,0.00004993,0.00002584,-0.00003850,-0.
 00006891,0.00006182,0.00002185,0.00008443,0.00044115,-0.00007981,-0.00
 021189,-0.00056358,-0.00063901,0.00124297,0.00079244,-0.00066813,-0.00
 001455,-0.00270276,0.00509729,-0.00671514,0.01615953,0.00240124,-0.010
 71255,0.02339964,-0.04068852,-0.02086862,-0.01248390,0.00058419,0.0058
 4873,-0.00252439,-0.00072030,-0.00411539,-0.00121902,0.00078538,0.0014
 4104,0.00022596,-0.00009153,0.00022767,0.00003277,0.00006602,0.0000578
 4,-0.00010892,0.00001190,-0.00001830,-0.00000700,-0.00000368,-0.000003
 02,0.00002784,-0.00000459,0.00000938,0.00012056,-0.00002989,0.00003514
 ,0.00062725,-0.00030082,-0.00013023,0.00118338,-0.00348471,0.00344966,
 -0.02321715,0.03789040,-0.00000720,0.00000705,-0.00003900,0.00001561,0
 .00002492,0.00005616,-0.00005488,-0.00007976,0.00005012,0.00006898,0.0
 0006801,-0.00009189,-0.00009138,-0.00002850,0.00004938,-0.00028815,0.0
 0000302,0.00007843,0.00056537,0.00063188,-0.00067068,-0.00070590,0.000
 05927,-0.00049790,-0.00039017,-0.00732905,0.00011640,0.02427565,-0.001
 77828,-0.00531857,0.12111513,-0.02453372,-0.11465426,-0.00987884,0.001
 51519,0.00776624,-0.00210664,-0.00297950,-0.00222508,-0.00056195,0.000
 39778,0.00110245,-0.00016576,0.00046814,0.00000068,-0.00006193,-0.0001
 6933,-0.00009693,0.00008425,0.00000020,-0.00001721,0.00000816,0.000007
 88,-0.00000415,0.00002523,-0.00001341,-0.00003597,-0.00006001,0.000004
 62,-0.00000305,0.00124464,0.00003962,-0.00053686,-0.00082276,0.0032630
 9,-0.00128226,-0.13200668,0.03095392,0.11587094,-0.00004912,0.00012517
 ,-0.00001676,0.00000583,-0.00029263,-0.00019579,-0.00048910,0.00034937
 ,0.00044226,-0.00000739,0.00024300,0.00047599,-0.00173714,0.00223308,-
 0.00061967,0.00035137,-0.00030474,-0.00005060,0.00123743,0.00156754,0.
 00077355,-0.00079759,0.00164812,0.00029077,-0.00040509,0.00013510,0.00
 030254,0.00006899,-0.00022519,-0.00054625,0.00014002,0.00018628,0.0015
 7709,-0.00171098,-0.00237926,-0.00082738,-0.02037293,0.00228935,0.0171
 6782,-0.21307270,0.03349802,0.13822192,0.00836481,0.00099721,-0.000535
 69,-0.00243379,-0.00068192,-0.00170487,-0.00031518,-0.00091529,-0.0017
 7890,-0.00002080,0.00000930,0.00006830,-0.00207762,0.00204345,0.000416
 02,-0.00009120,-0.00012794,-0.00003312,0.00003810,-0.00010641,0.000014
 06,0.00003901,-0.00001689,-0.00005876,-0.00012979,-0.00029628,-0.00020
 109,0.23384735,-0.00007710,-0.00024807,-0.00027829,-0.00023149,-0.0001
 8045,0.00071907,0.00023598,0.00050288,-0.00065719,0.00040574,-0.000721
 81,0.00233273,0.00099137,-0.00079550,-0.00107625,0.00021691,-0.0012437
 4,-0.00025940,-0.00066666,-0.00181729,-0.00185307,0.00099134,-0.002089
 04,0.00330898,-0.00048479,-0.00001527,0.00046402,0.00062254,-0.0005037
 9,-0.00016571,-0.00153978,0.00167115,0.00147468,-0.00198058,-0.0003624
 9,-0.00448332,-0.01636265,0.00503755,0.00717725,0.03933355,-0.04692556
 ,-0.03855129,0.01235170,-0.00672534,-0.01880334,0.00326063,-0.00039045
 ,0.00109928,-0.00006456,0.00032597,0.00026056,0.00000104,-0.00003123,0
 .00008529,0.00222973,-0.00015070,-0.00044175,0.00008209,-0.00005599,0.
 00008932,-0.00012018,0.00035746,-0.00028929,0.00004553,-0.00004848,-0.
 00003706,-0.00055863,-0.00015474,-0.00051922,-0.03824765,0.05614697,-0
 .00008042,0.00004928,0.00015062,0.00006214,0.00008200,-0.00019794,-0.0
 0083225,0.00056796,-0.00109604,-0.00027006,0.00036025,-0.00093342,0.00
 085070,-0.00112424,0.00053487,0.00049713,0.00028602,0.00044938,-0.0014
 0868,-0.00315004,-0.00211936,-0.00220240,0.00075038,-0.00377561,0.0012
 5265,0.00009327,-0.00054376,-0.00087269,0.00069410,0.00032477,0.000329
 54,-0.00126368,-0.00037280,-0.00153769,-0.00107049,0.00322249,0.002418
 75,0.00195121,0.00642664,0.13912402,-0.04291549,-0.15793616,0.01826067
 ,-0.00615798,-0.00969143,-0.00051981,-0.00068048,-0.00021174,0.0001052
 9,0.00060616,0.00044728,0.00006170,-0.00002257,-0.00003666,0.00017583,
 -0.00065778,0.00100841,-0.00001388,0.00008662,-0.00017795,-0.00000056,
 -0.00034753,0.00041058,0.00002778,0.00000200,-0.00000826,0.00015138,-0
 .00042810,0.00036748,-0.15371122,0.05400488,0.16444040,0.00006875,-0.0
 0014079,-0.00020114,0.00011482,0.00022014,0.00040691,0.00033816,-0.000
 90694,0.00034780,-0.00009904,0.00054382,-0.00033240,0.00008017,-0.0001
 0383,-0.00001919,-0.00004116,0.00005013,-0.00006162,0.00000809,-0.0001
 0409,0.00005176,0.00009827,0.00077268,0.00022784,-0.00034065,-0.000178
 15,-0.00010354,0.00018532,0.00011998,-0.00016687,-0.00001775,0.0003127
 7,-0.00061264,-0.00011387,-0.00069829,0.00095812,-0.00042385,-0.000720
 79,0.00022043,0.00898316,-0.00264152,-0.00236486,-0.20335686,0.1023133
 1,0.08076308,-0.02005489,0.01649334,0.01165627,-0.00385721,-0.00007372
 ,-0.00067539,-0.00004948,0.00003464,-0.00004038,-0.00003771,-0.0001175
 3,-0.00004769,0.00000589,-0.00000200,0.00001411,-0.00000209,-0.0000206
 0,0.00004022,0.00001983,-0.00011426,0.00003509,0.00003225,0.00001141,0
 .00003067,-0.00030016,-0.00039687,-0.00183899,0.21769279,-0.00001839,0
 .00003813,0.00011261,0.00001699,0.00006702,-0.00018738,-0.00130381,0.0
 0045951,0.00048059,0.00023278,0.00021774,-0.00077869,-0.00018230,-0.00
 006633,0.00033805,-0.00006872,-0.00000473,-0.00007515,-0.00000917,-0.0
 0033913,-0.00018419,-0.00027001,0.00039884,0.00022216,0.00042043,-0.00
 025059,-0.00043574,0.00004015,0.00049522,0.00058848,-0.00107599,0.0000
 3376,-0.00047905,-0.00069187,-0.00149667,0.00059953,0.00012257,0.00014
 328,-0.00014746,0.01859890,-0.00375893,-0.00750583,0.10229900,-0.12353
 236,-0.06950539,-0.00086423,0.00730931,-0.00005236,-0.00046770,0.00444
 538,-0.00333275,0.00006145,-0.00005719,0.00001483,-0.00004041,0.000025
 69,0.00005413,-0.00000798,0.00000459,0.00002005,-0.00001052,-0.0000257
 7,0.00005811,-0.00002332,-0.00000610,0.00011310,0.00002227,0.00000801,
 -0.00001967,-0.00189943,-0.00125188,-0.00199036,-0.11424379,0.11935408
 ,0.00001555,-0.00001649,-0.00008879,0.00011846,0.00013955,0.00017075,0
 .00114771,-0.00123939,-0.00024919,-0.00013674,0.00006174,-0.00020897,0
 .00014516,-0.00004758,0.00025314,0.00002112,0.00005991,0.00009844,-0.0
 0026408,-0.00022536,-0.00032147,-0.00072493,-0.00068706,-0.00106711,0.
 00101226,0.00017579,-0.00020009,-0.00032517,0.00037828,0.00056293,-0.0
 0060668,-0.00010009,-0.00046287,-0.00010293,0.00000160,0.00107868,0.00
 327239,0.00299064,0.00011781,0.01255846,-0.01438123,-0.00955606,0.0868
 5639,-0.06369751,-0.08717879,-0.01109056,0.00143243,0.00586406,-0.0039
 9622,-0.00232688,0.00426604,-0.00005793,0.00007245,-0.00007051,-0.0002
 1285,-0.00011037,-0.00000613,0.00000920,0.00002179,-0.00000208,0.00001
 407,-0.00007682,0.00007270,-0.00001881,-0.00001717,0.00006467,0.000009
 44,-0.00003842,0.00000549,0.00019650,-0.00403785,-0.00083385,-0.088315
 33,0.07857626,0.09042894,-0.00000224,-0.00039314,-0.00029725,-0.000051
 42,0.00011964,0.00086425,-0.00168763,0.00041939,0.00296976,0.00087047,
 0.00130586,-0.00030273,0.00029380,0.00032582,-0.00047016,-0.00010660,-
 0.00002210,-0.00010062,-0.00009348,-0.00000305,0.00014420,-0.00046997,
 -0.00047438,0.00021319,0.00032244,-0.00013109,-0.00018995,-0.00012464,
 0.00005035,0.00014055,-0.00004732,-0.00005368,-0.00006156,-0.00010611,
 0.00006714,0.00010540,0.00109897,-0.00017940,-0.00117650,-0.00517106,0
 .00015198,-0.00098587,-0.00209330,-0.02083767,-0.02074161,-0.05820095,
 -0.04176133,-0.03990102,-0.00353773,0.01857635,0.01126160,-0.00007931,
 0.00001421,-0.00009775,-0.00045790,-0.00028329,-0.00034059,0.00008379,
 0.00000834,0.00004534,-0.00005289,0.00001980,-0.00005421,-0.00000005,-
 0.00000009,-0.00000937,-0.00002702,-0.00000246,-0.00003036,-0.00008232
 ,-0.00003720,-0.00002893,0.00106721,-0.00063690,0.00047552,0.06865526,
 -0.00014351,0.00065572,0.00058269,-0.00037367,-0.00071707,-0.00135803,
 0.00137775,-0.00012070,-0.00088872,-0.00087772,-0.00074521,0.00052864,
 0.00007792,0.00019510,-0.00005110,-0.00004935,0.00002961,-0.00005415,0
 .00029652,0.00000366,0.00001609,0.00038203,-0.00083829,0.00036991,-0.0
 0007992,0.00012316,0.00029155,0.00004466,-0.00003850,0.00001478,-0.000
 07550,-0.00006988,0.00004530,-0.00017404,0.00003906,-0.00028584,-0.000
 09373,0.00091460,0.00027991,-0.00015690,0.00491266,-0.00426478,0.00277
 440,0.00037330,-0.00273251,-0.05066427,-0.19515736,-0.15147335,0.00390
 164,-0.00805213,-0.00748009,0.00018085,-0.00008757,0.00021353,0.000210
 37,0.00005843,0.00029673,-0.00007855,-0.00002023,-0.00003956,-0.000005
 73,0.00013266,-0.00008320,-0.00000336,0.00001499,0.00000820,0.00001361
 ,0.00002039,0.00000586,0.00016865,-0.00033016,0.00027460,-0.00040907,-
 0.00221087,0.00309178,0.04375691,0.20091466,-0.00015761,-0.00000680,-0
 .00015811,0.00007569,0.00028604,0.00045036,-0.00057743,0.00108499,-0.0
 0058762,0.00069485,0.00005708,-0.00014085,-0.00019823,-0.00022666,0.00
 023116,0.00007834,-0.00007078,0.00012911,-0.00015983,0.00000556,-0.000
 11154,-0.00038444,0.00098378,-0.00022115,-0.00022116,-0.00015088,-0.00
 017590,0.00011855,-0.00002283,-0.00019545,0.00008496,0.00018963,0.0001
 3092,0.00036722,-0.00018175,-0.00001275,-0.00050454,-0.00133409,-0.000
 82633,-0.00146811,-0.00410259,0.00693678,0.00014630,-0.00672185,-0.002
 45372,-0.04685390,-0.15271764,-0.16874751,0.00003957,-0.00366368,-0.00
 040520,-0.00003252,0.00001283,-0.00012629,0.00001762,0.00010800,0.0000
 1815,0.00001200,0.00001814,0.00000467,-0.00000081,-0.00012949,0.000078
 77,0.00000157,-0.00002118,0.00000250,-0.00000784,-0.00004065,0.0000100
 3,0.00033330,0.00043695,0.00015206,0.00002776,0.00351612,-0.00273776,0
 .04856869,0.16269174,0.16875569\\-0.00000104,-0.00000726,-0.00000785,0
 .00000218,0.00001657,0.00001139,-0.00000150,0.00000558,0.00001512,0.00
 000336,-0.00001283,-0.00003617,-0.00001020,-0.00000341,0.00003054,0.00
 002163,-0.00000282,-0.00000426,-0.00000375,0.00000920,-0.00000644,-0.0
 0001223,-0.00000862,-0.00000787,-0.00000423,-0.00000192,0.00000210,0.0
 0000376,-0.00000469,-0.00000295,0.00000587,0.00000137,0.00000106,-0.00
 001493,-0.00000161,0.00000075,0.00000619,0.00001248,0.00000426,0.00001
 712,0.00001015,0.00000528,-0.00001206,-0.00001213,-0.00001805,0.000009
 28,0.00001216,0.00000264,0.00000638,0.00000166,-0.00000504,0.00000130,
 -0.00000251,-0.00000082,-0.00000110,0.00000082,-0.00000477,-0.00000409
 ,-0.00000397,0.00000344,0.00000152,-0.00000024,-0.00000097,0.00000008,
 -0.00000249,0.00000219,0.00000008,-0.00000006,0.00000032,-0.00000860,-
 0.00000332,0.00000761,0.00000152,-0.00000380,0.00000802,-0.00000653,0.
 00000171,0.00000047\\\@


 Mondays are the potholes in the road of life.
                                -- Tom Wilson
 Job cpu time:       0 days 11 hours  3 minutes 37.1 seconds.
 Elapsed time:       0 days  2 hours 45 minutes 57.6 seconds.
 File lengths (MBytes):  RWF=    653 Int=      0 D2E=      0 Chk=     24 Scr=      1
 Normal termination of Gaussian 16 at Tue May 16 20:56:14 2023.
### All Done ###
