### Starting Gaussian ###
 Entering Gaussian System, Link 0=g16
 Initial command:
 /cluster/software/gaussian/gaussian-16-A.03/avx2/g16/l1.exe "/local/scratch/yxie/Gau-14175.inp" -scrdir="/local/scratch/yxie/"
 Entering Link 1 = /cluster/software/gaussian/gaussian-16-A.03/avx2/g16/l1.exe PID=     14176.
  
 Copyright (c) 1988,1990,1992,1993,1995,1998,2003,2009,2016,
            Gaussian, Inc.  All Rights Reserved.
  
 This is part of the Gaussian(R) 16 program.  It is based on
 the Gaussian(R) 09 system (copyright 2009, Gaussian, Inc.),
 the Gaussian(R) 03 system (copyright 2003, Gaussian, Inc.),
 the Gaussian(R) 98 system (copyright 1998, Gaussian, Inc.),
 the Gaussian(R) 94 system (copyright 1995, Gaussian, Inc.),
 the Gaussian 92(TM) system (copyright 1992, Gaussian, Inc.),
 the Gaussian 90(TM) system (copyright 1990, Gaussian, Inc.),
 the Gaussian 88(TM) system (copyright 1988, Gaussian, Inc.),
 the Gaussian 86(TM) system (copyright 1986, Carnegie Mellon
 University), and the Gaussian 82(TM) system (copyright 1983,
 Carnegie Mellon University). Gaussian is a federally registered
 trademark of Gaussian, Inc.
  
 This software contains proprietary and confidential information,
 including trade secrets, belonging to Gaussian, Inc.
  
 This software is provided under written license and may be
 used, copied, transmitted, or stored only in accord with that
 written license.
  
 The following legend is applicable only to US Government
 contracts under FAR:
  
                    RESTRICTED RIGHTS LEGEND
  
 Use, reproduction and disclosure by the US Government is
 subject to restrictions as set forth in subparagraphs (a)
 and (c) of the Commercial Computer Software - Restricted
 Rights clause in FAR 52.227-19.
  
 Gaussian, Inc.
 340 Quinnipiac St., Bldg. 40, Wallingford CT 06492
  
  
 ---------------------------------------------------------------
 Warning -- This program may not be used in any manner that
 competes with the business of Gaussian, Inc. or will provide
 assistance to any competitor of Gaussian, Inc.  The licensee
 of this program is prohibited from giving any competitor of
 Gaussian, Inc. access to this program.  By using this program,
 the user acknowledges that Gaussian, Inc. is engaged in the
 business of creating and licensing software in the field of
 computational chemistry and represents and warrants to the
 licensee that it is not a competitor of Gaussian, Inc. and that
 it will not use this program in any manner prohibited above.
 ---------------------------------------------------------------
  

 Cite this work as:
 Gaussian 16, Revision A.03,
 M. J. Frisch, G. W. Trucks, H. B. Schlegel, G. E. Scuseria, 
 M. A. Robb, J. R. Cheeseman, G. Scalmani, V. Barone, 
 G. A. Petersson, H. Nakatsuji, X. Li, M. Caricato, A. V. Marenich, 
 J. Bloino, B. G. Janesko, R. Gomperts, B. Mennucci, H. P. Hratchian, 
 J. V. Ortiz, A. F. Izmaylov, J. L. Sonnenberg, D. Williams-Young, 
 F. Ding, F. Lipparini, F. Egidi, J. Goings, B. Peng, A. Petrone, 
 T. Henderson, D. Ranasinghe, V. G. Zakrzewski, J. Gao, N. Rega, 
 G. Zheng, W. Liang, M. Hada, M. Ehara, K. Toyota, R. Fukuda, 
 J. Hasegawa, M. Ishida, T. Nakajima, Y. Honda, O. Kitao, H. Nakai, 
 T. Vreven, K. Throssell, J. A. Montgomery, Jr., J. E. Peralta, 
 F. Ogliaro, M. J. Bearpark, J. J. Heyd, E. N. Brothers, K. N. Kudin, 
 V. N. Staroverov, T. A. Keith, R. Kobayashi, J. Normand, 
 K. Raghavachari, A. P. Rendell, J. C. Burant, S. S. Iyengar, 
 J. Tomasi, M. Cossi, J. M. Millam, M. Klene, C. Adamo, R. Cammi, 
 J. W. Ochterski, R. L. Martin, K. Morokuma, O. Farkas, 
 J. B. Foresman, and D. J. Fox, Gaussian, Inc., Wallingford CT, 2016.
 
 ******************************************
 Gaussian 16:  ES64L-G16RevA.03 25-Dec-2016
                17-May-2023 
 ******************************************
 %chk=SdNCSCC1dCCdCCdCCqdSrS1.chk
 %NProcShared=20
 Will use up to   20 processors via shared memory.
 -----------------------------
 # opt freq b3lyp/6-31g(2df,p)
 -----------------------------
 1/18=20,19=15,26=3,38=1/1,3;
 2/9=110,12=2,17=6,18=5,40=1/2;
 3/5=1,6=6,7=104,11=2,25=1,30=1,71=1,74=-5/1,2,3;
 4//1;
 5/5=2,38=5/2;
 6/7=2,8=2,9=2,10=2,28=1/1;
 7//1,2,3,16;
 1/18=20,19=15,26=3/3(2);
 2/9=110/2;
 99//99;
 2/9=110/2;
 3/5=1,6=6,7=104,11=2,25=1,30=1,71=1,74=-5/1,2,3;
 4/5=5,16=3,69=1/1;
 5/5=2,38=5/2;
 7//1,2,3,16;
 1/18=20,19=15,26=3/3(-5);
 2/9=110/2;
 6/7=2,8=2,9=2,10=2,19=2,28=1/1;
 99/9=1/99;
 -------------------
 Title Card Required
 -------------------
 Symbolic Z-matrix:
 Charge =  0 Multiplicity = 1
 S                     1.06091   0.00953   0.13748 
 N                     2.57839  -0.06516   0.06071 
 C                     3.31609   0.84619   0.99742 
 S                     5.3515    0.45062   0.59084 
 C                     6.51611   1.47621   1.64498 
 C                     8.43371   1.51525   1.68511 
 C                     8.33467   2.44284   2.64102 
 C                     9.51138   2.81736   3.01834 
 C                     10.62061   3.20236   3.42178 
 C                     11.85131   2.46188   2.65811 
 C                     12.58289   3.25212   3.4703 
 C                     12.4407   2.29844   2.49009 
 S                     14.47141   2.31977   2.51201 
 S                     10.63948   1.08494   1.24281 
 H                     3.08725   0.6128    2.04936 
 H                     3.08725   1.90414   0.79299 
 H                     6.06404   1.35829   2.70403 
 H                     6.06404   2.5381    1.55616 
 H                     7.60759   2.9738    3.18421 
 H                     10.03347   2.2496    2.4399 
 H                     10.46225   3.92706   4.16397 
 H                     12.3995   1.34218   1.50721 
 H                     12.41383   3.98756   4.2262 
 
 Add virtual bond connecting atoms H22        and C12        Dist= 2.59D+00.
 Add virtual bond connecting atoms H20        and S14        Dist= 3.36D+00.
 Add virtual bond connecting atoms H22        and S14        Dist= 3.40D+00.
 Add virtual bond connecting atoms C6         and C5         Dist= 3.63D+00.

 GradGradGradGradGradGradGradGradGradGradGradGradGradGradGradGradGradGrad
 Berny optimization.
 Initialization pass.
                           ----------------------------
                           !    Initial Parameters    !
                           ! (Angstroms and Degrees)  !
 --------------------------                            --------------------------
 ! Name  Definition              Value          Derivative Info.                !
 --------------------------------------------------------------------------------
 ! R1    R(1,2)                  1.5213         estimate D2E/DX2                !
 ! R2    R(2,3)                  1.5007         estimate D2E/DX2                !
 ! R3    R(3,4)                  2.113          estimate D2E/DX2                !
 ! R4    R(3,15)                 1.1016         estimate D2E/DX2                !
 ! R5    R(3,16)                 1.1016         estimate D2E/DX2                !
 ! R6    R(4,5)                  1.876          estimate D2E/DX2                !
 ! R7    R(5,6)                  1.9184         estimate D2E/DX2                !
 ! R8    R(5,17)                 1.1575         estimate D2E/DX2                !
 ! R9    R(5,18)                 1.1575         estimate D2E/DX2                !
 ! R10   R(6,7)                  1.3357         estimate D2E/DX2                !
 ! R11   R(7,8)                  1.2912         estimate D2E/DX2                !
 ! R12   R(7,19)                 1.0515         estimate D2E/DX2                !
 ! R13   R(8,9)                  1.2415         estimate D2E/DX2                !
 ! R14   R(8,20)                 0.9641         estimate D2E/DX2                !
 ! R15   R(9,10)                 1.6267         estimate D2E/DX2                !
 ! R16   R(9,21)                 1.0493         estimate D2E/DX2                !
 ! R17   R(10,11)                1.3488         estimate D2E/DX2                !
 ! R18   R(10,12)                0.6343         estimate D2E/DX2                !
 ! R19   R(11,12)                1.375          estimate D2E/DX2                !
 ! R20   R(11,23)                1.0681         estimate D2E/DX2                !
 ! R21   R(12,13)                2.0309         estimate D2E/DX2                !
 ! R22   R(12,22)                1.3719         estimate D2E/DX2                !
 ! R23   R(14,20)                1.7767         estimate D2E/DX2                !
 ! R24   R(14,22)                1.7983         estimate D2E/DX2                !
 ! A1    A(1,2,3)              115.4058         estimate D2E/DX2                !
 ! A2    A(2,3,4)              103.8704         estimate D2E/DX2                !
 ! A3    A(2,3,15)             111.4245         estimate D2E/DX2                !
 ! A4    A(2,3,16)             111.4248         estimate D2E/DX2                !
 ! A5    A(4,3,15)             110.1333         estimate D2E/DX2                !
 ! A6    A(4,3,16)             110.1334         estimate D2E/DX2                !
 ! A7    A(15,3,16)            109.728          estimate D2E/DX2                !
 ! A8    A(3,4,5)              112.8013         estimate D2E/DX2                !
 ! A9    A(4,5,6)              130.0466         estimate D2E/DX2                !
 ! A10   A(4,5,17)             102.472          estimate D2E/DX2                !
 ! A11   A(4,5,18)             102.4716         estimate D2E/DX2                !
 ! A12   A(6,5,17)             111.9204         estimate D2E/DX2                !
 ! A13   A(6,5,18)             111.9204         estimate D2E/DX2                !
 ! A14   A(17,5,18)             90.6378         estimate D2E/DX2                !
 ! A15   A(5,6,7)               87.4199         estimate D2E/DX2                !
 ! A16   A(6,7,8)              110.0593         estimate D2E/DX2                !
 ! A17   A(6,7,19)             140.5046         estimate D2E/DX2                !
 ! A18   A(8,7,19)             109.4345         estimate D2E/DX2                !
 ! A19   A(7,8,20)              98.4742         estimate D2E/DX2                !
 ! A20   A(9,8,20)              83.9015         estimate D2E/DX2                !
 ! A21   A(8,9,10)             112.4721         estimate D2E/DX2                !
 ! A22   A(8,9,21)             108.0092         estimate D2E/DX2                !
 ! A23   A(10,9,21)            139.5171         estimate D2E/DX2                !
 ! A24   A(9,10,11)             82.0084         estimate D2E/DX2                !
 ! A25   A(9,10,12)            160.8501         estimate D2E/DX2                !
 ! A26   A(10,11,23)           138.047          estimate D2E/DX2                !
 ! A27   A(12,11,23)           164.9571         estimate D2E/DX2                !
 ! A28   A(10,12,13)           157.4494         estimate D2E/DX2                !
 ! A29   A(10,12,22)           109.9668         estimate D2E/DX2                !
 ! A30   A(11,12,13)            83.2014         estimate D2E/DX2                !
 ! A31   A(13,12,22)            92.5838         estimate D2E/DX2                !
 ! A32   A(20,14,22)            98.1055         estimate D2E/DX2                !
 ! A33   A(12,22,14)           103.5584         estimate D2E/DX2                !
 ! A34   L(7,8,9,20,-1)        182.3757         estimate D2E/DX2                !
 ! A35   L(11,12,22,13,-1)     175.7851         estimate D2E/DX2                !
 ! A36   L(8,20,14,1,-1)       167.1556         estimate D2E/DX2                !
 ! A37   L(7,8,9,20,-2)        180.4975         estimate D2E/DX2                !
 ! A38   L(11,12,22,13,-2)     180.0005         estimate D2E/DX2                !
 ! A39   L(8,20,14,1,-2)       179.7817         estimate D2E/DX2                !
 ! D1    D(1,2,3,4)           -180.0            estimate D2E/DX2                !
 ! D2    D(1,2,3,15)            61.4612         estimate D2E/DX2                !
 ! D3    D(1,2,3,16)           -61.4611         estimate D2E/DX2                !
 ! D4    D(2,3,4,5)           -179.9997         estimate D2E/DX2                !
 ! D5    D(15,3,4,5)           -60.5764         estimate D2E/DX2                !
 ! D6    D(16,3,4,5)            60.5766         estimate D2E/DX2                !
 ! D7    D(3,4,5,6)            179.9999         estimate D2E/DX2                !
 ! D8    D(3,4,5,17)            46.7367         estimate D2E/DX2                !
 ! D9    D(3,4,5,18)           -46.7373         estimate D2E/DX2                !
 ! D10   D(4,5,6,7)           -179.9251         estimate D2E/DX2                !
 ! D11   D(17,5,6,7)           -49.9603         estimate D2E/DX2                !
 ! D12   D(18,5,6,7)            50.1107         estimate D2E/DX2                !
 ! D13   D(5,6,7,8)           -179.7181         estimate D2E/DX2                !
 ! D14   D(5,6,7,19)            -0.2396         estimate D2E/DX2                !
 ! D15   D(6,7,8,20)            -0.4156         estimate D2E/DX2                !
 ! D16   D(19,7,8,20)          179.9361         estimate D2E/DX2                !
 ! D17   D(6,7,9,10)            -0.0098         estimate D2E/DX2                !
 ! D18   D(6,7,9,21)           179.8132         estimate D2E/DX2                !
 ! D19   D(19,7,9,10)         -179.8287         estimate D2E/DX2                !
 ! D20   D(19,7,9,21)           -0.0056         estimate D2E/DX2                !
 ! D21   D(20,8,9,10)            0.3583         estimate D2E/DX2                !
 ! D22   D(20,8,9,21)          179.9988         estimate D2E/DX2                !
 ! D23   D(7,8,14,22)         -179.7807         estimate D2E/DX2                !
 ! D24   D(9,8,14,22)           -0.2685         estimate D2E/DX2                !
 ! D25   D(8,9,10,11)          179.6945         estimate D2E/DX2                !
 ! D26   D(8,9,10,12)          179.8813         estimate D2E/DX2                !
 ! D27   D(21,9,10,11)           0.2212         estimate D2E/DX2                !
 ! D28   D(21,9,10,12)           0.408          estimate D2E/DX2                !
 ! D29   D(9,10,11,23)          -0.0632         estimate D2E/DX2                !
 ! D30   D(9,10,12,13)          -0.1831         estimate D2E/DX2                !
 ! D31   D(9,10,12,22)         179.8119         estimate D2E/DX2                !
 ! D32   D(23,11,12,13)       -179.9999         estimate D2E/DX2                !
 ! D33   D(23,11,22,14)         -0.001          estimate D2E/DX2                !
 ! D34   D(10,12,22,14)          0.002          estimate D2E/DX2                !
 ! D35   D(13,12,22,14)       -179.9999         estimate D2E/DX2                !
 ! D36   D(20,14,22,12)         -0.0002         estimate D2E/DX2                !
 --------------------------------------------------------------------------------
 Trust Radius=3.00D-01 FncErr=1.00D-07 GrdErr=1.00D-06 EigMax=2.50D+02 EigMin=1.00D-04
 Number of steps in this run=    109 maximum allowed number of steps=    138.
 GradGradGradGradGradGradGradGradGradGradGradGradGradGradGradGradGradGrad

                          Input orientation:                          
 ---------------------------------------------------------------------
 Center     Atomic      Atomic             Coordinates (Angstroms)
 Number     Number       Type             X           Y           Z
 ---------------------------------------------------------------------
      1         16           0        1.060910    0.009530    0.137480
      2          7           0        2.578390   -0.065160    0.060710
      3          6           0        3.316090    0.846190    0.997420
      4         16           0        5.351500    0.450620    0.590840
      5          6           0        6.516110    1.476210    1.644980
      6          6           0        8.433710    1.515250    1.685110
      7          6           0        8.334670    2.442840    2.641020
      8          6           0        9.511380    2.817360    3.018340
      9          6           0       10.620610    3.202360    3.421780
     10          6           0       11.851310    2.461880    2.658110
     11          6           0       12.582890    3.252120    3.470300
     12          6           0       12.440700    2.298440    2.490090
     13         16           0       14.471410    2.319770    2.512010
     14         16           0       10.639480    1.084940    1.242810
     15          1           0        3.087250    0.612800    2.049360
     16          1           0        3.087250    1.904140    0.792990
     17          1           0        6.064040    1.358290    2.704030
     18          1           0        6.064040    2.538100    1.556160
     19          1           0        7.607590    2.973800    3.184210
     20          1           0       10.033470    2.249600    2.439900
     21          1           0       10.462250    3.927060    4.163970
     22          1           0       12.399500    1.342180    1.507210
     23          1           0       12.413830    3.987560    4.226200
 ---------------------------------------------------------------------
                    Distance matrix (angstroms):
                    1          2          3          4          5
     1  S    0.000000
     2  N    1.521255   0.000000
     3  C    2.554473   1.500728   0.000000
     4  S    4.336964   2.870053   2.112978   0.000000
     5  C    5.846616   4.515681   3.325115   1.875996   0.000000
     6  C    7.682482   6.278626   5.206783   3.439605   1.918417
     7  C    8.068227   6.788433   5.516961   4.131765   2.287713
     8  C    9.359151   8.069873   6.808175   5.366453   3.557590
     9  C   10.600408   9.308640   8.048917   6.584058   4.794114
    10  C   11.349023   9.955876   8.844112   7.110999   5.519270
    11  C   12.424898  11.077891   9.888236   8.272406   6.579625
    12  C   11.843712  10.428502   9.359252   7.568246   6.040781
    13  S   13.813657  12.375003  11.353704   9.505650   8.046747
    14  S    9.701921   8.228078   7.331389   5.365646   4.161372
    15  H    2.850487   2.161781   1.101552   2.698224   3.558944
    16  H    2.850490   2.161785   1.101552   2.698224   3.558945
    17  H    5.782529   4.600338   3.275056   2.407727   1.157523
    18  H    5.782528   4.600336   3.275054   2.407723   1.157526
    19  H    7.805670   6.654651   5.265524   4.264029   2.409011
    20  H    9.530262   8.160691   7.012382   5.345671   3.688069
    21  H   10.951934   9.743193   8.401571   7.139514   5.284316
    22  H   11.498510  10.026324   9.111214   7.163024   5.886529
    23  H   12.705556  11.424173  10.151950   8.694958   6.910331
                    6          7          8          9         10
     6  C    0.000000
     7  C    1.335663   0.000000
     8  C    2.152758   1.291233   0.000000
     9  C    3.262651   2.532188   1.241523   0.000000
    10  C    3.677340   3.516733   2.394035   1.626691   0.000000
    11  C    4.839351   4.403409   3.134878   1.963510   1.348830
    12  C    4.161412   4.111340   3.021464   2.235586   0.634290
    13  S    6.146937   6.139330   5.010575   4.054048   2.628015
    14  S    2.290462   3.018449   2.725141   3.038377   2.316802
    15  H    5.434310   5.588786   6.860645   8.083370   8.977662
    16  H    5.434312   5.589350   6.859708   8.083775   8.977666
    17  H    2.584216   2.517137   3.756571   4.967705   5.891733
    18  H    2.584219   2.518284   3.755011   4.968311   5.891740
    19  H    2.248809   1.051484   1.917395   3.031001   4.306739
    20  H    1.915257   1.721544   0.964117   1.488816   1.843155
    21  H    4.009557   3.008136   1.856894   1.049340   2.518701
    22  H    3.973549   4.361172   3.577836   3.207849   1.696706
    23  H    5.330179   4.640959   3.354476   2.116428   2.258990
                   11         12         13         14         15
    11  C    0.000000
    12  C    1.374967   0.000000
    13  S    2.313894   2.030940   0.000000
    14  S    3.665409   2.504533   4.221299   0.000000
    15  H    9.957523   9.514339  11.520716   7.609837   0.000000
    16  H    9.957521   9.514339  11.520715   7.609836   1.801673
    17  H    6.831484   6.449143   8.464348   4.810877   3.137774
    18  H    6.831483   6.449144   8.464348   4.810874   3.579288
    19  H    4.991284   4.929185   6.927599   4.065610   5.224527
    20  H    2.926826   2.408248   4.439080   1.776712   7.147140
    21  H    2.331059   3.060807   4.624469   4.079489   8.357423
    22  H    2.745036   1.371927   2.501623   1.798263   9.356491
    23  H    1.068100   2.422380   3.154934   4.524836  10.154444
                   16         17         18         19         20
    16  H    0.000000
    17  H    3.579288   0.000000
    18  H    3.137772   1.646073   0.000000
    19  H    5.224517   2.285387   2.285373   0.000000
    20  H    7.147141   4.076834   4.076837   2.638817   0.000000
    21  H    8.357412   5.298514   5.298503   3.165078   2.443387
    22  H    9.356490   6.447534   6.447532   5.332627   2.700263
    23  H   10.154441   7.039169   7.039168   5.021294   3.446373
                   21         22         23
    21  H    0.000000
    22  H    4.182453   0.000000
    23  H    1.953509   3.793567   0.000000
 Stoichiometry    C9H9NS4
 Framework group  C1[X(C9H9NS4)]
 Deg. of freedom    63
 Full point group                 C1      NOp   1
 Largest Abelian subgroup         C1      NOp   1
 Largest concise Abelian subgroup C1      NOp   1
                         Standard orientation:                         
 ---------------------------------------------------------------------
 Center     Atomic      Atomic             Coordinates (Angstroms)
 Number     Number       Type             X           Y           Z
 ---------------------------------------------------------------------
      1         16           0        7.436815   -0.016106   -0.000001
      2          7           0        6.015532   -0.558482   -0.000003
      3          6           0        4.930677    0.478474    0.000005
      4         16           0        3.147083   -0.654428   -0.000001
      5          6           0        1.606158    0.415578   -0.000000
      6          6           0       -0.245343   -0.086686   -0.000006
      7          6           0       -0.536653    1.216822   -0.001746
      8          6           0       -1.816938    1.384518    0.003571
      9          6           0       -3.040186    1.596687   -0.001815
     10          6           0       -3.909713    0.221897   -0.000022
     11          6           0       -4.938359    1.094381    0.000013
     12          6           0       -4.405854   -0.173284   -0.000002
     13         16           0       -6.358245   -0.732646   -0.000002
     14         16           0       -2.177541   -1.316657   -0.000002
     15          1           0        4.978318    1.110649   -0.900829
     16          1           0        4.978317    1.110642    0.900843
     17          1           0        1.842627    1.194401   -0.823029
     18          1           0        1.842628    1.194389    0.823044
     19          1           0       -0.060966    2.154552    0.000035
     20          1           0       -2.081673    0.457466   -0.000005
     21          1           0       -3.189309    2.635375    0.000058
     22          1           0       -3.968927   -1.473775   -0.000004
     23          1           0       -5.082260    2.152743    0.000023
 ---------------------------------------------------------------------
 Rotational constants (GHZ):           2.4186753           0.0946664           0.0911994
 Standard basis: 6-31G(2df,p) (6D, 7F)
 There are   495 symmetry adapted cartesian basis functions of A   symmetry.
 There are   453 symmetry adapted basis functions of A   symmetry.
   453 basis functions,   775 primitive gaussians,   495 cartesian basis functions
    67 alpha electrons       67 beta electrons
       nuclear repulsion energy      1115.5857495350 Hartrees.
 NAtoms=   23 NActive=   23 NUniq=   23 SFac= 1.00D+00 NAtFMM=   60 NAOKFM=F Big=F
 Integral buffers will be    131072 words long.
 Raffenetti 2 integral format.
 Two-electron integral symmetry is turned on.
 One-electron integrals computed using PRISM.
 PrsmSu:  requested number of processors reduced to:  12 ShMem   1 Linda.
 NBasis=   453 RedAO= T EigKep=  3.28D-06  NBF=   453
 NBsUse=   453 1.00D-06 EigRej= -1.00D+00 NBFU=   453
 ExpMin= 1.17D-01 ExpMax= 2.19D+04 ExpMxC= 3.30D+03 IAcc=3 IRadAn=         5 AccDes= 0.00D+00
 Harris functional with IExCor=  402 and IRadAn=       5 diagonalized for initial guess.
 HarFok:  IExCor=  402 AccDes= 0.00D+00 IRadAn=         5 IDoV= 1 UseB2=F ITyADJ=14
 ICtDFT=  3500011 ScaDFX=  1.000000  1.000000  1.000000  1.000000
 FoFCou: FMM=F IPFlag=           0 FMFlag=      100000 FMFlg1=           0
         NFxFlg=           0 DoJE=T BraDBF=F KetDBF=T FulRan=T
         wScrn=  0.000000 ICntrl=       500 IOpCl=  0 I1Cent=   200000004 NGrid=           0
         NMat0=    1 NMatS0=      1 NMatT0=    0 NMatD0=    1 NMtDS0=    0 NMtDT0=    0
 Petite list used in FoFCou.
 Requested convergence on RMS density matrix=1.00D-08 within 128 cycles.
 Requested convergence on MAX density matrix=1.00D-06.
 Requested convergence on             energy=1.00D-06.
 No special actions if energy rises.
 Integral accuracy reduced to 1.0D-05 until final iterations.
 Rare condition: small coef for last iteration:  0.000D+00
 Problem detected with inexpensive integrals.
 Switching to full accuracy and repeating last cycle.
 EnCoef did   100 forward-backward iterations
 EnCoef did   100 forward-backward iterations
 EnCoef did    17 forward-backward iterations
 EnCoef did     6 forward-backward iterations
 EnCoef did     4 forward-backward iterations
 EnCoef did     3 forward-backward iterations
 EnCoef did     6 forward-backward iterations
 EnCoef did   100 forward-backward iterations
 EnCoef did     1 forward-backward iterations
 EnCoef did     1 forward-backward iterations
 EnCoef did     8 forward-backward iterations
 EnCoef did     3 forward-backward iterations
 Restarting incremental Fock formation.
 SCF Done:  E(RB3LYP) =  -1992.39334717     A.U. after   41 cycles
            NFock= 41  Conv=0.31D-08     -V/T= 1.9990

 **********************************************************************

            Population analysis using the SCF density.

 **********************************************************************

 Orbital symmetries:
       Occupied  (A) (A) (A) (A) (A) (A) (A) (A) (A) (A) (A) (A)
                 (A) (A) (A) (A) (A) (A) (A) (A) (A) (A) (A) (A)
                 (A) (A) (A) (A) (A) (A) (A) (A) (A) (A) (A) (A)
                 (A) (A) (A) (A) (A) (A) (A) (A) (A) (A) (A) (A)
                 (A) (A) (A) (A) (A) (A) (A) (A) (A) (A) (A) (A)
                 (A) (A) (A) (A) (A) (A) (A)
       Virtual   (A) (A) (A) (A) (A) (A) (A) (A) (A) (A) (A) (A)
                 (A) (A) (A) (A) (A) (A) (A) (A) (A) (A) (A) (A)
                 (A) (A) (A) (A) (A) (A) (A) (A) (A) (A) (A) (A)
                 (A) (A) (A) (A) (A) (A) (A) (A) (A) (A) (A) (A)
                 (A) (A) (A) (A) (A) (A) (A) (A) (A) (A) (A) (A)
                 (A) (A) (A) (A) (A) (A) (A) (A) (A) (A) (A) (A)
                 (A) (A) (A) (A) (A) (A) (A) (A) (A) (A) (A) (A)
                 (A) (A) (A) (A) (A) (A) (A) (A) (A) (A) (A) (A)
                 (A) (A) (A) (A) (A) (A) (A) (A) (A) (A) (A) (A)
                 (A) (A) (A) (A) (A) (A) (A) (A) (A) (A) (A) (A)
                 (A) (A) (A) (A) (A) (A) (A) (A) (A) (A) (A) (A)
                 (A) (A) (A) (A) (A) (A) (A) (A) (A) (A) (A) (A)
                 (A) (A) (A) (A) (A) (A) (A) (A) (A) (A) (A) (A)
                 (A) (A) (A) (A) (A) (A) (A) (A) (A) (A) (A) (A)
                 (A) (A) (A) (A) (A) (A) (A) (A) (A) (A) (A) (A)
                 (A) (A) (A) (A) (A) (A) (A) (A) (A) (A) (A) (A)
                 (A) (A) (A) (A) (A) (A) (A) (A) (A) (A) (A) (A)
                 (A) (A) (A) (A) (A) (A) (A) (A) (A) (A) (A) (A)
                 (A) (A) (A) (A) (A) (A) (A) (A) (A) (A) (A) (A)
                 (A) (A) (A) (A) (A) (A) (A) (A) (A) (A) (A) (A)
                 (A) (A) (A) (A) (A) (A) (A) (A) (A) (A) (A) (A)
                 (A) (A) (A) (A) (A) (A) (A) (A) (A) (A) (A) (A)
                 (A) (A) (A) (A) (A) (A) (A) (A) (A) (A) (A) (A)
                 (A) (A) (A) (A) (A) (A) (A) (A) (A) (A) (A) (A)
                 (A) (A) (A) (A) (A) (A) (A) (A) (A) (A) (A) (A)
                 (A) (A) (A) (A) (A) (A) (A) (A) (A) (A) (A) (A)
                 (A) (A) (A) (A) (A) (A) (A) (A) (A) (A) (A) (A)
                 (A) (A) (A) (A) (A) (A) (A) (A) (A) (A) (A) (A)
                 (A) (A) (A) (A) (A) (A) (A) (A) (A) (A) (A) (A)
                 (A) (A) (A) (A) (A) (A) (A) (A) (A) (A) (A) (A)
                 (A) (A) (A) (A) (A) (A) (A) (A) (A) (A) (A) (A)
                 (A) (A) (A) (A) (A) (A) (A) (A) (A) (A) (A) (A)
                 (A) (A)
 The electronic state is 1-A.
 Alpha  occ. eigenvalues --  -88.93284 -88.91905 -88.87270 -88.87026 -14.40777
 Alpha  occ. eigenvalues --  -10.68932 -10.35927 -10.34431 -10.27069 -10.25711
 Alpha  occ. eigenvalues --  -10.25354 -10.24108 -10.19997 -10.19577  -7.99211
 Alpha  occ. eigenvalues --   -7.98279  -7.93582  -7.93107  -5.95880  -5.95328
 Alpha  occ. eigenvalues --   -5.94781  -5.94593  -5.94573  -5.93596  -5.90228
 Alpha  occ. eigenvalues --   -5.89615  -5.89530  -5.89251  -5.89058  -5.88615
 Alpha  occ. eigenvalues --   -1.08808  -0.96002  -0.92946  -0.81506  -0.78980
 Alpha  occ. eigenvalues --   -0.75561  -0.72189  -0.71358  -0.70105  -0.66424
 Alpha  occ. eigenvalues --   -0.65696  -0.62440  -0.59443  -0.58723  -0.57058
 Alpha  occ. eigenvalues --   -0.54911  -0.48823  -0.47064  -0.45633  -0.43764
 Alpha  occ. eigenvalues --   -0.41593  -0.40820  -0.37931  -0.37312  -0.36433
 Alpha  occ. eigenvalues --   -0.35518  -0.33454  -0.31966  -0.30275  -0.28630
 Alpha  occ. eigenvalues --   -0.28103  -0.27894  -0.24135  -0.22333  -0.22220
 Alpha  occ. eigenvalues --   -0.21942  -0.21261
 Alpha virt. eigenvalues --   -0.18686  -0.12938  -0.11695  -0.08865  -0.05526
 Alpha virt. eigenvalues --   -0.03404  -0.00971   0.02545   0.04149   0.05410
 Alpha virt. eigenvalues --    0.06364   0.08280   0.08658   0.10296   0.12779
 Alpha virt. eigenvalues --    0.13645   0.15234   0.15814   0.16162   0.16865
 Alpha virt. eigenvalues --    0.17243   0.19350   0.21257   0.21636   0.22720
 Alpha virt. eigenvalues --    0.22975   0.25453   0.26354   0.26425   0.27795
 Alpha virt. eigenvalues --    0.29662   0.31435   0.32433   0.32979   0.33989
 Alpha virt. eigenvalues --    0.34497   0.34869   0.35003   0.35722   0.36268
 Alpha virt. eigenvalues --    0.36535   0.36841   0.37763   0.37924   0.38562
 Alpha virt. eigenvalues --    0.38936   0.39356   0.39938   0.41156   0.42411
 Alpha virt. eigenvalues --    0.42617   0.43390   0.45013   0.45584   0.45623
 Alpha virt. eigenvalues --    0.46637   0.47002   0.47871   0.47902   0.50281
 Alpha virt. eigenvalues --    0.50707   0.51799   0.53660   0.54099   0.54255
 Alpha virt. eigenvalues --    0.56054   0.56827   0.59261   0.60728   0.61225
 Alpha virt. eigenvalues --    0.62335   0.63741   0.64577   0.65429   0.67012
 Alpha virt. eigenvalues --    0.67137   0.67218   0.68843   0.70316   0.70505
 Alpha virt. eigenvalues --    0.71340   0.72399   0.72952   0.73858   0.74993
 Alpha virt. eigenvalues --    0.75480   0.76839   0.77621   0.78143   0.79186
 Alpha virt. eigenvalues --    0.79687   0.80399   0.80851   0.81114   0.82092
 Alpha virt. eigenvalues --    0.82540   0.84341   0.85815   0.89991   0.90246
 Alpha virt. eigenvalues --    0.90704   0.91604   0.91976   0.93423   0.94472
 Alpha virt. eigenvalues --    0.95744   0.96219   0.97989   1.00777   1.02200
 Alpha virt. eigenvalues --    1.03371   1.06855   1.07623   1.09566   1.10878
 Alpha virt. eigenvalues --    1.11647   1.13295   1.14612   1.17360   1.18609
 Alpha virt. eigenvalues --    1.19428   1.20146   1.20481   1.22536   1.25360
 Alpha virt. eigenvalues --    1.25537   1.26991   1.27469   1.28065   1.29579
 Alpha virt. eigenvalues --    1.29751   1.32485   1.33249   1.34749   1.36379
 Alpha virt. eigenvalues --    1.38763   1.40338   1.41250   1.43970   1.44501
 Alpha virt. eigenvalues --    1.45441   1.48564   1.48946   1.50057   1.50939
 Alpha virt. eigenvalues --    1.54461   1.55815   1.58527   1.59447   1.59876
 Alpha virt. eigenvalues --    1.61896   1.62340   1.62827   1.63255   1.63560
 Alpha virt. eigenvalues --    1.64785   1.66901   1.67256   1.67565   1.68406
 Alpha virt. eigenvalues --    1.68510   1.69708   1.70752   1.72084   1.73497
 Alpha virt. eigenvalues --    1.73846   1.74142   1.76337   1.76954   1.77299
 Alpha virt. eigenvalues --    1.78066   1.79427   1.79810   1.82196   1.83802
 Alpha virt. eigenvalues --    1.84146   1.84646   1.89317   1.89802   1.91223
 Alpha virt. eigenvalues --    1.93376   1.94866   1.97214   1.99701   2.00706
 Alpha virt. eigenvalues --    2.01960   2.04612   2.06540   2.06695   2.07676
 Alpha virt. eigenvalues --    2.08719   2.08920   2.10616   2.12410   2.12922
 Alpha virt. eigenvalues --    2.14494   2.14803   2.17115   2.20190   2.20704
 Alpha virt. eigenvalues --    2.21937   2.24195   2.25033   2.25954   2.26394
 Alpha virt. eigenvalues --    2.29971   2.30203   2.30936   2.33225   2.33446
 Alpha virt. eigenvalues --    2.34272   2.35969   2.37767   2.40939   2.41453
 Alpha virt. eigenvalues --    2.43763   2.43883   2.44264   2.47080   2.49674
 Alpha virt. eigenvalues --    2.49983   2.51778   2.53254   2.53903   2.54918
 Alpha virt. eigenvalues --    2.54986   2.57396   2.59966   2.67286   2.69418
 Alpha virt. eigenvalues --    2.70750   2.72992   2.73699   2.74667   2.75864
 Alpha virt. eigenvalues --    2.77394   2.80216   2.80556   2.81140   2.84370
 Alpha virt. eigenvalues --    2.84667   2.87771   2.88708   2.92094   2.93809
 Alpha virt. eigenvalues --    2.94185   2.96838   2.98454   3.03830   3.04511
 Alpha virt. eigenvalues --    3.06133   3.07726   3.09251   3.10721   3.11715
 Alpha virt. eigenvalues --    3.12988   3.14050   3.17026   3.18433   3.20579
 Alpha virt. eigenvalues --    3.21033   3.21165   3.24263   3.24731   3.25796
 Alpha virt. eigenvalues --    3.26460   3.27458   3.29299   3.31179   3.33493
 Alpha virt. eigenvalues --    3.34613   3.35355   3.36609   3.38467   3.40488
 Alpha virt. eigenvalues --    3.41348   3.43579   3.47097   3.47173   3.50354
 Alpha virt. eigenvalues --    3.53214   3.54316   3.55057   3.57267   3.59234
 Alpha virt. eigenvalues --    3.60793   3.61584   3.62448   3.68287   3.68572
 Alpha virt. eigenvalues --    3.69294   3.75540   3.75978   3.79019   3.80514
 Alpha virt. eigenvalues --    3.82431   3.83080   3.84241   3.84998   3.86636
 Alpha virt. eigenvalues --    3.91875   3.92613   3.97119   3.99045   4.01622
 Alpha virt. eigenvalues --    4.04841   4.08694   4.10819   4.12545   4.13980
 Alpha virt. eigenvalues --    4.17842   4.22129   4.22195   4.23099   4.27180
 Alpha virt. eigenvalues --    4.27306   4.29111   4.29203   4.31173   4.32736
 Alpha virt. eigenvalues --    4.37631   4.38983   4.39242   4.39482   4.41201
 Alpha virt. eigenvalues --    4.43137   4.44261   4.46196   4.46550   4.47672
 Alpha virt. eigenvalues --    4.50723   4.53030   4.54185   4.56652   4.57586
 Alpha virt. eigenvalues --    4.57907   4.60427   4.66327   4.68591   4.69815
 Alpha virt. eigenvalues --    4.70919   4.73260   4.74704   4.75422   4.81314
 Alpha virt. eigenvalues --    4.81617   4.85405   4.88712   4.91926   4.95353
 Alpha virt. eigenvalues --    4.95992   5.01983   5.04270   5.08250   5.13396
 Alpha virt. eigenvalues --    5.17728   5.21817   5.23689   5.25950   5.30686
 Alpha virt. eigenvalues --    5.36295   5.42287   5.47889   5.53156   5.68013
 Alpha virt. eigenvalues --    5.89426   5.96369   6.08900   6.10321   6.19741
 Alpha virt. eigenvalues --    6.61586   6.72897   7.29048   7.54500   8.09019
 Alpha virt. eigenvalues --    8.57932  10.05805  10.12261  10.63132  11.03854
 Alpha virt. eigenvalues --   11.31395  11.34620  11.50575  11.67683  12.32063
 Alpha virt. eigenvalues --   14.01897
          Condensed to atoms (all electrons):
               1          2          3          4          5          6
     1  S   15.708837   0.464726  -0.128068   0.004293  -0.000004   0.000000
     2  N    0.464726   6.316978   0.285606  -0.008731   0.000454  -0.000000
     3  C   -0.128068   0.285606   5.111249   0.235478  -0.003963   0.000139
     4  S    0.004293  -0.008731   0.235478  15.794524   0.277505  -0.005789
     5  C   -0.000004   0.000454  -0.003963   0.277505   5.184451   0.173001
     6  C    0.000000  -0.000000   0.000139  -0.005789   0.173001   5.495857
     7  C    0.000000   0.000000  -0.000018  -0.001614  -0.001222   0.446552
     8  C    0.000000   0.000000  -0.000000  -0.000548  -0.004349   0.032106
     9  C   -0.000000   0.000000  -0.000000  -0.000008  -0.001081   0.013682
    10  C   -0.000000  -0.000000  -0.000000   0.000000  -0.000004   0.006825
    11  C    0.000000  -0.000000   0.000000  -0.000000   0.000000  -0.000049
    12  C   -0.000000  -0.000000  -0.000000  -0.000000   0.000010  -0.001362
    13  S    0.000000  -0.000000   0.000000  -0.000000   0.000000  -0.000040
    14  S   -0.000000   0.000000  -0.000000   0.000083  -0.003582   0.119364
    15  H    0.005356  -0.016043   0.347428  -0.030015   0.000455  -0.000006
    16  H    0.005519  -0.016387   0.347858  -0.029683   0.000450  -0.000005
    17  H    0.000006   0.000007  -0.001889  -0.054980   0.339309  -0.013273
    18  H    0.000007   0.000002  -0.001796  -0.054132   0.348982  -0.009656
    19  H   -0.000000   0.000000  -0.000007   0.000439  -0.016668  -0.046169
    20  H    0.000000  -0.000000   0.000000  -0.000010   0.001941  -0.067361
    21  H    0.000000  -0.000000   0.000000  -0.000000   0.000041  -0.001360
    22  H   -0.000000   0.000000  -0.000000   0.000000  -0.000008   0.002663
    23  H    0.000000  -0.000000   0.000000   0.000000   0.000000  -0.000025
               7          8          9         10         11         12
     1  S    0.000000   0.000000  -0.000000  -0.000000   0.000000  -0.000000
     2  N    0.000000   0.000000   0.000000  -0.000000  -0.000000  -0.000000
     3  C   -0.000018  -0.000000  -0.000000  -0.000000   0.000000  -0.000000
     4  S   -0.001614  -0.000548  -0.000008   0.000000  -0.000000  -0.000000
     5  C   -0.001222  -0.004349  -0.001081  -0.000004   0.000000   0.000010
     6  C    0.446552   0.032106   0.013682   0.006825  -0.000049  -0.001362
     7  C    5.250714   0.252184  -0.180443   0.018907  -0.002921  -0.078463
     8  C    0.252184   4.800017   0.456771   0.150746  -0.032967  -0.216735
     9  C   -0.180443   0.456771   6.097725   2.180959  -0.114296  -1.994868
    10  C    0.018907   0.150746   2.180959  50.241165  -2.788089 -46.275242
    11  C   -0.002921  -0.032967  -0.114296  -2.788089   5.654284   3.025928
    12  C   -0.078463  -0.216735  -1.994868 -46.275242   3.025928  53.690463
    13  S   -0.000008   0.000355   0.007701   0.393170   0.160472  -0.192335
    14  S   -0.034649  -0.076159  -0.045602  -0.313614   0.006450   0.339331
    15  H    0.000003   0.000000   0.000000  -0.000000   0.000000  -0.000000
    16  H    0.000002   0.000000   0.000000   0.000000   0.000000   0.000000
    17  H   -0.005566   0.002006   0.000091  -0.000003   0.000000  -0.000001
    18  H   -0.006934   0.002107   0.000131   0.000001   0.000000  -0.000001
    19  H    0.347848  -0.042068  -0.003081  -0.000338   0.000035   0.000074
    20  H    0.087845   0.281473  -0.129098   0.399258  -0.021063  -0.518068
    21  H    0.011945   0.059349   0.242024  -0.019940  -0.023864  -0.039139
    22  H    0.000567  -0.000281  -0.006626   0.462157  -0.033952  -0.497768
    23  H   -0.000171  -0.001466  -0.008311  -0.111323   0.370779   0.045299
              13         14         15         16         17         18
     1  S    0.000000  -0.000000   0.005356   0.005519   0.000006   0.000007
     2  N   -0.000000   0.000000  -0.016043  -0.016387   0.000007   0.000002
     3  C    0.000000  -0.000000   0.347428   0.347858  -0.001889  -0.001796
     4  S   -0.000000   0.000083  -0.030015  -0.029683  -0.054980  -0.054132
     5  C    0.000000  -0.003582   0.000455   0.000450   0.339309   0.348982
     6  C   -0.000040   0.119364  -0.000006  -0.000005  -0.013273  -0.009656
     7  C   -0.000008  -0.034649   0.000003   0.000002  -0.005566  -0.006934
     8  C    0.000355  -0.076159   0.000000   0.000000   0.002006   0.002107
     9  C    0.007701  -0.045602   0.000000   0.000000   0.000091   0.000131
    10  C    0.393170  -0.313614  -0.000000   0.000000  -0.000003   0.000001
    11  C    0.160472   0.006450   0.000000   0.000000   0.000000   0.000000
    12  C   -0.192335   0.339331  -0.000000   0.000000  -0.000001  -0.000001
    13  S   15.804892  -0.010800  -0.000000   0.000000  -0.000000  -0.000000
    14  S   -0.010800  16.088973   0.000000   0.000000   0.000042   0.000225
    15  H   -0.000000   0.000000   0.558326  -0.033395   0.002182  -0.000226
    16  H    0.000000   0.000000  -0.033395   0.557785  -0.000260   0.002025
    17  H   -0.000000   0.000042   0.002182  -0.000260   0.654144  -0.056192
    18  H   -0.000000   0.000225  -0.000226   0.002025  -0.056192   0.638292
    19  H   -0.000001   0.002716   0.000003  -0.000001   0.005798  -0.000750
    20  H   -0.000060   0.101180  -0.000000  -0.000000  -0.000051  -0.000052
    21  H    0.000468   0.002030  -0.000000  -0.000000  -0.000003  -0.000005
    22  H   -0.065489   0.141238   0.000000  -0.000000   0.000000   0.000000
    23  H   -0.008677  -0.000300  -0.000000  -0.000000  -0.000000  -0.000000
              19         20         21         22         23
     1  S   -0.000000   0.000000   0.000000  -0.000000   0.000000
     2  N    0.000000  -0.000000  -0.000000   0.000000  -0.000000
     3  C   -0.000007   0.000000   0.000000  -0.000000   0.000000
     4  S    0.000439  -0.000010  -0.000000   0.000000   0.000000
     5  C   -0.016668   0.001941   0.000041  -0.000008   0.000000
     6  C   -0.046169  -0.067361  -0.001360   0.002663  -0.000025
     7  C    0.347848   0.087845   0.011945   0.000567  -0.000171
     8  C   -0.042068   0.281473   0.059349  -0.000281  -0.001466
     9  C   -0.003081  -0.129098   0.242024  -0.006626  -0.008311
    10  C   -0.000338   0.399258  -0.019940   0.462157  -0.111323
    11  C    0.000035  -0.021063  -0.023864  -0.033952   0.370779
    12  C    0.000074  -0.518068  -0.039139  -0.497768   0.045299
    13  S   -0.000001  -0.000060   0.000468  -0.065489  -0.008677
    14  S    0.002716   0.101180   0.002030   0.141238  -0.000300
    15  H    0.000003  -0.000000  -0.000000   0.000000  -0.000000
    16  H   -0.000001  -0.000000  -0.000000  -0.000000  -0.000000
    17  H    0.005798  -0.000051  -0.000003   0.000000  -0.000000
    18  H   -0.000750  -0.000052  -0.000005   0.000000  -0.000000
    19  H    0.623865   0.009815   0.001225   0.000014   0.000008
    20  H    0.009815   0.645019   0.018153   0.007431   0.000365
    21  H    0.001225   0.018153   0.616258  -0.000296   0.005638
    22  H    0.000014   0.007431  -0.000296   0.927272  -0.001004
    23  H    0.000008   0.000365   0.005638  -0.001004   0.431126
 Mulliken charges:
               1
     1  S   -0.060673
     2  N   -0.026613
     3  C   -0.192018
     4  S   -0.126812
     5  C   -0.295717
     6  C   -0.145091
     7  C   -0.104557
     8  C    0.337458
     9  C   -0.515670
    10  C    1.655365
    11  C   -0.200747
    12  C   -1.287123
    13  S   -0.089649
    14  S   -0.316926
    15  H    0.165933
    16  H    0.166092
    17  H    0.128633
    18  H    0.137971
    19  H    0.117244
    20  H    0.183281
    21  H    0.127475
    22  H    0.064082
    23  H    0.278063
 Sum of Mulliken charges =  -0.00000
 Mulliken charges with hydrogens summed into heavy atoms:
               1
     1  S   -0.060673
     2  N   -0.026613
     3  C    0.140007
     4  S   -0.126812
     5  C   -0.029114
     6  C   -0.145091
     7  C    0.012687
     8  C    0.520739
     9  C   -0.388195
    10  C    1.655365
    11  C    0.077316
    12  C   -1.223041
    13  S   -0.089649
    14  S   -0.316926
 Electronic spatial extent (au):  <R**2>=          10390.3264
 Charge=             -0.0000 electrons
 Dipole moment (field-independent basis, Debye):
    X=             -2.5555    Y=              7.6142    Z=             -0.0706  Tot=              8.0319
 Quadrupole moment (field-independent basis, Debye-Ang):
   XX=           -100.0109   YY=           -106.1994   ZZ=           -113.1521
   XY=              2.0785   XZ=             -0.2830   YZ=              0.4535
 Traceless Quadrupole moment (field-independent basis, Debye-Ang):
   XX=              6.4432   YY=              0.2548   ZZ=             -6.6980
   XY=              2.0785   XZ=             -0.2830   YZ=              0.4535
 Octapole moment (field-independent basis, Debye-Ang**2):
  XXX=            -17.9707  YYY=             28.6906  ZZZ=             -0.0996  XYY=            -33.1539
  XXY=             97.4069  XXZ=              3.6396  XZZ=             28.7957  YZZ=              3.2082
  YYZ=             -1.1572  XYZ=             -1.5944
 Hexadecapole moment (field-independent basis, Debye-Ang**3):
 XXXX=         -12886.9633 YYYY=           -635.3938 ZZZZ=           -144.6827 XXXY=            250.4245
 XXXZ=            -26.8072 YYYX=            -54.9463 YYYZ=              1.6945 ZZZX=             -0.0142
 ZZZY=              0.5279 XXYY=          -2287.1948 XXZZ=          -2242.2204 YYZZ=           -147.1585
 XXYZ=             10.1551 YYXZ=              3.5749 ZZXY=             10.0226
 N-N= 1.115585749535D+03 E-N=-6.947710712951D+03  KE= 1.994294648380D+03
 PrsmSu:  requested number of processors reduced to:  13 ShMem   1 Linda.
 Calling FoFJK, ICntrl=      2127 FMM=F ISym2X=0 I1Cent= 0 IOpClX= 0 NMat=1 NMatS=1 NMatT=0.
 ***** Axes restored to original set *****
 -------------------------------------------------------------------
 Center     Atomic                   Forces (Hartrees/Bohr)
 Number     Number              X              Y              Z
 -------------------------------------------------------------------
      1       16          -0.045688282    0.001165035    0.001175241
      2        7           0.059560784    0.013379867    0.013768629
      3        6           0.028999692   -0.008593924   -0.007758618
      4       16          -0.018694089   -0.002344743   -0.003341998
      5        6          -0.049841564    0.013992814    0.018711269
      6        6          -0.105203324   -0.008777957   -0.019279073
      7        6          -0.044904864    0.004852462    0.009283250
      8        6          -0.023030614    0.034379043    0.027190692
      9        6           0.078308599    0.043809488    0.029764593
     10        6          -6.940211946    1.993829558    2.066733816
     11        6           0.121230596    0.077143668    0.088667042
     12        6           6.917613880   -1.957645790   -2.036250362
     13       16          -0.073418569    0.026863767    0.015990443
     14       16          -0.016098841   -0.057717171   -0.058818568
     15        1           0.004004584   -0.001553289   -0.006218041
     16        1           0.004263217   -0.006171754   -0.001804090
     17        1           0.029995081   -0.013392201   -0.019589565
     18        1           0.033119236   -0.020346751   -0.015441732
     19        1          -0.044578871    0.001061603   -0.002513402
     20        1           0.053619458   -0.107431361   -0.096204178
     21        1           0.040771070    0.027937650    0.029924554
     22        1          -0.024268639   -0.048247092   -0.037222753
     23        1           0.014453407   -0.006192924    0.003232852
 -------------------------------------------------------------------
 Cartesian Forces:  Max     6.940211946 RMS     1.276087723

 GradGradGradGradGradGradGradGradGradGradGradGradGradGradGradGradGradGrad
 Berny optimization.
 FormGI is forming the generalized inverse of G from B-inverse, IUseBI=4.
 Internal  Forces:  Max     5.954680298 RMS     0.670934292
 Search for a local minimum.
 Step number   1 out of a maximum of  109
 All quantities printed in internal units (Hartrees-Bohrs-Radians)
 Mixed Optimization -- RFO/linear search
 Second derivative matrix not updated -- first step.
 ITU=  0
     Eigenvalues ---    0.00230   0.00230   0.00230   0.00230   0.00230
     Eigenvalues ---    0.00310   0.00359   0.00701   0.00894   0.01842
     Eigenvalues ---    0.01871   0.02487   0.02774   0.03024   0.03893
     Eigenvalues ---    0.04658   0.06389   0.08112   0.08432   0.08576
     Eigenvalues ---    0.09124   0.09349   0.10325   0.10578   0.10900
     Eigenvalues ---    0.10991   0.11494   0.13160   0.13875   0.13960
     Eigenvalues ---    0.14291   0.15379   0.15964   0.16000   0.16000
     Eigenvalues ---    0.16000   0.18877   0.20940   0.21738   0.21752
     Eigenvalues ---    0.22000   0.22109   0.22365   0.24425   0.25000
     Eigenvalues ---    0.25000   0.25000   0.28045   0.28045   0.30904
     Eigenvalues ---    0.32301   0.33511   0.33511   0.37471   0.39672
     Eigenvalues ---    0.39968   0.51826   0.52565   0.58188   0.69688
     Eigenvalues ---    0.70047   0.84110  13.90597
 RFO step:  Lambda=-2.73540312D+00 EMin= 2.30000000D-03
 Linear search not attempted -- first point.
 Maximum step size (   0.300) exceeded in Quadratic search.
    -- Step size scaled by   0.702
 Iteration  1 RMS(Cart)=  0.06854310 RMS(Int)=  0.00527049
 Iteration  2 RMS(Cart)=  0.00727717 RMS(Int)=  0.00033836
 Iteration  3 RMS(Cart)=  0.00006208 RMS(Int)=  0.00033125
 Iteration  4 RMS(Cart)=  0.00000006 RMS(Int)=  0.00033125
 Variable       Old X    -DE/DX   Delta X   Delta X   Delta X     New X
                                 (Linear)    (Quad)   (Total)
    R1        2.87476   0.04569   0.00000   0.00934   0.00934   2.88409
    R2        2.83597  -0.02498   0.00000  -0.00573  -0.00573   2.83023
    R3        3.99295  -0.04976   0.00000  -0.01226  -0.01226   3.98069
    R4        2.08163  -0.00644   0.00000  -0.00147  -0.00147   2.08016
    R5        2.08163  -0.00648   0.00000  -0.00148  -0.00148   2.08015
    R6        3.54512  -0.01554   0.00000  -0.00371  -0.00371   3.54141
    R7        3.62528  -0.04478   0.00000  -0.01107  -0.01107   3.61422
    R8        2.18740  -0.02827   0.00000  -0.00658  -0.00658   2.18082
    R9        2.18741  -0.03042   0.00000  -0.00708  -0.00708   2.18033
   R10        2.52404   0.04673   0.00000   0.00989   0.00989   2.53393
   R11        2.44008   0.15315   0.00000   0.03133   0.03133   2.47141
   R12        1.98702   0.03006   0.00000   0.00674   0.00674   1.99376
   R13        2.34614  -0.00082   0.00000   0.03133   0.03156   2.37769
   R14        1.82192   0.62494   0.00000   0.05172   0.05177   1.87368
   R15        3.07400  -0.52291   0.00000  -0.02874  -0.02873   3.04528
   R16        1.98296   0.03431   0.00000   0.00768   0.00768   1.99065
   R17        2.54892   0.42100   0.00000   0.03326   0.03489   2.58381
   R18        1.19863   5.95468   0.00000   0.25118   0.25124   1.44988
   R19        2.59831   0.21379   0.00000   0.01829   0.01669   2.61500
   R20        2.01842  -0.00426   0.00000  -0.00096  -0.00096   2.01745
   R21        3.83792  -0.07296   0.00000  -0.01782  -0.01782   3.82010
   R22        2.59257  -0.17898   0.00000   0.01653   0.01635   2.60892
   R23        3.35750   0.43616   0.00000   0.02226   0.02236   3.37985
   R24        3.39822   0.31539   0.00000   0.01617   0.01598   3.41420
    A1        2.01421   0.00450   0.00000   0.00106   0.00106   2.01527
    A2        1.81288  -0.00546   0.00000  -0.00131  -0.00131   1.81157
    A3        1.94472   0.00182   0.00000   0.00044   0.00044   1.94517
    A4        1.94473   0.00187   0.00000   0.00044   0.00044   1.94517
    A5        1.92219  -0.00091   0.00000  -0.00023  -0.00023   1.92196
    A6        1.92219  -0.00134   0.00000  -0.00035  -0.00035   1.92184
    A7        1.91511   0.00349   0.00000   0.00087   0.00087   1.91599
    A8        1.96875  -0.04248   0.00000  -0.00999  -0.00999   1.95876
    A9        2.26974  -0.02706   0.00000  -0.00648  -0.00649   2.26325
   A10        1.78847   0.01957   0.00000   0.00470   0.00470   1.79317
   A11        1.78847   0.02093   0.00000   0.00502   0.00500   1.79347
   A12        1.95338  -0.00793   0.00000  -0.00198  -0.00198   1.95140
   A13        1.95338  -0.01079   0.00000  -0.00269  -0.00269   1.95069
   A14        1.58193   0.02520   0.00000   0.00629   0.00628   1.58821
   A15        1.52577   0.13981   0.00000   0.03288   0.03288   1.55865
   A16        1.92090  -0.00882   0.00000  -0.00209  -0.00209   1.91880
   A17        2.45227  -0.02834   0.00000  -0.00689  -0.00689   2.44538
   A18        1.90999   0.03715   0.00000   0.00899   0.00899   1.91898
   A19        1.71870   0.01245   0.00000  -0.00550  -0.00577   1.71293
   A20        1.46436  -0.01526   0.00000   0.01366   0.01422   1.47858
   A21        1.96301  -0.81610   0.00000  -0.04018  -0.03973   1.92328
   A22        1.88512   0.45415   0.00000   0.03127   0.03104   1.91616
   A23        2.43503   0.36195   0.00000   0.00891   0.00869   2.44372
   A24        1.43132   1.44454   0.00000   0.08190   0.08102   1.51234
   A25        2.80736  -0.09681   0.00000   0.01295   0.01386   2.82122
   A26        2.40937  -1.14861   0.00000  -0.04453  -0.04432   2.36505
   A27        2.87904   1.17678   0.00000   0.05136   0.05115   2.93019
   A28        2.74801  -0.27908   0.00000  -0.01890  -0.01955   2.72846
   A29        1.91928  -0.06688   0.00000   0.00099   0.00155   1.92084
   A30        1.45214   0.50493   0.00000   0.00802   0.00876   1.46090
   A31        1.61589   0.34597   0.00000   0.01791   0.01800   1.63389
   A32        1.71226   0.88304   0.00000   0.02059   0.02028   1.73255
   A33        1.80744  -0.21438   0.00000   0.01321   0.01245   1.81989
   A34        3.18306  -0.00281   0.00000   0.00817   0.00844   3.19150
   A35        3.06803   0.85090   0.00000   0.02593   0.02676   3.09479
   A36        2.91742  -0.13275   0.00000  -0.00467  -0.00508   2.91234
   A37        3.15027  -0.00142   0.00000  -0.00058  -0.00059   3.14969
   A38        3.14160  -0.00791   0.00000  -0.00217  -0.00193   3.13967
   A39        3.13778  -0.00361   0.00000  -0.00082  -0.00090   3.13688
    D1       -3.14159   0.00019   0.00000   0.00006   0.00006  -3.14153
    D2        1.07270   0.00353   0.00000   0.00087   0.00088   1.07358
    D3       -1.07270  -0.00364   0.00000  -0.00090  -0.00090  -1.07359
    D4       -3.14159  -0.00007   0.00000  -0.00003  -0.00003   3.14157
    D5       -1.05726  -0.00143   0.00000  -0.00036  -0.00036  -1.05761
    D6        1.05726   0.00145   0.00000   0.00036   0.00035   1.05762
    D7        3.14159   0.00036   0.00000   0.00011   0.00011  -3.14148
    D8        0.81571   0.01685   0.00000   0.00416   0.00418   0.81989
    D9       -0.81572  -0.01914   0.00000  -0.00474  -0.00475  -0.82047
   D10       -3.14029   0.00038   0.00000   0.00008   0.00008  -3.14021
   D11       -0.87197  -0.00917   0.00000  -0.00229  -0.00228  -0.87425
   D12        0.87460   0.01157   0.00000   0.00290   0.00289   0.87749
   D13       -3.13667  -0.00345   0.00000  -0.00084  -0.00083  -3.13751
   D14       -0.00418  -0.00402   0.00000  -0.00099  -0.00098  -0.00516
   D15       -0.00725  -0.00389   0.00000  -0.00089  -0.00087  -0.00812
   D16        3.14048  -0.00322   0.00000  -0.00072  -0.00070   3.13978
   D17       -0.00017  -0.00015   0.00000  -0.00006  -0.00008  -0.00025
   D18        3.13833  -0.00029   0.00000  -0.00020  -0.00022   3.13812
   D19       -3.13860   0.00105   0.00000   0.00030   0.00029  -3.13831
   D20       -0.00010   0.00090   0.00000   0.00016   0.00015   0.00005
   D21        0.00625  -0.00019   0.00000   0.00078   0.00075   0.00701
   D22        3.14157   0.00207   0.00000   0.00093   0.00090  -3.14071
   D23       -3.13776  -0.00741   0.00000  -0.00168  -0.00168  -3.13945
   D24       -0.00469  -0.00592   0.00000  -0.00107  -0.00106  -0.00575
   D25        3.13626   0.00963   0.00000   0.00220   0.00210   3.13836
   D26        3.13952  -0.00501   0.00000  -0.00131  -0.00124   3.13828
   D27        0.00386   0.00886   0.00000   0.00198   0.00187   0.00574
   D28        0.00712  -0.00579   0.00000  -0.00153  -0.00146   0.00566
   D29       -0.00110   0.00375   0.00000   0.00104   0.00095  -0.00015
   D30       -0.00320  -0.00677   0.00000  -0.00171  -0.00166  -0.00486
   D31        3.13831   0.00534   0.00000   0.00132   0.00142   3.13973
   D32       -3.14159  -0.00919   0.00000  -0.00241  -0.00259   3.13900
   D33       -0.00002   0.00969   0.00000   0.00252   0.00271   0.00269
   D34        0.00003  -0.00098   0.00000  -0.00044  -0.00058  -0.00054
   D35       -3.14159   0.00364   0.00000   0.00072   0.00066  -3.14093
   D36       -0.00000   0.00134   0.00000   0.00056   0.00062   0.00061
         Item               Value     Threshold  Converged?
 Maximum Force            5.954680     0.000450     NO 
 RMS     Force            0.670934     0.000300     NO 
 Maximum Displacement     0.329359     0.001800     NO 
 RMS     Displacement     0.074189     0.001200     NO 
 Predicted change in Energy=-1.368840D+00
 GradGradGradGradGradGradGradGradGradGradGradGradGradGradGradGradGradGrad

                          Input orientation:                          
 ---------------------------------------------------------------------
 Center     Atomic      Atomic             Coordinates (Angstroms)
 Number     Number       Type             X           Y           Z
 ---------------------------------------------------------------------
      1         16           0        1.083676   -0.055260    0.071832
      2          7           0        2.608106   -0.106411    0.019194
      3          6           0        3.316373    0.814117    0.964748
      4         16           0        5.356433    0.448159    0.588528
      5          6           0        6.475265    1.496928    1.665703
      6          6           0        8.385173    1.567426    1.737616
      7          6           0        8.298307    2.499390    2.697772
      8          6           0        9.496235    2.868677    3.070556
      9          6           0       10.622095    3.256625    3.476827
     10          6           0       11.795127    2.487023    2.683979
     11          6           0       12.672884    3.216561    3.436847
     12          6           0       12.490868    2.261651    2.452003
     13         16           0       14.511888    2.232914    2.417873
     14         16           0       10.591031    1.095389    1.255968
     15          1           0        3.076187    0.577496    2.012613
     16          1           0        3.076129    1.867944    0.756366
     17          1           0        6.011174    1.369508    2.714603
     18          1           0        6.011744    2.548817    1.566292
     19          1           0        7.570670    3.033876    3.243666
     20          1           0       10.018691    2.277497    2.470024
     21          1           0       10.498697    3.987742    4.225094
     22          1           0       12.373511    1.302264    1.466201
     23          1           0       12.588119    3.957544    4.200724
 ---------------------------------------------------------------------
                    Distance matrix (angstroms):
                    1          2          3          4          5
     1  S    0.000000
     2  N    1.526196   0.000000
     3  C    2.556962   1.497694   0.000000
     4  S    4.333227   2.860942   2.106493   0.000000
     5  C    5.832577   4.498512   3.306988   1.874035   0.000000
     6  C    7.662885   6.255334   5.182425   3.427306   1.912561
     7  C    8.091521   6.807597   5.537435   4.160659   2.322408
     8  C    9.397495   8.099894   6.844438   5.399753   3.602994
     9  C   10.655704   9.353570   8.102467   6.630004   4.855193
    10  C   11.314668   9.911021   8.811563   7.071398   5.506188
    11  C   12.503516  11.136528   9.971325   8.325109   6.671175
    12  C   11.880965  10.449654   9.406309   7.593514   6.114781
    13  S   13.822320  12.366330  11.378230   9.505483   8.105229
    14  S    9.649662   8.167069   7.285916   5.316521   4.155555
    15  H    2.852563   2.158830   1.100772   2.691517   3.538281
    16  H    2.852573   2.158830   1.100768   2.691421   3.538174
    17  H    5.770133   4.585241   3.260737   2.407855   1.154040
    18  H    5.770657   4.585685   3.261298   2.407950   1.153779
    19  H    7.853941   6.699677   5.312235   4.317237   2.460099
    20  H    9.540837   8.161271   7.023418   5.350061   3.716461
    21  H   11.056133   9.834283   8.502207   7.224690   5.379836
    22  H   11.456331   9.972028   9.084134   7.123145   5.904829
    23  H   12.864780  11.558616  10.311060   8.812550   7.060308
                    6          7          8          9         10
     6  C    0.000000
     7  C    1.340897   0.000000
     8  C    2.168973   1.307811   0.000000
     9  C    3.298799   2.565214   1.258222   0.000000
    10  C    3.656371   3.496869   2.362204   1.611490   0.000000
    11  C    4.898113   4.494162   3.216566   2.051570   1.367295
    12  C    4.224811   4.206481   3.117517   2.352137   0.767242
    13  S    6.200182   6.225587   5.097741   4.159309   2.741564
    14  S    2.306645   3.050672   2.763305   3.099052   2.329315
    15  H    5.407487   5.606573   6.898244   8.140171   8.950807
    16  H    5.407320   5.607043   6.897442   8.140697   8.950971
    17  H    2.574791   2.551058   3.810494   5.040118   5.891001
    18  H    2.574033   2.551678   3.808779   5.040483   5.890718
    19  H    2.254347   1.055050   1.940375   3.068416   4.296316
    20  H    1.925877   1.749521   0.991510   1.528543   1.801501
    21  H    4.063553   3.064248   1.894781   1.053406   2.511559
    22  H    4.006347   4.422348   3.647783   3.305995   1.794760
    23  H    5.426263   4.773632   3.467371   2.209200   2.256499
                   11         12         13         14         15
    11  C    0.000000
    12  C    1.383799   0.000000
    13  S    2.321164   2.021512   0.000000
    14  S    3.686423   2.529832   4.244656   0.000000
    15  H   10.054338   9.574218  11.562002   7.570574   0.000000
    16  H   10.054922   9.574315  11.561591   7.571010   1.800948
    17  H    6.950657   6.546092   8.549600   4.814338   3.119971
    18  H    6.950946   6.545685   8.548534   4.814418   3.564099
    19  H    5.109137   5.042956   7.035906   4.102591   5.267796
    20  H    2.976799   2.472294   4.493721   1.788542   7.162233
    21  H    2.437857   3.176789   4.738267   4.146076   8.462771
    22  H    2.763621   1.380581   2.518818   1.806719   9.341525
    23  H    1.067591   2.437937   3.139075   4.566386  10.329057
                   16         17         18         19         20
    16  H    0.000000
    17  H    3.563372   0.000000
    18  H    3.120481   1.646022   0.000000
    19  H    5.267538   2.341380   2.340751   0.000000
    20  H    7.162648   4.116364   4.116548   2.676460   0.000000
    21  H    8.462868   5.410601   5.410405   3.232089   2.497122
    22  H    9.341583   6.484009   6.483517   5.406029   2.739328
    23  H   10.329956   7.222375   7.223120   5.190753   3.524180
                   21         22         23
    21  H    0.000000
    22  H    4.282315   0.000000
    23  H    2.089783   3.817616   0.000000
 Stoichiometry    C9H9NS4
 Framework group  C1[X(C9H9NS4)]
 Deg. of freedom    63
 Full point group                 C1      NOp   1
 Largest Abelian subgroup         C1      NOp   1
 Largest concise Abelian subgroup C1      NOp   1
                         Standard orientation:                         
 ---------------------------------------------------------------------
 Center     Atomic      Atomic             Coordinates (Angstroms)
 Number     Number       Type             X           Y           Z
 ---------------------------------------------------------------------
      1         16           0        7.438246   -0.082517    0.000154
      2          7           0        6.001319   -0.596827   -0.000011
      3          6           0        4.939336    0.459240    0.000333
      4         16           0        3.140661   -0.637154    0.000100
      5          6           0        1.632386    0.475102    0.000522
      6          6           0       -0.224018    0.015043    0.000647
      7          6           0       -0.530729    1.320390   -0.000887
      8          6           0       -1.829555    1.473358    0.003689
      9          6           0       -3.070223    1.682731   -0.001701
     10          6           0       -3.870484    0.283989   -0.000608
     11          6           0       -5.015574    1.031156   -0.002816
     12          6           0       -4.441827   -0.228093   -0.000477
     13         16           0       -6.362222   -0.859428    0.002451
     14         16           0       -2.137735   -1.272702   -0.002125
     15          1           0        4.998488    1.089890   -0.899934
     16          1           0        4.998475    1.089294    0.901014
     17          1           0        1.883323    1.244532   -0.822165
     18          1           0        1.882768    1.243630    0.823857
     19          1           0       -0.057216    2.263210    0.001644
     20          1           0       -2.083860    0.515028   -0.001350
     21          1           0       -3.256941    2.719454    0.000566
     22          1           0       -3.928826   -1.509823   -0.000688
     23          1           0       -5.244513    2.073910   -0.004368
 ---------------------------------------------------------------------
 Rotational constants (GHZ):           2.2792768           0.0944959           0.0908320
 Standard basis: 6-31G(2df,p) (6D, 7F)
 There are   495 symmetry adapted cartesian basis functions of A   symmetry.
 There are   453 symmetry adapted basis functions of A   symmetry.
   453 basis functions,   775 primitive gaussians,   495 cartesian basis functions
    67 alpha electrons       67 beta electrons
       nuclear repulsion energy      1103.9661435031 Hartrees.
 NAtoms=   23 NActive=   23 NUniq=   23 SFac= 1.00D+00 NAtFMM=   60 NAOKFM=F Big=F
 Integral buffers will be    131072 words long.
 Raffenetti 2 integral format.
 Two-electron integral symmetry is turned on.
 One-electron integrals computed using PRISM.
 PrsmSu:  requested number of processors reduced to:  12 ShMem   1 Linda.
 NBasis=   453 RedAO= T EigKep=  1.22D-05  NBF=   453
 NBsUse=   453 1.00D-06 EigRej= -1.00D+00 NBFU=   453
 Initial guess from the checkpoint file:  "SdNCSCC1dCCdCCdCCqdSrS1.chk"
 B after Tr=     0.000000    0.000000   -0.000000
         Rot=    1.000000   -0.000027    0.000000   -0.000612 Ang=  -0.07 deg.
 ExpMin= 1.17D-01 ExpMax= 2.19D+04 ExpMxC= 3.30D+03 IAcc=2 IRadAn=         4 AccDes= 0.00D+00
 Harris functional with IExCor=  402 and IRadAn=       4 diagonalized for initial guess.
 HarFok:  IExCor=  402 AccDes= 0.00D+00 IRadAn=         4 IDoV= 1 UseB2=F ITyADJ=14
 ICtDFT=  3500011 ScaDFX=  1.000000  1.000000  1.000000  1.000000
 FoFCou: FMM=F IPFlag=           0 FMFlag=      100000 FMFlg1=           0
         NFxFlg=           0 DoJE=T BraDBF=F KetDBF=T FulRan=T
         wScrn=  0.000000 ICntrl=       500 IOpCl=  0 I1Cent=   200000004 NGrid=           0
         NMat0=    1 NMatS0=      1 NMatT0=    0 NMatD0=    1 NMtDS0=    0 NMtDT0=    0
 Petite list used in FoFCou.
 Requested convergence on RMS density matrix=1.00D-08 within 128 cycles.
 Requested convergence on MAX density matrix=1.00D-06.
 Requested convergence on             energy=1.00D-06.
 No special actions if energy rises.
 Integral accuracy reduced to 1.0D-05 until final iterations.
 Initial convergence to 1.0D-05 achieved.  Increase integral accuracy.
 SCF Done:  E(RB3LYP) =  -1993.80677795     A.U. after   35 cycles
            NFock= 35  Conv=0.74D-08     -V/T= 2.0008
 PrsmSu:  requested number of processors reduced to:  13 ShMem   1 Linda.
 Calling FoFJK, ICntrl=      2127 FMM=F ISym2X=0 I1Cent= 0 IOpClX= 0 NMat=1 NMatS=1 NMatT=0.
 ***** Axes restored to original set *****
 -------------------------------------------------------------------
 Center     Atomic                   Forces (Hartrees/Bohr)
 Number     Number              X              Y              Z
 -------------------------------------------------------------------
      1       16          -0.040800407    0.000313657    0.000311806
      2        7           0.053576851    0.013852848    0.014243668
      3        6           0.030393792   -0.007869514   -0.007578729
      4       16          -0.018980159   -0.003303423   -0.003908905
      5        6          -0.045161493    0.015484618    0.017681697
      6        6          -0.100251010   -0.002939806   -0.015196712
      7        6          -0.036646781    0.005432139    0.006969684
      8        6           0.002993084    0.021111990    0.014995980
      9        6           0.034774893    0.025432588    0.016099965
     10        6          -3.443152651    1.171875568    1.211912331
     11        6           0.129393414    0.047310407    0.061935590
     12        6           3.405220416   -1.167142387   -1.215213708
     13       16          -0.043417629    0.035588513    0.022282642
     14       16          -0.019761346   -0.040016782   -0.033125605
     15        1           0.003808840   -0.001462221   -0.005667804
     16        1           0.003932197   -0.005623173   -0.001649926
     17        1           0.031643590   -0.013303119   -0.018183181
     18        1           0.032873227   -0.018278076   -0.014509427
     19        1          -0.043583014   -0.003724316   -0.002270312
     20        1           0.023836003   -0.073436704   -0.067155191
     21        1           0.044512462    0.024528753    0.024968581
     22        1          -0.013966122   -0.022827581   -0.012534716
     23        1           0.008761844   -0.001003977    0.005592272
 -------------------------------------------------------------------
 Cartesian Forces:  Max     3.443152651 RMS     0.650580995

 GradGradGradGradGradGradGradGradGradGradGradGradGradGradGradGradGradGrad
 Berny optimization.
 Using GEDIIS/GDIIS optimizer.
 FormGI is forming the generalized inverse of G from B-inverse, IUseBI=4.
 Internal  Forces:  Max     3.026323727 RMS     0.342579084
 Search for a local minimum.
 Step number   2 out of a maximum of  109
 All quantities printed in internal units (Hartrees-Bohrs-Radians)
 Mixed Optimization -- RFO/linear search
 Update second derivatives using D2CorX and points    1    2
 DE= -1.41D+00 DEPred=-1.37D+00 R= 1.03D+00
 TightC=F SS=  1.41D+00  RLast= 3.00D-01 DXNew= 5.0454D-01 9.0032D-01
 Trust test= 1.03D+00 RLast= 3.00D-01 DXMaxT set to 5.05D-01
 ITU=  1  0
 Use linear search instead of GDIIS.
 Linear search step of   0.600 exceeds DXMaxT=   0.505 but not scaled.
 Quartic linear search produced a step of  2.00000.
 Iteration  1 RMS(Cart)=  0.11428413 RMS(Int)=  0.02801698
 Iteration  2 RMS(Cart)=  0.03446541 RMS(Int)=  0.00434917
 Iteration  3 RMS(Cart)=  0.00560694 RMS(Int)=  0.00172122
 Iteration  4 RMS(Cart)=  0.00004691 RMS(Int)=  0.00172085
 Iteration  5 RMS(Cart)=  0.00000018 RMS(Int)=  0.00172085
 Variable       Old X    -DE/DX   Delta X   Delta X   Delta X     New X
                                 (Linear)    (Quad)   (Total)
    R1        2.88409   0.04077   0.01867   0.00000   0.01867   2.90277
    R2        2.83023  -0.02394  -0.01147   0.00000  -0.01147   2.81876
    R3        3.98069  -0.04950  -0.02451   0.00000  -0.02451   3.95618
    R4        2.08016  -0.00591  -0.00295   0.00000  -0.00295   2.07721
    R5        2.08015  -0.00593  -0.00296   0.00000  -0.00296   2.07719
    R6        3.54141  -0.01433  -0.00741   0.00000  -0.00741   3.53400
    R7        3.61422  -0.04975  -0.02213   0.00000  -0.02213   3.59208
    R8        2.18082  -0.02778  -0.01316   0.00000  -0.01316   2.16765
    R9        2.18033  -0.02862  -0.01416   0.00000  -0.01416   2.16616
   R10        2.53393   0.03758   0.01978   0.00000   0.01978   2.55371
   R11        2.47141   0.13287   0.06266   0.00000   0.06266   2.53406
   R12        1.99376   0.02700   0.01348   0.00000   0.01348   2.00723
   R13        2.37769   0.06618   0.06311   0.00000   0.06445   2.44215
   R14        1.87368   0.33669   0.10353   0.00000   0.10376   1.97744
   R15        3.04528  -0.25982  -0.05745   0.00000  -0.05738   2.98789
   R16        1.99065   0.02955   0.01537   0.00000   0.01537   2.00601
   R17        2.58381   0.31122   0.06979   0.00000   0.07686   2.66067
   R18        1.44988   3.02632   0.50248   0.00000   0.50239   1.95227
   R19        2.61500   0.11165   0.03338   0.00000   0.02666   2.64166
   R20        2.01745   0.00261  -0.00193   0.00000  -0.00193   2.01553
   R21        3.82010  -0.04429  -0.03563   0.00000  -0.03563   3.78447
   R22        2.60892  -0.08158   0.03271   0.00000   0.03164   2.64056
   R23        3.37985   0.22140   0.04471   0.00000   0.04526   3.42511
   R24        3.41420   0.16804   0.03196   0.00000   0.03083   3.44503
    A1        2.01527   0.00439   0.00212   0.00000   0.00212   2.01739
    A2        1.81157  -0.00517  -0.00262   0.00000  -0.00262   1.80895
    A3        1.94517   0.00162   0.00089   0.00000   0.00089   1.94606
    A4        1.94517   0.00172   0.00088   0.00000   0.00087   1.94605
    A5        1.92196  -0.00090  -0.00047   0.00000  -0.00046   1.92150
    A6        1.92184  -0.00104  -0.00070   0.00000  -0.00070   1.92114
    A7        1.91599   0.00326   0.00175   0.00000   0.00175   1.91773
    A8        1.95876  -0.04232  -0.01998   0.00000  -0.01998   1.93878
    A9        2.26325  -0.02671  -0.01298   0.00000  -0.01303   2.25023
   A10        1.79317   0.02035   0.00939   0.00000   0.00934   1.80251
   A11        1.79347   0.02083   0.01001   0.00000   0.00994   1.80341
   A12        1.95140  -0.00965  -0.00395   0.00000  -0.00396   1.94745
   A13        1.95069  -0.01063  -0.00539   0.00000  -0.00541   1.94527
   A14        1.58821   0.02539   0.01257   0.00000   0.01250   1.60072
   A15        1.55865   0.13032   0.06576   0.00000   0.06576   1.62441
   A16        1.91880  -0.02281  -0.00419   0.00000  -0.00419   1.91461
   A17        2.44538  -0.02299  -0.01379   0.00000  -0.01379   2.43159
   A18        1.91898   0.04578   0.01797   0.00000   0.01797   1.93695
   A19        1.71293  -0.01948  -0.01155   0.00000  -0.01322   1.69970
   A20        1.47858   0.01643   0.02844   0.00000   0.03179   1.51036
   A21        1.92328  -0.41339  -0.07946   0.00000  -0.07661   1.84667
   A22        1.91616   0.25477   0.06209   0.00000   0.06066   1.97682
   A23        2.44372   0.15862   0.01737   0.00000   0.01595   2.45967
   A24        1.51234   0.75840   0.16205   0.00000   0.15690   1.66924
   A25        2.82122  -0.00393   0.02772   0.00000   0.03271   2.85394
   A26        2.36505  -0.57456  -0.08865   0.00000  -0.08771   2.27734
   A27        2.93019   0.59241   0.10230   0.00000   0.10123   3.03143
   A28        2.72846  -0.17850  -0.03910   0.00000  -0.04288   2.68558
   A29        1.92084  -0.02134   0.00311   0.00000   0.00627   1.92711
   A30        1.46090   0.22617   0.01752   0.00000   0.02191   1.48281
   A31        1.63389   0.19983   0.03599   0.00000   0.03659   1.67048
   A32        1.73255   0.43230   0.04057   0.00000   0.03857   1.77112
   A33        1.81989  -0.09253   0.02490   0.00000   0.02020   1.84008
   A34        3.19150  -0.00305   0.01689   0.00000   0.01856   3.21007
   A35        3.09479   0.42600   0.05352   0.00000   0.05850   3.15329
   A36        2.91234  -0.07460  -0.01016   0.00000  -0.01249   2.89984
   A37        3.14969  -0.00440  -0.00118   0.00000  -0.00126   3.14843
   A38        3.13967  -0.00411  -0.00386   0.00000  -0.00177   3.13790
   A39        3.13688   0.00093  -0.00181   0.00000  -0.00241   3.13447
    D1       -3.14153   0.00002   0.00012   0.00000   0.00013  -3.14140
    D2        1.07358   0.00328   0.00175   0.00000   0.00176   1.07533
    D3       -1.07359  -0.00336  -0.00179   0.00000  -0.00179  -1.07539
    D4        3.14157   0.00006  -0.00006   0.00000  -0.00007   3.14149
    D5       -1.05761  -0.00137  -0.00071   0.00000  -0.00072  -1.05833
    D6        1.05762   0.00143   0.00071   0.00000   0.00070   1.05832
    D7       -3.14148  -0.00006   0.00022   0.00000   0.00025  -3.14123
    D8        0.81989   0.01782   0.00835   0.00000   0.00845   0.82834
    D9       -0.82047  -0.01892  -0.00950   0.00000  -0.00959  -0.83006
   D10       -3.14021   0.00029   0.00015   0.00000   0.00013  -3.14008
   D11       -0.87425  -0.00957  -0.00456   0.00000  -0.00451  -0.87876
   D12        0.87749   0.01064   0.00578   0.00000   0.00573   0.88322
   D13       -3.13751  -0.00079  -0.00167   0.00000  -0.00162  -3.13912
   D14       -0.00516  -0.00257  -0.00196   0.00000  -0.00191  -0.00707
   D15       -0.00812  -0.00532  -0.00174   0.00000  -0.00157  -0.00969
   D16        3.13978  -0.00382  -0.00139   0.00000  -0.00122   3.13856
   D17       -0.00025  -0.00331  -0.00016   0.00000  -0.00026  -0.00050
   D18        3.13812  -0.00483  -0.00043   0.00000  -0.00058   3.13753
   D19       -3.13831  -0.00025   0.00058   0.00000   0.00055  -3.13776
   D20        0.00005  -0.00176   0.00030   0.00000   0.00022   0.00027
   D21        0.00701   0.00094   0.00150   0.00000   0.00134   0.00835
   D22       -3.14071   0.00173   0.00180   0.00000   0.00158  -3.13913
   D23       -3.13945  -0.01191  -0.00337   0.00000  -0.00333   3.14041
   D24       -0.00575  -0.00759  -0.00213   0.00000  -0.00195  -0.00770
   D25        3.13836   0.00382   0.00419   0.00000   0.00328  -3.14155
   D26        3.13828  -0.00515  -0.00248   0.00000  -0.00198   3.13630
   D27        0.00574   0.00353   0.00375   0.00000   0.00289   0.00862
   D28        0.00566  -0.00544  -0.00292   0.00000  -0.00237   0.00329
   D29       -0.00015   0.00222   0.00190   0.00000   0.00142   0.00126
   D30       -0.00486  -0.00852  -0.00332   0.00000  -0.00307  -0.00793
   D31        3.13973   0.00446   0.00284   0.00000   0.00360  -3.13985
   D32        3.13900  -0.01233  -0.00519   0.00000  -0.00601   3.13299
   D33        0.00269   0.01208   0.00541   0.00000   0.00636   0.00905
   D34       -0.00054  -0.00296  -0.00116   0.00000  -0.00211  -0.00265
   D35       -3.14093   0.00277   0.00132   0.00000   0.00097  -3.13997
   D36        0.00061   0.00467   0.00123   0.00000   0.00158   0.00219
         Item               Value     Threshold  Converged?
 Maximum Force            3.026324     0.000450     NO 
 RMS     Force            0.342579     0.000300     NO 
 Maximum Displacement     0.579173     0.001800     NO 
 RMS     Displacement     0.145879     0.001200     NO 
 Predicted change in Energy=-1.339386D-01
 GradGradGradGradGradGradGradGradGradGradGradGradGradGradGradGradGradGrad

                          Input orientation:                          
 ---------------------------------------------------------------------
 Center     Atomic      Atomic             Coordinates (Angstroms)
 Number     Number       Type             X           Y           Z
 ---------------------------------------------------------------------
      1         16           0        1.148939   -0.182985   -0.057953
      2          7           0        2.685013   -0.185415   -0.060382
      3          6           0        3.332245    0.752581    0.902011
      4         16           0        5.379479    0.447239    0.588274
      5          6           0        6.402251    1.540171    1.709328
      6          6           0        8.293455    1.674246    1.845676
[...]
   A37        3.30224   0.01253   0.00000  -0.02478  -0.00506   3.29718
   A38        2.27206   0.01971   0.00000   0.11509   0.02337   2.29543
   A39        3.40194   0.01856   0.00000  -0.01301  -0.00272   3.39922
    D1        3.14000   0.00022   0.00000   0.00798   0.00160  -3.14158
    D2        1.07060  -0.00308   0.00000  -0.01230  -0.00245   1.06815
    D3       -1.07305   0.00321   0.00000   0.02332   0.00466  -1.06839
    D4       -3.14089  -0.00030   0.00000  -0.01097  -0.00220   3.14009
    D5       -1.05516   0.00082   0.00000  -0.00224  -0.00045  -1.05561
    D6        1.05820  -0.00108   0.00000  -0.01332  -0.00267   1.05553
    D7        3.14079   0.00103   0.00000   0.03218   0.00645  -3.13595
    D8        1.00317   0.00135   0.00000   0.04478   0.00896   1.01213
    D9       -0.99905  -0.00037   0.00000   0.00608   0.00122  -0.99782
   D10       -3.13447  -0.00038   0.00000  -0.01082  -0.00217  -3.13664
   D11       -0.96589  -0.00196   0.00000  -0.02365  -0.00473  -0.97062
   D12        0.97591   0.00190   0.00000   0.01559   0.00312   0.97902
   D13       -3.13102   0.00213   0.00000   0.05991   0.01196  -3.11906
   D14        0.04359   0.00324   0.00000   0.02711   0.00548   0.04907
   D15        0.06080   0.00466   0.00000  -0.01606  -0.00319   0.05761
   D16       -3.11505   0.00320   0.00000   0.01591   0.00320  -3.11185
   D17        0.07183   0.00224   0.00000  -0.06659  -0.01333   0.05849
   D18       -2.96790   0.01024   0.00000  -0.04289  -0.00868  -2.97657
   D19        3.09067  -0.00579   0.00000  -0.02717  -0.00538   3.08529
   D20        0.05094   0.00221   0.00000  -0.00348  -0.00072   0.05023
   D21        0.01201   0.00268   0.00000  -0.05711  -0.01143   0.00058
   D22       -3.10829   0.00480   0.00000  -0.02297  -0.00464  -3.11293
   D23       -3.04586   0.00962   0.00000  -0.04525  -0.00893  -3.05479
   D24       -0.09399  -0.00205   0.00000  -0.01774  -0.00328  -0.09727
   D25       -2.62336   0.01503   0.00000  -0.00774  -0.00202  -2.62538
   D26       -0.65777  -0.00147   0.00000  -0.05750  -0.01141  -0.66918
   D27        0.49813   0.01304   0.00000  -0.03912  -0.00819   0.48994
   D28        2.46372  -0.00346   0.00000  -0.08888  -0.01758   2.44614
   D29       -0.46475  -0.01999   0.00000   0.24619   0.04859  -0.41616
   D30       -2.95910  -0.01360   0.00000   0.02834   0.00580  -2.95330
   D31        0.31020   0.00538   0.00000   0.18286   0.03673   0.34693
   D32        1.12073  -0.00895   0.00000  -0.14781  -0.03089   1.08984
   D33       -0.91742   0.00339   0.00000   0.15219   0.03055  -0.88687
   D34        0.30591  -0.00254   0.00000  -0.12370  -0.02492   0.28099
   D35       -2.69999   0.01878   0.00000   0.03958   0.00764  -2.69235
   D36       -0.10595   0.00119   0.00000   0.10080   0.02033  -0.08562
         Item               Value     Threshold  Converged?
 Maximum Force            0.052831     0.000450     NO 
 RMS     Force            0.014699     0.000300     NO 
 Maximum Displacement     0.094536     0.001800     NO 
 RMS     Displacement     0.027450     0.001200     NO 
 Predicted change in Energy=-8.413376D-03
 GradGradGradGradGradGradGradGradGradGradGradGradGradGradGradGradGradGrad

                          Input orientation:                          
 ---------------------------------------------------------------------
 Center     Atomic      Atomic             Coordinates (Angstroms)
 Number     Number       Type             X           Y           Z
 ---------------------------------------------------------------------
      1         16           0        2.179756   -0.525032   -0.368632
      2          7           0        3.732487   -0.316539   -0.201673
      3          6           0        4.179863    0.658720    0.773647
      4         16           0        6.029211    0.619442    0.681100
      5          6           0        6.291755    1.884792    1.951734
      6          6           0        7.725032    2.215841    2.234269
      7          6           0        7.998662    3.220197    3.249508
      8          6           0        9.389845    3.406532    3.342996
      9          6           0       10.762826    3.552358    3.726880
     10          6           0       11.346795    2.738709    2.839932
     11          6           0       12.815735    1.866032    3.117791
     12          6           0       11.935008    1.889568    1.927964
     13         16           0       13.626547    2.184185    1.416731
     14         16           0        8.980821    1.297957    1.458779
     15          1           0        3.851784    0.387173    1.780936
     16          1           0        3.814743    1.658352    0.522303
     17          1           0        5.829582    1.588346    2.897821
     18          1           0        5.782368    2.815801    1.684964
     19          1           0        7.223109    3.706952    3.840446
     20          1           0        9.510527    2.726293    2.546480
     21          1           0       11.240874    4.121320    4.517477
     22          1           0       11.172401    1.076997    1.398330
     23          1           0       13.508649    2.231884    3.855247
 ---------------------------------------------------------------------
                    Distance matrix (angstroms):
                    1          2          3          4          5
     1  S    0.000000
     2  N    1.575538   0.000000
     3  C    2.589691   1.450008   0.000000
     4  S    4.150911   2.632544   1.852078   0.000000
     5  C    5.300932   4.004107   2.711315   1.812333   0.000000
     6  C    6.711003   5.318569   4.138389   2.799399   1.497900
     7  C    7.808798   6.528353   5.222478   4.152033   2.526075
     8  C    9.012145   7.644059   6.426191   5.113455   3.721487
     9  C   10.347338   8.934627   7.773681   6.347116   5.091404
    10  C   10.246048   8.750062   7.743436   6.117888   5.203028
    11  C   11.445365   9.914023   9.029446   7.317675   6.627395
    12  C   10.308714   8.756918   7.936605   6.168171   5.643305
    13  S   11.897748  10.332728   9.590643   7.791604   7.360370
    14  S    7.274421   5.736611   4.891546   3.126846   2.796150
    15  H    2.872010   2.107174   1.093621   2.450464   2.868012
    16  H    2.869514   2.105018   1.093504   2.451207   2.868821
    17  H    5.334540   4.199198   2.845680   2.427443   1.093876
    18  H    5.325151   4.192013   2.837521   2.427482   1.094266
    19  H    7.814181   6.686677   5.287563   4.575979   2.784766
    20  H    8.532830   7.084978   5.986132   4.476385   3.379696
    21  H   11.294534   9.916695   8.709979   7.358150   6.006569
    22  H    9.303565   7.736554   7.032835   5.213078   4.977901
    23  H   12.401030  10.886983   9.949741   8.283548   7.471774
                    6          7          8          9         10
     6  C    0.000000
     7  C    1.454068   0.000000
     8  C    2.327793   1.406717   0.000000
     9  C    3.639004   2.824680   1.433076   0.000000
    10  C    3.709095   3.407283   2.128078   1.337805   0.000000
    11  C    5.178632   5.005527   3.763055   2.725642   1.731056
    12  C    4.233694   4.360260   3.283496   2.715691   1.377940
    13  S    5.957957   6.008784   4.811889   3.925505   2.744134
    14  S    1.738073   2.804701   2.857212   3.660894   3.095349
    15  H    4.307155   5.232525   6.498205   7.846501   7.926309
    16  H    4.304879   5.232799   6.488005   7.882413   7.954268
    17  H    2.103992   2.737065   4.022369   5.374158   5.636162
    18  H    2.106094   2.742862   4.013966   5.432945   5.683550
    19  H    2.248365   1.089781   2.243314   3.544911   4.352392
    20  H    1.883090   1.738944   1.054385   1.908921   1.859610
    21  H    4.604892   3.596068   2.305783   1.085030   2.176463
    22  H    3.725602   4.253561   3.519370   3.423056   2.206789
    23  H    6.006500   5.630599   4.313554   3.049537   2.441587
                   11         12         13         14         15
    11  C    0.000000
    12  C    1.480514   0.000000
    13  S    1.911085   1.791498   0.000000
    14  S    4.216823   3.049157   4.729688   0.000000
    15  H    9.182952   8.222974   9.945245   5.219226   0.000000
    16  H    9.370035   8.244273   9.866509   5.262626   1.789253
    17  H    6.995129   6.189312   7.958726   3.476416   2.569423
    18  H    7.240394   6.226711   7.874137   3.547550   3.103966
    19  H    5.932006   5.400228   7.014075   3.816431   5.160266
    20  H    3.462780   2.638328   4.302539   1.871851   6.170811
    21  H    3.086362   3.488282   4.365611   4.736544   8.719584
    22  H    2.505926   1.233837   2.692404   2.203521   7.362994
    23  H    1.076020   2.511562   2.441831   5.207351  10.047923
                   16         17         18         19         20
    16  H    0.000000
    17  H    3.115697   0.000000
    18  H    2.561839   1.726238   0.000000
    19  H    5.179170   2.705356   2.741530   0.000000
    20  H    6.138383   3.868813   3.827452   2.805054   0.000000
    21  H    8.784933   6.190421   6.286715   4.095425   2.970695
    22  H    7.432398   5.572761   5.670807   5.336432   2.607729
    23  H   10.266902   7.765235   8.046521   6.456320   4.235834
                   21         22         23
    21  H    0.000000
    22  H    4.359090   0.000000
    23  H    3.025115   3.581656   0.000000
 Stoichiometry    C9H9NS4
 Framework group  C1[X(C9H9NS4)]
 Deg. of freedom    63
 Full point group                 C1      NOp   1
 Largest Abelian subgroup         C1      NOp   1
 Largest concise Abelian subgroup C1      NOp   1
                         Standard orientation:                         
 ---------------------------------------------------------------------
 Center     Atomic      Atomic             Coordinates (Angstroms)
 Number     Number       Type             X           Y           Z
 ---------------------------------------------------------------------
      1         16           0        6.537216   -0.576465   -0.026934
      2          7           0        4.989347   -0.870259   -0.037301
      3          6           0        4.088294    0.263849    0.029239
      4         16           0        2.387753   -0.469078   -0.004943
      5          6           0        1.515283    1.116628    0.089313
      6          6           0        0.020434    1.021490    0.098227
      7          6           0       -0.734792    2.262182    0.166272
      8          6           0       -2.108140    1.958856    0.193833
      9          6           0       -3.523215    1.843135   -0.000790
     10          6           0       -3.650834    0.512068   -0.041987
     11          6           0       -4.869835   -0.336287   -0.931306
     12          6           0       -3.767385   -0.859976   -0.093287
     13         16           0       -5.305853   -1.630590    0.405448
     14         16           0       -0.736463   -0.527988   -0.118851
     15          1           0        4.225319    0.926451   -0.829940
     16          1           0        4.234324    0.824908    0.956406
     17          1           0        1.798887    1.767176   -0.743106
     18          1           0        1.817715    1.674869    0.980560
     19          1           0       -0.273509    3.249523    0.166166
     20          1           0       -1.857396    0.934832    0.209006
     21          1           0       -4.305007    2.586548   -0.116668
     22          1           0       -2.718774   -1.468473   -0.322409
     23          1           0       -5.788284    0.170245   -1.171508
 ---------------------------------------------------------------------
 Rotational constants (GHZ):           1.3974183           0.1265208           0.1171994
 Standard basis: 6-31G(2df,p) (6D, 7F)
 There are   495 symmetry adapted cartesian basis functions of A   symmetry.
 There are   453 symmetry adapted basis functions of A   symmetry.
   453 basis functions,   775 primitive gaussians,   495 cartesian basis functions
    67 alpha electrons       67 beta electrons
       nuclear repulsion energy      1154.7423561864 Hartrees.
 NAtoms=   23 NActive=   23 NUniq=   23 SFac= 1.00D+00 NAtFMM=   60 NAOKFM=F Big=F
 Integral buffers will be    131072 words long.
 Raffenetti 2 integral format.
 Two-electron integral symmetry is turned on.
 One-electron integrals computed using PRISM.
 PrsmSu:  requested number of processors reduced to:  12 ShMem   1 Linda.
 NBasis=   453 RedAO= T EigKep=  3.00D-04  NBF=   453
 NBsUse=   453 1.00D-06 EigRej= -1.00D+00 NBFU=   453
 Initial guess from the checkpoint file:  "SdNCSCC1dCCdCCdCCqdSrS1.chk"
 B after Tr=     0.000000   -0.000000    0.000000
         Rot=    1.000000   -0.000731    0.000141   -0.000453 Ang=  -0.10 deg.
 ExpMin= 1.17D-01 ExpMax= 2.19D+04 ExpMxC= 3.30D+03 IAcc=2 IRadAn=         4 AccDes= 0.00D+00
 Harris functional with IExCor=  402 and IRadAn=       4 diagonalized for initial guess.
 HarFok:  IExCor=  402 AccDes= 0.00D+00 IRadAn=         4 IDoV= 1 UseB2=F ITyADJ=14
 ICtDFT=  3500011 ScaDFX=  1.000000  1.000000  1.000000  1.000000
 FoFCou: FMM=F IPFlag=           0 FMFlag=      100000 FMFlg1=           0
         NFxFlg=           0 DoJE=T BraDBF=F KetDBF=T FulRan=T
         wScrn=  0.000000 ICntrl=       500 IOpCl=  0 I1Cent=   200000004 NGrid=           0
         NMat0=    1 NMatS0=      1 NMatT0=    0 NMatD0=    1 NMtDS0=    0 NMtDT0=    0
 Petite list used in FoFCou.
 Requested convergence on RMS density matrix=1.00D-08 within 128 cycles.
 Requested convergence on MAX density matrix=1.00D-06.
 Requested convergence on             energy=1.00D-06.
 No special actions if energy rises.
 Integral accuracy reduced to 1.0D-05 until final iterations.
 Initial convergence to 1.0D-05 achieved.  Increase integral accuracy.
 SCF Done:  E(RB3LYP) =  -1995.48063809     A.U. after   14 cycles
            NFock= 14  Conv=0.92D-08     -V/T= 2.0039
 PrsmSu:  requested number of processors reduced to:  13 ShMem   1 Linda.
 Calling FoFJK, ICntrl=      2127 FMM=F ISym2X=0 I1Cent= 0 IOpClX= 0 NMat=1 NMatS=1 NMatT=0.
 ***** Axes restored to original set *****
 -------------------------------------------------------------------
 Center     Atomic                   Forces (Hartrees/Bohr)
 Number     Number              X              Y              Z
 -------------------------------------------------------------------
      1       16           0.004035497    0.000258888    0.000201179
      2        7          -0.009516398   -0.002923501   -0.002582424
      3        6           0.013368913   -0.000629884   -0.001532387
      4       16          -0.004460038    0.000322932    0.001113393
      5        6           0.000213501    0.005077418    0.003017307
      6        6           0.005023397   -0.017579735   -0.007106845
      7        6           0.030534944    0.015192005    0.011553506
      8        6          -0.042913355    0.005004793    0.007891458
      9        6          -0.034653765    0.009890488   -0.005568945
     10        6           0.101307899    0.015877338    0.037165246
     11        6          -0.007568930    0.032407255   -0.020579724
     12        6          -0.058500786   -0.080156667   -0.030380788
     13       16           0.000958973    0.015337321   -0.006897923
     14       16          -0.052565217    0.000413045   -0.002485885
     15        1          -0.003039572    0.000457487    0.000970706
     16        1          -0.003065533    0.001014268    0.000673895
     17        1          -0.001429573   -0.003982073    0.002935673
     18        1          -0.001716409    0.002956849   -0.003546036
     19        1          -0.001697343   -0.005190900   -0.002265521
     20        1           0.024918369   -0.002219081   -0.021514433
     21        1          -0.001600326   -0.004720660    0.001618558
     22        1           0.052802915    0.029183129    0.023054079
     23        1          -0.010437165   -0.015990714    0.014265913
 -------------------------------------------------------------------
 Cartesian Forces:  Max     0.101307899 RMS     0.023625642

 GradGradGradGradGradGradGradGradGradGradGradGradGradGradGradGradGradGrad
 Berny optimization.
 Using GEDIIS/GDIIS optimizer.
 FormGI is forming the generalized inverse of G from B-inverse, IUseBI=4.
 Internal  Forces:  Max     0.040585559 RMS     0.011244525
 Search for a local minimum.
 Step number  15 out of a maximum of  109
 All quantities printed in internal units (Hartrees-Bohrs-Radians)
 Mixed Optimization -- RFO/linear search
 Update second derivatives using D2CorX and points   14   15
 DE= -7.24D-03 DEPred=-8.41D-03 R= 8.60D-01
 TightC=F SS=  1.41D+00  RLast= 1.55D-01 DXNew= 1.0677D+00 4.6601D-01
 Trust test= 8.60D-01 RLast= 1.55D-01 DXMaxT set to 6.35D-01
 ITU=  1 -1  1  1  0  1  1  0 -1  0  0  0  0  1  0
 Use linear search instead of GDIIS.
     Eigenvalues ---   -0.25365   0.00041   0.00230   0.00230   0.00231
     Eigenvalues ---    0.00250   0.00335   0.00359   0.00774   0.00864
     Eigenvalues ---    0.00975   0.01277   0.01686   0.02320   0.02714
     Eigenvalues ---    0.03010   0.03221   0.04001   0.06366   0.07088
     Eigenvalues ---    0.07970   0.08494   0.08909   0.09320   0.10009
     Eigenvalues ---    0.11128   0.11489   0.12047   0.12563   0.12867
     Eigenvalues ---    0.13960   0.14641   0.15197   0.15798   0.16648
     Eigenvalues ---    0.16968   0.18432   0.20837   0.21559   0.22054
     Eigenvalues ---    0.22542   0.24699   0.24987   0.25394   0.26071
     Eigenvalues ---    0.28000   0.28048   0.29942   0.32455   0.33510
     Eigenvalues ---    0.33512   0.35774   0.37773   0.39743   0.40088
     Eigenvalues ---    0.54339   0.59631   0.68902   0.70177   0.85206
     Eigenvalues ---    0.91830   1.45818   3.48069
 RFO step:  Lambda=-2.81381883D-01 EMin=-2.53649918D-01
 Quartic linear search produced a step of  1.71645.
 Maximum step size (   0.635) exceeded in Quadratic search.
    -- Step size scaled by   0.738
 Iteration  1 RMS(Cart)=  0.01327159 RMS(Int)=  0.07109754
 Iteration  2 RMS(Cart)=  0.00497726 RMS(Int)=  0.06850109
 Iteration  3 RMS(Cart)=  0.00453302 RMS(Int)=  0.06611347
 Iteration  4 RMS(Cart)=  0.00415650 RMS(Int)=  0.06390407
 Iteration  5 RMS(Cart)=  0.00383364 RMS(Int)=  0.06184848
 Iteration  6 RMS(Cart)=  0.00355401 RMS(Int)=  0.05992697
 Iteration  7 RMS(Cart)=  0.00330966 RMS(Int)=  0.05812331
 Iteration  8 RMS(Cart)=  0.00309449 RMS(Int)=  0.05642407
 Iteration  9 RMS(Cart)=  0.00290370 RMS(Int)=  0.05481794
 Iteration 10 RMS(Cart)=  0.00273349 RMS(Int)=  0.05329536
 Iteration 11 RMS(Cart)=  0.00258079 RMS(Int)=  0.05184815
 Iteration 12 RMS(Cart)=  0.00241822 RMS(Int)=  0.05048425
 Iteration 13 RMS(Cart)=  0.00223005 RMS(Int)=  0.04922639
 Iteration 14 RMS(Cart)=  0.00206535 RMS(Int)=  0.04806136
 Iteration 15 RMS(Cart)=  0.00192019 RMS(Int)=  0.04697816
 Iteration 16 RMS(Cart)=  0.00179144 RMS(Int)=  0.04596754
 Iteration 17 RMS(Cart)=  0.00167660 RMS(Int)=  0.04502166
 Iteration 18 RMS(Cart)=  0.00157364 RMS(Int)=  0.04413384
 Iteration 19 RMS(Cart)=  0.00148091 RMS(Int)=  0.04329831
 Iteration 20 RMS(Cart)=  0.00139701 RMS(Int)=  0.04251009
 Iteration 21 RMS(Cart)=  0.00132081 RMS(Int)=  0.04176485
 Iteration 22 RMS(Cart)=  0.00125135 RMS(Int)=  0.04105878
 Iteration 23 RMS(Cart)=  0.00118781 RMS(Int)=  0.04038856
 Iteration 24 RMS(Cart)=  0.00112952 RMS(Int)=  0.03975121
 Iteration 25 RMS(Cart)=  0.00107587 RMS(Int)=  0.03914413
 Iteration 26 RMS(Cart)=  0.00102637 RMS(Int)=  0.03856498
 Iteration 27 RMS(Cart)=  0.00098057 RMS(Int)=  0.03801166
 Iteration 28 RMS(Cart)=  0.00093810 RMS(Int)=  0.03748231
 Iteration 29 RMS(Cart)=  0.00089863 RMS(Int)=  0.03697523
 Iteration 30 RMS(Cart)=  0.00086186 RMS(Int)=  0.03648889
 Iteration 31 RMS(Cart)=  0.00082754 RMS(Int)=  0.03602193
 Iteration 32 RMS(Cart)=  0.00079545 RMS(Int)=  0.03557307
slurmstepd: error: *** JOB 27446964 ON lewis4-r630-hpc4rc-node356 CANCELLED AT 2023-05-17T08:30:32 DUE TO TIME LIMIT ***
