### Starting Gaussian ###
 Entering Gaussian System, Link 0=g16
 Initial command:
 /cluster/software/gaussian/gaussian-16-A.03/avx2/g16/l1.exe "/local/scratch/cz9n3/Gau-14023.inp" -scrdir="/local/scratch/cz9n3/"
 Entering Link 1 = /cluster/software/gaussian/gaussian-16-A.03/avx2/g16/l1.exe PID=     14024.
  
 Copyright (c) 1988,1990,1992,1993,1995,1998,2003,2009,2016,
            Gaussian, Inc.  All Rights Reserved.
  
 This is part of the Gaussian(R) 16 program.  It is based on
 the Gaussian(R) 09 system (copyright 2009, Gaussian, Inc.),
 the Gaussian(R) 03 system (copyright 2003, Gaussian, Inc.),
 the Gaussian(R) 98 system (copyright 1998, Gaussian, Inc.),
 the Gaussian(R) 94 system (copyright 1995, Gaussian, Inc.),
 the Gaussian 92(TM) system (copyright 1992, Gaussian, Inc.),
 the Gaussian 90(TM) system (copyright 1990, Gaussian, Inc.),
 the Gaussian 88(TM) system (copyright 1988, Gaussian, Inc.),
 the Gaussian 86(TM) system (copyright 1986, Carnegie Mellon
 University), and the Gaussian 82(TM) system (copyright 1983,
 Carnegie Mellon University). Gaussian is a federally registered
 trademark of Gaussian, Inc.
  
 This software contains proprietary and confidential information,
 including trade secrets, belonging to Gaussian, Inc.
  
 This software is provided under written license and may be
 used, copied, transmitted, or stored only in accord with that
 written license.
  
 The following legend is applicable only to US Government
 contracts under FAR:
  
                    RESTRICTED RIGHTS LEGEND
  
 Use, reproduction and disclosure by the US Government is
 subject to restrictions as set forth in subparagraphs (a)
 and (c) of the Commercial Computer Software - Restricted
 Rights clause in FAR 52.227-19.
  
 Gaussian, Inc.
 340 Quinnipiac St., Bldg. 40, Wallingford CT 06492
  
  
 ---------------------------------------------------------------
 Warning -- This program may not be used in any manner that
 competes with the business of Gaussian, Inc. or will provide
 assistance to any competitor of Gaussian, Inc.  The licensee
 of this program is prohibited from giving any competitor of
 Gaussian, Inc. access to this program.  By using this program,
 the user acknowledges that Gaussian, Inc. is engaged in the
 business of creating and licensing software in the field of
 computational chemistry and represents and warrants to the
 licensee that it is not a competitor of Gaussian, Inc. and that
 it will not use this program in any manner prohibited above.
 ---------------------------------------------------------------
  

 Cite this work as:
 Gaussian 16, Revision A.03,
 M. J. Frisch, G. W. Trucks, H. B. Schlegel, G. E. Scuseria, 
 M. A. Robb, J. R. Cheeseman, G. Scalmani, V. Barone, 
 G. A. Petersson, H. Nakatsuji, X. Li, M. Caricato, A. V. Marenich, 
 J. Bloino, B. G. Janesko, R. Gomperts, B. Mennucci, H. P. Hratchian, 
 J. V. Ortiz, A. F. Izmaylov, J. L. Sonnenberg, D. Williams-Young, 
 F. Ding, F. Lipparini, F. Egidi, J. Goings, B. Peng, A. Petrone, 
 T. Henderson, D. Ranasinghe, V. G. Zakrzewski, J. Gao, N. Rega, 
 G. Zheng, W. Liang, M. Hada, M. Ehara, K. Toyota, R. Fukuda, 
 J. Hasegawa, M. Ishida, T. Nakajima, Y. Honda, O. Kitao, H. Nakai, 
 T. Vreven, K. Throssell, J. A. Montgomery, Jr., J. E. Peralta, 
 F. Ogliaro, M. J. Bearpark, J. J. Heyd, E. N. Brothers, K. N. Kudin, 
 V. N. Staroverov, T. A. Keith, R. Kobayashi, J. Normand, 
 K. Raghavachari, A. P. Rendell, J. C. Burant, S. S. Iyengar, 
 J. Tomasi, M. Cossi, J. M. Millam, M. Klene, C. Adamo, R. Cammi, 
 J. W. Ochterski, R. L. Martin, K. Morokuma, O. Farkas, 
 J. B. Foresman, and D. J. Fox, Gaussian, Inc., Wallingford CT, 2016.
 
 ******************************************
 Gaussian 16:  ES64L-G16RevA.03 25-Dec-2016
                16-May-2023 
 ******************************************
 %chk=SSC1dCCdCCdCCdCdCdCCdCCdCS1.chk
 %NProcShared=20
 Will use up to   20 processors via shared memory.
 -----------------------------
 # opt freq b3lyp/6-31g(2df,p)
 -----------------------------
 1/18=20,19=15,26=3,38=1/1,3;
 2/9=110,12=2,17=6,18=5,40=1/2;
 3/5=1,6=6,7=104,11=2,25=1,30=1,71=1,74=-5/1,2,3;
 4//1;
 5/5=2,38=5/2;
 6/7=2,8=2,9=2,10=2,28=1/1;
 7//1,2,3,16;
 1/18=20,19=15,26=3/3(2);
 2/9=110/2;
 99//99;
 2/9=110/2;
 3/5=1,6=6,7=104,11=2,25=1,30=1,71=1,74=-5/1,2,3;
 4/5=5,16=3,69=1/1;
 5/5=2,38=5/2;
 7//1,2,3,16;
 1/18=20,19=15,26=3/3(-5);
 2/9=110/2;
 6/7=2,8=2,9=2,10=2,19=2,28=1/1;
 99/9=1/99;
 -------------------
 Title Card Required
 -------------------
 Symbolic Z-matrix:
 Charge =  0 Multiplicity = 1
 S                     2.65768   0.4116   -0.26912 
 S                     5.19564   1.37342  -0.19605 
 C                     7.30149   2.10285  -1.20549 
 C                     6.17602   1.37604  -1.88924 
 C                     5.6765    1.84644  -3.13801 
 C                     6.8938    2.06527  -3.5841 
 C                     7.34831   3.09483  -4.39026 
 C                     8.65467   3.27762  -4.57771 
 C                     9.28566   4.16641  -5.48876 
 C                     10.58115   4.27114  -5.66199 
 C                     11.75661   4.41616  -5.90513 
 C                     13.01523   4.6135   -6.1996 
 C                     13.88952   4.34844  -5.20419 
 C                     14.93673   4.10979  -4.51466 
 C                     13.46399   3.53454  -3.34303 
 C                     11.76198   3.11952  -2.92489 
 S                     9.63872   2.35795  -1.7718 
 H                     1.24934  -0.40917   0.55311 
 H                     6.34612   0.32379  -1.46543 
 H                     4.79091   2.46069  -3.39936 
 H                     7.71098   1.56357  -3.04556 
 H                     6.57039   3.65847  -4.84115 
 H                     9.38038   2.67374  -4.08046 
 H                     8.5581    4.64336  -6.12379 
 H                     13.49194   4.84747  -7.11767 
 H                     13.73548   5.16661  -4.48656 
 H                     15.65549   4.52815  -5.61194 
 H                     14.848    3.65713  -2.90493 
 H                     13.05431   3.0042   -2.48142 
 
 Add virtual bond connecting atoms H27        and C14        Dist= 2.60D+00.
 Add virtual bond connecting atoms H28        and C15        Dist= 2.75D+00.
 Add virtual bond connecting atoms H28        and C14        Dist= 3.16D+00.
 Add virtual bond connecting atoms H18        and S1         Dist= 3.45D+00.
 Add virtual bond connecting atoms C3         and S17        Dist= 4.57D+00.
 Add virtual bond connecting atoms H21        and S17        Dist= 4.62D+00.
 Add virtual bond connecting atoms H23        and S17        Dist= 4.43D+00.
 Add virtual bond connecting atoms S2         and S1         Dist= 5.13D+00.

 GradGradGradGradGradGradGradGradGradGradGradGradGradGradGradGradGradGrad
 Berny optimization.
 Initialization pass.
                           ----------------------------
                           !    Initial Parameters    !
                           ! (Angstroms and Degrees)  !
 --------------------------                            --------------------------
 ! Name  Definition              Value          Derivative Info.                !
 --------------------------------------------------------------------------------
 ! R1    R(1,2)                  2.7151         estimate D2E/DX2                !
 ! R2    R(1,18)                 1.8257         estimate D2E/DX2                !
 ! R3    R(2,4)                  1.9565         estimate D2E/DX2                !
 ! R4    R(3,4)                  1.5041         estimate D2E/DX2                !
 ! R5    R(3,17)                 2.4184         estimate D2E/DX2                !
 ! R6    R(4,5)                  1.4249         estimate D2E/DX2                !
 ! R7    R(4,19)                 1.1471         estimate D2E/DX2                !
 ! R8    R(5,6)                  1.3148         estimate D2E/DX2                !
 ! R9    R(5,20)                 1.109          estimate D2E/DX2                !
 ! R10   R(6,7)                  1.3844         estimate D2E/DX2                !
 ! R11   R(6,21)                 1.0998         estimate D2E/DX2                !
 ! R12   R(7,8)                  1.3323         estimate D2E/DX2                !
 ! R13   R(7,22)                 1.0612         estimate D2E/DX2                !
 ! R14   R(8,9)                  1.4206         estimate D2E/DX2                !
 ! R15   R(8,23)                 1.067          estimate D2E/DX2                !
 ! R16   R(9,10)                 1.3112         estimate D2E/DX2                !
 ! R17   R(9,24)                 1.0771         estimate D2E/DX2                !
 ! R18   R(10,11)                1.2091         estimate D2E/DX2                !
 ! R19   R(11,12)                1.3076         estimate D2E/DX2                !
 ! R20   R(12,13)                1.3511         estimate D2E/DX2                !
 ! R21   R(12,25)                1.0606         estimate D2E/DX2                !
 ! R22   R(13,14)                1.2763         estimate D2E/DX2                !
 ! R23   R(13,26)                1.0991         estimate D2E/DX2                !
 ! R24   R(14,27)                1.3768         estimate D2E/DX2                !
 ! R25   R(14,28)                1.6745         estimate D2E/DX2                !
 ! R26   R(15,16)                1.8011         estimate D2E/DX2                !
 ! R27   R(15,28)                1.4569         estimate D2E/DX2                !
 ! R28   R(15,29)                1.0915         estimate D2E/DX2                !
 ! R29   R(17,21)                2.4433         estimate D2E/DX2                !
 ! R30   R(17,23)                2.3444         estimate D2E/DX2                !
 ! A1    A(2,1,18)             150.252          estimate D2E/DX2                !
 ! A2    A(1,2,4)              116.4601         estimate D2E/DX2                !
 ! A3    A(4,3,17)             131.8874         estimate D2E/DX2                !
 ! A4    A(2,4,3)               88.9793         estimate D2E/DX2                !
 ! A5    A(2,4,5)              125.6779         estimate D2E/DX2                !
 ! A6    A(2,4,19)              75.7199         estimate D2E/DX2                !
 ! A7    A(3,4,5)              120.0788         estimate D2E/DX2                !
 ! A8    A(3,4,19)              99.4595         estimate D2E/DX2                !
 ! A9    A(5,4,19)             132.7377         estimate D2E/DX2                !
 ! A10   A(4,5,6)               91.5886         estimate D2E/DX2                !
 ! A11   A(4,5,20)             132.0167         estimate D2E/DX2                !
 ! A12   A(6,5,20)             124.5545         estimate D2E/DX2                !
 ! A13   A(5,6,7)              128.706          estimate D2E/DX2                !
 ! A14   A(5,6,21)             116.4793         estimate D2E/DX2                !
 ! A15   A(7,6,21)             112.3628         estimate D2E/DX2                !
 ! A16   A(6,7,8)              120.3896         estimate D2E/DX2                !
 ! A17   A(6,7,22)             113.6881         estimate D2E/DX2                !
 ! A18   A(8,7,22)             125.8818         estimate D2E/DX2                !
 ! A19   A(7,8,9)              127.7034         estimate D2E/DX2                !
 ! A20   A(7,8,23)             121.577          estimate D2E/DX2                !
 ! A21   A(9,8,23)             110.539          estimate D2E/DX2                !
 ! A22   A(8,9,10)             124.9978         estimate D2E/DX2                !
 ! A23   A(8,9,24)             110.8009         estimate D2E/DX2                !
 ! A24   A(10,9,24)            123.6512         estimate D2E/DX2                !
 ! A25   A(11,12,13)           115.2988         estimate D2E/DX2                !
 ! A26   A(11,12,25)           131.3669         estimate D2E/DX2                !
 ! A27   A(13,12,25)           112.9646         estimate D2E/DX2                !
 ! A28   A(12,13,14)           164.9326         estimate D2E/DX2                !
 ! A29   A(12,13,26)           104.1403         estimate D2E/DX2                !
 ! A30   A(14,13,26)            84.3441         estimate D2E/DX2                !
 ! A31   A(13,14,27)            86.6151         estimate D2E/DX2                !
 ! A32   A(13,14,28)           121.7629         estimate D2E/DX2                !
 ! A33   A(27,14,28)           151.155          estimate D2E/DX2                !
 ! A34   A(16,15,28)           147.9204         estimate D2E/DX2                !
 ! A35   A(16,15,29)            49.467          estimate D2E/DX2                !
 ! A36   A(28,15,29)            99.2108         estimate D2E/DX2                !
 ! A37   A(3,17,21)             47.5659         estimate D2E/DX2                !
 ! A38   A(3,17,23)             97.9501         estimate D2E/DX2                !
 ! A39   A(21,17,23)            56.1844         estimate D2E/DX2                !
 ! A40   A(6,21,17)            133.8856         estimate D2E/DX2                !
 ! A41   A(8,23,17)            127.5946         estimate D2E/DX2                !
 ! A42   A(14,28,15)            77.5261         estimate D2E/DX2                !
 ! A43   L(9,10,11,16,-1)      184.6272         estimate D2E/DX2                !
 ! A44   L(10,11,12,15,-1)     181.9847         estimate D2E/DX2                !
 ! A45   L(9,10,11,16,-2)      180.57           estimate D2E/DX2                !
 ! A46   L(10,11,12,15,-2)     181.2546         estimate D2E/DX2                !
 ! D1    D(18,1,2,4)           151.4055         estimate D2E/DX2                !
 ! D2    D(1,2,4,3)            174.3667         estimate D2E/DX2                !
 ! D3    D(1,2,4,5)             47.1881         estimate D2E/DX2                !
 ! D4    D(1,2,4,19)           -85.604          estimate D2E/DX2                !
 ! D5    D(17,3,4,2)           159.8893         estimate D2E/DX2                !
 ! D6    D(17,3,4,5)           -68.5222         estimate D2E/DX2                !
 ! D7    D(17,3,4,19)           84.5486         estimate D2E/DX2                !
 ! D8    D(4,3,17,21)           13.6446         estimate D2E/DX2                !
 ! D9    D(4,3,17,23)           40.8932         estimate D2E/DX2                !
 ! D10   D(2,4,5,6)            155.9645         estimate D2E/DX2                !
 ! D11   D(2,4,5,20)            13.8994         estimate D2E/DX2                !
 ! D12   D(3,4,5,6)             42.9785         estimate D2E/DX2                !
 ! D13   D(3,4,5,20)           -99.0866         estimate D2E/DX2                !
 ! D14   D(19,4,5,6)           -99.5593         estimate D2E/DX2                !
 ! D15   D(19,4,5,20)          118.3756         estimate D2E/DX2                !
 ! D16   D(4,5,6,7)           -143.0571         estimate D2E/DX2                !
 ! D17   D(4,5,6,21)            17.6526         estimate D2E/DX2                !
 ! D18   D(20,5,6,7)             3.2614         estimate D2E/DX2                !
 ! D19   D(20,5,6,21)          163.9712         estimate D2E/DX2                !
 ! D20   D(5,6,7,8)            169.5689         estimate D2E/DX2                !
 ! D21   D(5,6,7,22)           -12.6145         estimate D2E/DX2                !
 ! D22   D(21,6,7,8)             8.2164         estimate D2E/DX2                !
 ! D23   D(21,6,7,22)         -173.9671         estimate D2E/DX2                !
 ! D24   D(5,6,21,17)         -117.5747         estimate D2E/DX2                !
 ! D25   D(7,6,21,17)           46.239          estimate D2E/DX2                !
 ! D26   D(6,7,8,9)            171.6217         estimate D2E/DX2                !
 ! D27   D(6,7,8,23)            -3.0151         estimate D2E/DX2                !
 ! D28   D(22,7,8,9)            -5.9103         estimate D2E/DX2                !
 ! D29   D(22,7,8,23)          179.4529         estimate D2E/DX2                !
 ! D30   D(7,8,9,10)          -177.5485         estimate D2E/DX2                !
 ! D31   D(7,8,9,24)            -5.8201         estimate D2E/DX2                !
 ! D32   D(23,8,9,10)           -2.4265         estimate D2E/DX2                !
 ! D33   D(23,8,9,24)          169.3019         estimate D2E/DX2                !
 ! D34   D(7,8,23,17)          -56.9198         estimate D2E/DX2                !
 ! D35   D(9,8,23,17)          127.6097         estimate D2E/DX2                !
 ! D36   D(8,9,12,13)          -28.8185         estimate D2E/DX2                !
 ! D37   D(8,9,12,25)          145.4774         estimate D2E/DX2                !
 ! D38   D(24,9,12,13)         161.1114         estimate D2E/DX2                !
 ! D39   D(24,9,12,25)         -24.5927         estimate D2E/DX2                !
 ! D40   D(11,12,13,14)        165.1968         estimate D2E/DX2                !
 ! D41   D(11,12,13,26)        -71.7886         estimate D2E/DX2                !
 ! D42   D(25,12,13,14)         -8.6294         estimate D2E/DX2                !
 ! D43   D(25,12,13,26)        114.3852         estimate D2E/DX2                !
 ! D44   D(12,13,14,27)         13.8644         estimate D2E/DX2                !
 ! D45   D(12,13,14,28)       -171.6322         estimate D2E/DX2                !
 ! D46   D(26,13,14,27)       -111.3397         estimate D2E/DX2                !
 ! D47   D(26,13,14,28)         63.1636         estimate D2E/DX2                !
 ! D48   D(13,14,28,15)         11.8501         estimate D2E/DX2                !
 ! D49   D(27,14,28,15)       -179.5817         estimate D2E/DX2                !
 ! D50   D(16,15,28,14)        179.75           estimate D2E/DX2                !
 ! D51   D(16,15,28,29)         11.2038         estimate D2E/DX2                !
 ! D52   D(29,15,28,14)        168.5462         estimate D2E/DX2                !
 ! D53   D(3,17,21,6)           80.5233         estimate D2E/DX2                !
 ! D54   D(23,17,21,6)         -66.3989         estimate D2E/DX2                !
 ! D55   D(3,17,23,8)           43.1137         estimate D2E/DX2                !
 ! D56   D(21,17,23,8)          67.1128         estimate D2E/DX2                !
 --------------------------------------------------------------------------------
 Trust Radius=3.00D-01 FncErr=1.00D-07 GrdErr=1.00D-06 EigMax=2.50D+02 EigMin=1.00D-04
 Number of steps in this run=    142 maximum allowed number of steps=    174.
 GradGradGradGradGradGradGradGradGradGradGradGradGradGradGradGradGradGrad

                          Input orientation:                          
 ---------------------------------------------------------------------
 Center     Atomic      Atomic             Coordinates (Angstroms)
 Number     Number       Type             X           Y           Z
 ---------------------------------------------------------------------
      1         16           0        2.657680    0.411600   -0.269120
      2         16           0        5.195640    1.373420   -0.196050
      3          6           0        7.301490    2.102850   -1.205490
      4          6           0        6.176020    1.376040   -1.889240
      5          6           0        5.676500    1.846440   -3.138010
      6          6           0        6.893800    2.065270   -3.584100
      7          6           0        7.348310    3.094830   -4.390260
      8          6           0        8.654670    3.277620   -4.577710
      9          6           0        9.285660    4.166410   -5.488760
     10          6           0       10.581150    4.271140   -5.661990
     11          6           0       11.756610    4.416160   -5.905130
     12          6           0       13.015230    4.613500   -6.199600
     13          6           0       13.889520    4.348440   -5.204190
     14          6           0       14.936730    4.109790   -4.514660
     15          6           0       13.463990    3.534540   -3.343030
     16          6           0       11.761980    3.119520   -2.924890
     17         16           0        9.638720    2.357950   -1.771800
     18          1           0        1.249340   -0.409170    0.553110
     19          1           0        6.346120    0.323790   -1.465430
     20          1           0        4.790910    2.460690   -3.399360
     21          1           0        7.710980    1.563570   -3.045560
     22          1           0        6.570390    3.658470   -4.841150
     23          1           0        9.380380    2.673740   -4.080460
     24          1           0        8.558100    4.643360   -6.123790
     25          1           0       13.491940    4.847470   -7.117670
     26          1           0       13.735480    5.166610   -4.486560
     27          1           0       15.655490    4.528150   -5.611940
     28          1           0       14.848000    3.657130   -2.904930
     29          1           0       13.054310    3.004200   -2.481420
 ---------------------------------------------------------------------
                    Distance matrix (angstroms):
                    1          2          3          4          5
     1  S    0.000000
     2  S    2.715083   0.000000
     3  C    5.030118   2.446557   0.000000
     4  C    3.991698   1.956539   1.504144   0.000000
     5  C    4.404835   3.018295   2.537907   1.424859   0.000000
     6  C    5.627471   3.852439   2.413588   1.965400   1.314801
     7  C    6.795994   5.018828   3.336012   3.253245   2.433425
     8  C    7.920979   5.898289   3.818776   4.121600   3.604235
     9  C    9.234358   7.248575   5.151855   5.514759   4.892272
    10  C   10.332496   8.202256   5.942899   6.482316   6.025383
    11  C   11.427670   9.214021   6.876490   7.517492   7.157384
    12  C   12.653276  10.377221   7.993205   8.708338   8.419437
    13  C   12.884404  10.464978   8.027105   8.906298   8.830787
    14  C   13.508378  11.001225   8.560100   9.545484   9.631707
    15  C   11.660961   9.107114   6.677965   7.738678   7.970992
    16  C    9.862770   7.322039   4.887323   5.942663   6.220870
    17  S    7.401435   4.815937   2.418352   3.601143   4.222246
    18  H    1.825691   4.394559   6.784647   5.781369   6.189660
    19  H    3.878590   2.009142   2.036015   1.147074   2.358893
    20  H    4.306721   3.406928   3.353226   2.318503   1.108998
    21  H    5.879753   3.805627   1.960705   1.930892   2.056130
    22  H    6.837757   5.356150   4.021503   3.752171   2.642570
    23  H    8.052222   5.855896   3.593487   4.093091   3.910417
    24  H    9.327374   7.558885   5.676525   5.855006   5.004125
    25  H   13.563214  11.349293   8.989354   9.638983   9.269573
    26  H   12.771632  10.282297   7.845271   8.846464   8.819823
    27  H   14.643592  12.193959   9.751318  10.660893  10.625071
    28  H   12.887392  10.282092   7.890101   9.024314   9.351435
    29  H   10.941013   8.345122   5.961155   7.093127   7.496906
                    6          7          8          9         10
     6  C    0.000000
     7  C    1.384365   0.000000
     8  C    2.357481   1.332339   0.000000
     9  C    3.709921   2.471500   1.420601   0.000000
    10  C    4.772844   3.667732   2.423648   1.311210   0.000000
    11  C    5.878842   4.844982   3.560948   2.518200   1.209072
    12  C    7.127848   6.139548   4.840412   3.822941   2.516144
    13  C    7.535095   6.709802   5.379850   4.616237   3.340789
    14  C    8.350732   7.657006   6.337252   5.734690   4.507047
    15  C    6.736785   6.220255   4.971921   4.739394   3.772389
    16  C    5.024458   4.650635   3.523093   3.715046   3.195670
    17  S    3.302223   3.556023   3.112439   4.148611   4.436445
    18  H    7.422890   8.597230   9.734303  11.046382  12.149710
    19  H    2.796689   4.151828   4.872453   6.292361   7.150396
    20  H    2.147704   2.815015   4.121229   5.241932   6.474882
    21  H    1.099778   2.069905   2.485156   3.901746   4.734397
    22  H    2.055007   1.061203   2.135104   2.837269   4.139485
    23  H    2.607621   2.098238   1.067044   2.054348   2.548484
    24  H    3.983274   2.620432   2.065172   1.077074   2.108207
    25  H    7.985124   6.946560   5.684629   4.561796   3.305126
    26  H    7.565800   6.715466   5.421367   4.669658   3.483289
    27  H    9.324437   8.517990   7.186441   6.381282   5.081091
    28  H    8.140306   7.666012   6.426473   6.154281   5.117069
    29  H    6.328458   6.017501   4.881191   4.959592   4.223468
                   11         12         13         14         15
    11  C    0.000000
    12  C    1.307586   0.000000
    13  C    2.246154   1.351104   0.000000
    14  C    3.484312   2.604786   1.276344   0.000000
    15  C    3.202617   3.086346   2.075434   1.967890   0.000000
    16  C    3.250098   3.811343   3.351400   3.686060   1.801089
    17  S    5.079971   6.007806   5.814865   6.217808   4.299514
    18  H   13.243693  14.465907  14.681809  15.279003  13.413815
    19  H    8.107517   9.235313   9.331614   9.870673   8.031088
    20  H    7.656613   8.950719   9.466030  10.339298   8.739488
    21  H    5.716776   6.883684   7.112632   7.800830   6.088541
    22  H    5.348180   6.655331   7.360538   8.384863   7.055597
    23  H    3.465821   4.633094   4.939609   5.755327   4.238001
    24  H    3.214016   4.457875   5.418181   6.600069   5.747161
    25  H    2.160475   1.060588   2.017054   3.067124   3.996558
    26  H    2.547831   1.938865   1.099147   1.600206   2.011224
    27  H    3.911492   2.706215   1.821320   1.376831   3.307247
    28  H    4.374245   3.889542   2.585187   1.674516   1.456861
    29  H    3.924213   4.051695   3.149291   2.983270   1.091545
                   16         17         18         19         20
    16  C    0.000000
    17  S    2.533345   0.000000
    18  H   11.621693   9.134761   0.000000
    19  H    6.267190   3.882381   5.530723   0.000000
    20  H    7.018190   5.114760   6.033310   3.274921   0.000000
    21  H    4.341214   2.443294   7.654732   2.428314   3.075192
    22  H    5.560137   4.530663   8.599844   4.750355   2.584567
    23  H    2.684414   2.344435   9.853330   4.644069   4.644623
    24  H    4.777018   5.032957  11.114271   6.726950   5.135980
    25  H    4.853656   7.044384  15.373821  10.172229   9.758610
    26  H    3.244086   5.660560  14.573650   9.337172   9.407940
    27  H    4.935980   7.460427  16.429307  11.024271  11.278697
    28  H    3.132562   5.487117  14.608778   9.244743  10.140068
    29  H    1.371161   3.547880  12.657677   7.294974   8.331974
                   21         22         23         24         25
    21  H    0.000000
    22  H    2.985581   0.000000
    23  H    2.256190   3.073172   0.000000
    24  H    4.436014   2.562453   2.954783   0.000000
    25  H    7.796511   7.382690   5.554698   5.037086   0.000000
    26  H    7.166099   7.330671   5.034502   5.455234   2.661560
    27  H    8.859474   9.159121   6.720214   7.116755   2.655209
    28  H    7.439074   8.501046   5.678362   7.134182   4.582902
    29  H    5.562809   6.930917   4.020435   6.014117   5.008391
                   26         27         28         29
    26  H    0.000000
    27  H    2.315286   0.000000
    28  H    2.453117   2.956116   0.000000
    29  H    3.026648   4.346115   1.955250   0.000000
 Stoichiometry    C14H12S3
 Framework group  C1[X(C14H12S3)]
 Deg. of freedom    81
 Full point group                 C1      NOp   1
 Largest Abelian subgroup         C1      NOp   1
 Largest concise Abelian subgroup C1      NOp   1
                         Standard orientation:                         
 ---------------------------------------------------------------------
 Center     Atomic      Atomic             Coordinates (Angstroms)
 Number     Number       Type             X           Y           Z
 ---------------------------------------------------------------------
      1         16           0        6.907551    0.091645    0.122216
      2         16           0        4.462160   -0.969827   -0.392583
      3          6           0        2.015795   -0.975129   -0.362355
      4          6           0        2.926341   -0.036848    0.381274
      5          6           0        2.697153    1.368629    0.333002
      6          6           0        1.402227    1.199665    0.485709
      7          6           0        0.362698    1.909692   -0.090232
      8          6           0       -0.891441    1.472196    0.013975
      9          6           0       -2.081707    2.147701   -0.366903
     10          6           0       -3.296491    1.683944   -0.198079
     11          6           0       -4.449456    1.347506   -0.059029
     12          6           0       -5.711019    1.026366    0.063890
     13          6           0       -5.970830   -0.299471    0.075493
     14          6           0       -6.512541   -1.448157    0.202474
     15          6           0       -4.590600   -1.849423    0.069350
     16          6           0       -2.830504   -1.469216    0.031575
     17         16           0       -0.300361   -1.583355   -0.024852
     18          1           0        8.707156   -0.111693    0.352914
     19          1           0        3.280378   -0.739642    1.215851
     20          1           0        3.159272    2.175782   -0.271006
     21          1           0        1.077511    0.223200    0.873765
     22          1           0        0.670457    2.809442   -0.561280
     23          1           0       -1.122935    0.549182    0.496716
     24          1           0       -1.865746    3.154506   -0.682803
     25          1           0       -6.568795    1.617877    0.261835
     26          1           0       -5.798214   -0.616019   -0.962834
     27          1           0       -7.708578   -0.779137    0.335029
     28          1           0       -5.636283   -2.862087    0.010173
     29          1           0       -3.721579   -2.501549    0.174251
 ---------------------------------------------------------------------
 Rotational constants (GHZ):           0.9897876           0.1043668           0.0951367
 Standard basis: 6-31G(2df,p) (6D, 7F)
 There are   599 symmetry adapted cartesian basis functions of A   symmetry.
 There are   548 symmetry adapted basis functions of A   symmetry.
   548 basis functions,   904 primitive gaussians,   599 cartesian basis functions
    72 alpha electrons       72 beta electrons
       nuclear repulsion energy      1252.8744729952 Hartrees.
 NAtoms=   29 NActive=   29 NUniq=   29 SFac= 1.00D+00 NAtFMM=   60 NAOKFM=F Big=F
 Integral buffers will be    131072 words long.
 Raffenetti 2 integral format.
 Two-electron integral symmetry is turned on.
 One-electron integrals computed using PRISM.
 PrsmSu:  requested number of processors reduced to:  12 ShMem   1 Linda.
 NBasis=   548 RedAO= T EigKep=  3.57D-05  NBF=   548
 NBsUse=   548 1.00D-06 EigRej= -1.00D+00 NBFU=   548
 ExpMin= 1.17D-01 ExpMax= 2.19D+04 ExpMxC= 3.30D+03 IAcc=3 IRadAn=         5 AccDes= 0.00D+00
 Harris functional with IExCor=  402 and IRadAn=       5 diagonalized for initial guess.
 HarFok:  IExCor=  402 AccDes= 0.00D+00 IRadAn=         5 IDoV= 1 UseB2=F ITyADJ=14
 ICtDFT=  3500011 ScaDFX=  1.000000  1.000000  1.000000  1.000000
 FoFCou: FMM=F IPFlag=           0 FMFlag=      100000 FMFlg1=           0
         NFxFlg=           0 DoJE=T BraDBF=F KetDBF=T FulRan=T
         wScrn=  0.000000 ICntrl=       500 IOpCl=  0 I1Cent=   200000004 NGrid=           0
         NMat0=    1 NMatS0=      1 NMatT0=    0 NMatD0=    1 NMtDS0=    0 NMtDT0=    0
 Petite list used in FoFCou.
 Requested convergence on RMS density matrix=1.00D-08 within 128 cycles.
 Requested convergence on MAX density matrix=1.00D-06.
 Requested convergence on             energy=1.00D-06.
 No special actions if energy rises.
 Integral accuracy reduced to 1.0D-05 until final iterations.
 EnCoef did     4 forward-backward iterations
 EnCoef did   100 forward-backward iterations
 EnCoef did   100 forward-backward iterations
 EnCoef did     5 forward-backward iterations
 EnCoef did     5 forward-backward iterations
 EnCoef did   100 forward-backward iterations
 EnCoef did     3 forward-backward iterations
 EnCoef did    24 forward-backward iterations
 EnCoef did     2 forward-backward iterations
 EnCoef did     7 forward-backward iterations
 Initial convergence to 1.4D-05 achieved.  Increase integral accuracy.
 EnCoef did    13 forward-backward iterations
 SCF Done:  E(RB3LYP) =  -1734.02345746     A.U. after   36 cycles
            NFock= 36  Conv=0.62D-08     -V/T= 2.0040

 **********************************************************************

            Population analysis using the SCF density.

 **********************************************************************

 Orbital symmetries:
       Occupied  (A) (A) (A) (A) (A) (A) (A) (A) (A) (A) (A) (A)
                 (A) (A) (A) (A) (A) (A) (A) (A) (A) (A) (A) (A)
                 (A) (A) (A) (A) (A) (A) (A) (A) (A) (A) (A) (A)
                 (A) (A) (A) (A) (A) (A) (A) (A) (A) (A) (A) (A)
                 (A) (A) (A) (A) (A) (A) (A) (A) (A) (A) (A) (A)
                 (A) (A) (A) (A) (A) (A) (A) (A) (A) (A) (A) (A)
       Virtual   (A) (A) (A) (A) (A) (A) (A) (A) (A) (A) (A) (A)
                 (A) (A) (A) (A) (A) (A) (A) (A) (A) (A) (A) (A)
                 (A) (A) (A) (A) (A) (A) (A) (A) (A) (A) (A) (A)
                 (A) (A) (A) (A) (A) (A) (A) (A) (A) (A) (A) (A)
                 (A) (A) (A) (A) (A) (A) (A) (A) (A) (A) (A) (A)
                 (A) (A) (A) (A) (A) (A) (A) (A) (A) (A) (A) (A)
                 (A) (A) (A) (A) (A) (A) (A) (A) (A) (A) (A) (A)
                 (A) (A) (A) (A) (A) (A) (A) (A) (A) (A) (A) (A)
                 (A) (A) (A) (A) (A) (A) (A) (A) (A) (A) (A) (A)
                 (A) (A) (A) (A) (A) (A) (A) (A) (A) (A) (A) (A)
                 (A) (A) (A) (A) (A) (A) (A) (A) (A) (A) (A) (A)
                 (A) (A) (A) (A) (A) (A) (A) (A) (A) (A) (A) (A)
                 (A) (A) (A) (A) (A) (A) (A) (A) (A) (A) (A) (A)
                 (A) (A) (A) (A) (A) (A) (A) (A) (A) (A) (A) (A)
                 (A) (A) (A) (A) (A) (A) (A) (A) (A) (A) (A) (A)
                 (A) (A) (A) (A) (A) (A) (A) (A) (A) (A) (A) (A)
                 (A) (A) (A) (A) (A) (A) (A) (A) (A) (A) (A) (A)
                 (A) (A) (A) (A) (A) (A) (A) (A) (A) (A) (A) (A)
                 (A) (A) (A) (A) (A) (A) (A) (A) (A) (A) (A) (A)
                 (A) (A) (A) (A) (A) (A) (A) (A) (A) (A) (A) (A)
                 (A) (A) (A) (A) (A) (A) (A) (A) (A) (A) (A) (A)
                 (A) (A) (A) (A) (A) (A) (A) (A) (A) (A) (A) (A)
                 (A) (A) (A) (A) (A) (A) (A) (A) (A) (A) (A) (A)
                 (A) (A) (A) (A) (A) (A) (A) (A) (A) (A) (A) (A)
                 (A) (A) (A) (A) (A) (A) (A) (A) (A) (A) (A) (A)
                 (A) (A) (A) (A) (A) (A) (A) (A) (A) (A) (A) (A)
                 (A) (A) (A) (A) (A) (A) (A) (A) (A) (A) (A) (A)
                 (A) (A) (A) (A) (A) (A) (A) (A) (A) (A) (A) (A)
                 (A) (A) (A) (A) (A) (A) (A) (A) (A) (A) (A) (A)
                 (A) (A) (A) (A) (A) (A) (A) (A) (A) (A) (A) (A)
                 (A) (A) (A) (A) (A) (A) (A) (A) (A) (A) (A) (A)
                 (A) (A) (A) (A) (A) (A) (A) (A) (A) (A) (A) (A)
                 (A) (A) (A) (A) (A) (A) (A) (A) (A) (A) (A) (A)
                 (A) (A) (A) (A) (A) (A) (A) (A) (A) (A) (A) (A)
                 (A) (A) (A) (A) (A) (A) (A) (A) (A) (A) (A) (A)
                 (A) (A) (A) (A) (A) (A) (A) (A) (A) (A) (A) (A)
                 (A) (A) (A) (A) (A) (A) (A) (A) (A) (A) (A) (A)
                 (A) (A) (A) (A) (A) (A) (A) (A) (A) (A) (A) (A)
                 (A) (A) (A) (A) (A) (A) (A) (A) (A) (A) (A) (A)
                 (A) (A) (A) (A) (A) (A) (A) (A)
 The electronic state is 1-A.
 Alpha  occ. eigenvalues --  -88.89859 -88.87416 -88.86260 -10.31440 -10.30754
 Alpha  occ. eigenvalues --  -10.29338 -10.27933 -10.27132 -10.26857 -10.24719
 Alpha  occ. eigenvalues --  -10.24003 -10.23395 -10.23157 -10.21871 -10.21438
 Alpha  occ. eigenvalues --  -10.21342 -10.20916  -7.95900  -7.93405  -7.92322
 Alpha  occ. eigenvalues --   -5.92423  -5.92037  -5.91372  -5.89904  -5.89626
 Alpha  occ. eigenvalues --   -5.89107  -5.88823  -5.88193  -5.87803  -0.93711
 Alpha  occ. eigenvalues --   -0.91267  -0.86223  -0.83828  -0.80472  -0.76762
 Alpha  occ. eigenvalues --   -0.74560  -0.72294  -0.67019  -0.64505  -0.63722
 Alpha  occ. eigenvalues --   -0.62150  -0.59696  -0.59015  -0.58564  -0.54655
 Alpha  occ. eigenvalues --   -0.54439  -0.53608  -0.51252  -0.50555  -0.49355
 Alpha  occ. eigenvalues --   -0.46180  -0.44726  -0.42951  -0.41671  -0.39690
 Alpha  occ. eigenvalues --   -0.39454  -0.36792  -0.35996  -0.34167  -0.32779
 Alpha  occ. eigenvalues --   -0.31716  -0.31156  -0.28968  -0.26536  -0.26171
 Alpha  occ. eigenvalues --   -0.25190  -0.24569  -0.23367  -0.22116  -0.22039
 Alpha  occ. eigenvalues --   -0.21215  -0.19779
 Alpha virt. eigenvalues --   -0.17673  -0.14410  -0.13227  -0.11996  -0.09438
 Alpha virt. eigenvalues --   -0.07803  -0.06321  -0.04951  -0.02419  -0.01803
 Alpha virt. eigenvalues --   -0.01076   0.00875   0.01749   0.04251   0.05564
 Alpha virt. eigenvalues --    0.07428   0.07821   0.10876   0.12411   0.13692
 Alpha virt. eigenvalues --    0.14189   0.14509   0.15589   0.16168   0.18226
 Alpha virt. eigenvalues --    0.19867   0.20244   0.23718   0.24260   0.26172
 Alpha virt. eigenvalues --    0.27081   0.27760   0.28695   0.29521   0.30155
 Alpha virt. eigenvalues --    0.30439   0.32196   0.33133   0.33894   0.35012
 Alpha virt. eigenvalues --    0.35738   0.36118   0.36795   0.37333   0.37787
 Alpha virt. eigenvalues --    0.38362   0.38591   0.40092   0.40412   0.41337
 Alpha virt. eigenvalues --    0.41625   0.41814   0.42056   0.42615   0.42877
 Alpha virt. eigenvalues --    0.43719   0.43840   0.44492   0.44701   0.45176
 Alpha virt. eigenvalues --    0.45611   0.46128   0.47287   0.47748   0.48624
 Alpha virt. eigenvalues --    0.48787   0.49874   0.50838   0.51068   0.51978
 Alpha virt. eigenvalues --    0.52346   0.53172   0.53646   0.54194   0.54534
 Alpha virt. eigenvalues --    0.54767   0.55897   0.56443   0.57599   0.58491
 Alpha virt. eigenvalues --    0.59667   0.60547   0.60782   0.61213   0.61886
 Alpha virt. eigenvalues --    0.62641   0.63762   0.64166   0.64887   0.65850
 Alpha virt. eigenvalues --    0.66506   0.67456   0.68313   0.68567   0.70021
 Alpha virt. eigenvalues --    0.70506   0.70957   0.71567   0.72843   0.73842
 Alpha virt. eigenvalues --    0.74518   0.75010   0.75755   0.76309   0.76684
 Alpha virt. eigenvalues --    0.78291   0.78530   0.79430   0.79986   0.80421
 Alpha virt. eigenvalues --    0.80964   0.81705   0.82005   0.82977   0.83410
 Alpha virt. eigenvalues --    0.84448   0.84630   0.85259   0.86594   0.87037
 Alpha virt. eigenvalues --    0.87458   0.88591   0.90352   0.91153   0.91618
 Alpha virt. eigenvalues --    0.92837   0.95287   0.96471   0.96986   0.98529
 Alpha virt. eigenvalues --    1.00097   1.00309   1.01552   1.01804   1.03234
 Alpha virt. eigenvalues --    1.05173   1.05966   1.06644   1.08246   1.08866
 Alpha virt. eigenvalues --    1.09495   1.10849   1.13284   1.13705   1.14715
 Alpha virt. eigenvalues --    1.16244   1.17829   1.18793   1.19237   1.20060
 Alpha virt. eigenvalues --    1.22851   1.23781   1.26497   1.28010   1.28289
 Alpha virt. eigenvalues --    1.29389   1.30850   1.32443   1.33362   1.34005
 Alpha virt. eigenvalues --    1.34968   1.35321   1.37431   1.38908   1.40480
 Alpha virt. eigenvalues --    1.41011   1.43151   1.45279   1.47261   1.47749
 Alpha virt. eigenvalues --    1.49252   1.50004   1.50445   1.51909   1.53378
 Alpha virt. eigenvalues --    1.54455   1.56283   1.56694   1.57655   1.57910
 Alpha virt. eigenvalues --    1.59556   1.60407   1.61725   1.62329   1.63371
 Alpha virt. eigenvalues --    1.63780   1.64410   1.66081   1.66483   1.67628
 Alpha virt. eigenvalues --    1.67682   1.68743   1.68837   1.69001   1.69617
 Alpha virt. eigenvalues --    1.70543   1.70748   1.70966   1.72666   1.73400
 Alpha virt. eigenvalues --    1.73930   1.74864   1.76075   1.76817   1.78459
 Alpha virt. eigenvalues --    1.78944   1.80810   1.81933   1.82602   1.85597
 Alpha virt. eigenvalues --    1.86912   1.87766   1.88644   1.93762   1.94953
 Alpha virt. eigenvalues --    1.96868   1.97229   1.99353   2.00437   2.02493
 Alpha virt. eigenvalues --    2.03608   2.04110   2.05543   2.08774   2.08987
 Alpha virt. eigenvalues --    2.10388   2.11496   2.11796   2.12610   2.13855
 Alpha virt. eigenvalues --    2.14361   2.16874   2.17865   2.18478   2.19210
 Alpha virt. eigenvalues --    2.20837   2.21304   2.22535   2.23707   2.24417
 Alpha virt. eigenvalues --    2.26530   2.27902   2.28713   2.29437   2.30038
 Alpha virt. eigenvalues --    2.30485   2.30740   2.32049   2.33496   2.35934
 Alpha virt. eigenvalues --    2.36593   2.38780   2.39992   2.41930   2.42825
 Alpha virt. eigenvalues --    2.44592   2.46517   2.47720   2.50248   2.50684
 Alpha virt. eigenvalues --    2.52361   2.52617   2.56995   2.57077   2.58401
 Alpha virt. eigenvalues --    2.59257   2.59586   2.60977   2.62494   2.64562
 Alpha virt. eigenvalues --    2.65164   2.66977   2.67524   2.69963   2.72653
 Alpha virt. eigenvalues --    2.73238   2.75550   2.76748   2.77445   2.78363
 Alpha virt. eigenvalues --    2.79659   2.81093   2.82545   2.82888   2.83394
 Alpha virt. eigenvalues --    2.85764   2.87185   2.88208   2.88872   2.89184
 Alpha virt. eigenvalues --    2.90682   2.90894   2.92730   2.93371   2.94310
 Alpha virt. eigenvalues --    2.95215   2.96998   2.98334   2.98665   2.99525
 Alpha virt. eigenvalues --    3.00849   3.01927   3.03057   3.05116   3.06228
 Alpha virt. eigenvalues --    3.07354   3.08092   3.08349   3.09146   3.10099
 Alpha virt. eigenvalues --    3.11917   3.12772   3.13349   3.14510   3.14622
 Alpha virt. eigenvalues --    3.15810   3.16753   3.18964   3.19936   3.20352
 Alpha virt. eigenvalues --    3.22697   3.23746   3.24660   3.24882   3.26799
 Alpha virt. eigenvalues --    3.28827   3.30050   3.31047   3.32114   3.34353
 Alpha virt. eigenvalues --    3.35652   3.36166   3.37316   3.38806   3.40522
 Alpha virt. eigenvalues --    3.41466   3.42612   3.45198   3.46696   3.48191
 Alpha virt. eigenvalues --    3.49183   3.50215   3.53159   3.55035   3.55735
 Alpha virt. eigenvalues --    3.56766   3.58911   3.59916   3.62104   3.62463
 Alpha virt. eigenvalues --    3.65441   3.68034   3.70737   3.71657   3.72416
 Alpha virt. eigenvalues --    3.74571   3.75749   3.76869   3.77840   3.80485
 Alpha virt. eigenvalues --    3.81358   3.82762   3.83159   3.85570   3.88413
 Alpha virt. eigenvalues --    3.91612   3.93684   3.96954   3.98878   4.00074
 Alpha virt. eigenvalues --    4.02350   4.03434   4.04397   4.08573   4.12745
 Alpha virt. eigenvalues --    4.13672   4.17021   4.17535   4.18320   4.19471
 Alpha virt. eigenvalues --    4.21418   4.22696   4.23538   4.25968   4.26719
 Alpha virt. eigenvalues --    4.27833   4.28232   4.29840   4.31351   4.31477
 Alpha virt. eigenvalues --    4.32230   4.33857   4.35732   4.36171   4.38731
 Alpha virt. eigenvalues --    4.40753   4.41072   4.43854   4.44488   4.45086
 Alpha virt. eigenvalues --    4.45756   4.48308   4.49010   4.51352   4.52675
 Alpha virt. eigenvalues --    4.53637   4.55249   4.56627   4.58760   4.60662
 Alpha virt. eigenvalues --    4.61644   4.62587   4.64533   4.65407   4.66985
 Alpha virt. eigenvalues --    4.70010   4.71335   4.73094   4.75638   4.76698
 Alpha virt. eigenvalues --    4.77655   4.82074   4.83696   4.83787   4.85344
 Alpha virt. eigenvalues --    4.88650   4.89567   4.92172   4.93227   4.94287
 Alpha virt. eigenvalues --    4.96357   4.96979   5.01303   5.04688   5.08059
 Alpha virt. eigenvalues --    5.12039   5.14062   5.14539   5.21160   5.21304
 Alpha virt. eigenvalues --    5.25742   5.28868   5.30564   5.33256   5.33570
 Alpha virt. eigenvalues --    5.38810   5.39967   5.40652   5.46558   5.46750
 Alpha virt. eigenvalues --    5.50124   5.54892   5.58779   5.64390   5.75223
 Alpha virt. eigenvalues --    5.83880   5.98948   6.20215   6.51186   6.65050
 Alpha virt. eigenvalues --    6.78459   7.48996   9.70721  10.02837  10.15264
 Alpha virt. eigenvalues --   10.28914  10.36189  10.63018  10.70937  10.79272
 Alpha virt. eigenvalues --   11.05845  11.60026  11.85068  11.98904  12.22343
 Alpha virt. eigenvalues --   12.34727
          Condensed to atoms (all electrons):
               1          2          3          4          5          6
     1  S   16.022151   0.038312   0.000813  -0.001449   0.000665   0.000048
     2  S    0.038312  15.953608   0.036746   0.162666  -0.031581   0.005950
     3  C    0.000813   0.036746   5.601158   0.359034  -0.055923  -0.032478
     4  C   -0.001449   0.162666   0.359034   4.954129   0.345896  -0.036112
     5  C    0.000665  -0.031581  -0.055923   0.345896   5.199107   0.517071
     6  C    0.000048   0.005950  -0.032478  -0.036112   0.517071   4.688513
     7  C   -0.000001  -0.000322  -0.000288   0.005198  -0.035200   0.525387
     8  C    0.000000  -0.000018  -0.000967  -0.000062   0.004248   0.014155
     9  C    0.000000  -0.000000   0.000016   0.000000  -0.000377   0.001958
    10  C   -0.000000   0.000000   0.000005  -0.000001   0.000013  -0.000595
    11  C   -0.000000   0.000000   0.000000  -0.000000   0.000000  -0.000014
    12  C   -0.000000   0.000000   0.000000  -0.000000   0.000000   0.000000
    13  C    0.000000   0.000000  -0.000000  -0.000000   0.000000   0.000000
    14  C   -0.000000  -0.000000   0.000000  -0.000000  -0.000000  -0.000000
    15  C   -0.000000   0.000000  -0.000001   0.000000  -0.000000  -0.000000
    16  C    0.000000  -0.000000   0.000236  -0.000001  -0.000001  -0.000031
    17  S   -0.000006  -0.000119   0.151375  -0.014713   0.000515  -0.025394
    18  H    0.219472   0.001569  -0.000000   0.000002  -0.000001   0.000000
    19  H    0.000034  -0.036571  -0.027569   0.320068  -0.012833  -0.003785
    20  H    0.000274  -0.000317  -0.000200  -0.028860   0.368167  -0.029406
    21  H    0.000000   0.003134  -0.017405  -0.028951  -0.047773   0.376048
    22  H   -0.000000   0.000054  -0.000315  -0.000130  -0.007305  -0.052272
    23  H    0.000000   0.000007  -0.000650  -0.000127   0.000778  -0.011589
    24  H    0.000000  -0.000000  -0.000003   0.000001  -0.000008   0.000031
    25  H    0.000000   0.000000  -0.000000  -0.000000   0.000000   0.000000
    26  H    0.000000   0.000000   0.000000  -0.000000   0.000000   0.000000
    27  H    0.000000  -0.000000  -0.000000   0.000000   0.000000   0.000000
    28  H   -0.000000  -0.000000   0.000000  -0.000000  -0.000000  -0.000000
    29  H    0.000000   0.000000  -0.000000  -0.000000   0.000000   0.000000
               7          8          9         10         11         12
     1  S   -0.000001   0.000000   0.000000  -0.000000  -0.000000  -0.000000
     2  S   -0.000322  -0.000018  -0.000000   0.000000   0.000000   0.000000
     3  C   -0.000288  -0.000967   0.000016   0.000005   0.000000   0.000000
     4  C    0.005198  -0.000062   0.000000  -0.000001  -0.000000  -0.000000
     5  C   -0.035200   0.004248  -0.000377   0.000013   0.000000   0.000000
     6  C    0.525387   0.014155   0.001958  -0.000595  -0.000014   0.000000
     7  C    4.816025   0.549984   0.009503  -0.000576  -0.000723  -0.000006
     8  C    0.549984   4.790481   0.380516   0.018339   0.008437   0.000286
     9  C    0.009503   0.380516   5.083914   0.575815  -0.078103  -0.011082
    10  C   -0.000576   0.018339   0.575815   4.966609   0.482728  -0.112305
    11  C   -0.000723   0.008437  -0.078103   0.482728   4.929446   0.466712
    12  C   -0.000006   0.000286  -0.011082  -0.112305   0.466712   5.444059
    13  C   -0.000000   0.000015   0.000353  -0.014283  -0.018956   0.485575
    14  C    0.000000   0.000001  -0.000006  -0.001097  -0.010572  -0.058314
    15  C   -0.000000   0.000052   0.000150   0.005446   0.010601  -0.049479
    16  C    0.000551  -0.001540  -0.001128   0.021839  -0.007075  -0.009114
    17  S   -0.010636  -0.025267   0.004808  -0.000360   0.000262   0.000039
    18  H    0.000000  -0.000000  -0.000000   0.000000   0.000000   0.000000
    19  H    0.000140   0.000002  -0.000000   0.000000   0.000000   0.000000
    20  H   -0.006471   0.000149  -0.000006   0.000000   0.000000   0.000000
    21  H   -0.046407  -0.012956   0.000299   0.000052   0.000005   0.000000
    22  H    0.352941  -0.035057  -0.011250   0.001257   0.000055   0.000000
    23  H   -0.039565   0.368343  -0.036937  -0.018405  -0.001830  -0.000050
    24  H   -0.009688  -0.048237   0.381920  -0.051749  -0.014122  -0.000204
    25  H   -0.000000  -0.000009  -0.000079  -0.007403  -0.039443   0.391907
    26  H   -0.000000  -0.000007   0.000021  -0.000868  -0.014841  -0.025115
    27  H   -0.000000  -0.000000   0.000001   0.000184   0.004755  -0.013123
    28  H    0.000000   0.000000   0.000000   0.000099   0.000492   0.000509
    29  H   -0.000002  -0.000032  -0.000019  -0.000824  -0.000125   0.002594
              13         14         15         16         17         18
     1  S    0.000000  -0.000000  -0.000000   0.000000  -0.000006   0.219472
     2  S    0.000000  -0.000000   0.000000  -0.000000  -0.000119   0.001569
     3  C   -0.000000   0.000000  -0.000001   0.000236   0.151375  -0.000000
     4  C   -0.000000  -0.000000   0.000000  -0.000001  -0.014713   0.000002
     5  C    0.000000  -0.000000  -0.000000  -0.000001   0.000515  -0.000001
     6  C    0.000000  -0.000000  -0.000000  -0.000031  -0.025394   0.000000
     7  C   -0.000000   0.000000  -0.000000   0.000551  -0.010636   0.000000
     8  C    0.000015   0.000001   0.000052  -0.001540  -0.025267  -0.000000
     9  C    0.000353  -0.000006   0.000150  -0.001128   0.004808  -0.000000
    10  C   -0.014283  -0.001097   0.005446   0.021839  -0.000360   0.000000
    11  C   -0.018956  -0.010572   0.010601  -0.007075   0.000262   0.000000
    12  C    0.485575  -0.058314  -0.049479  -0.009114   0.000039   0.000000
    13  C    4.534835   0.572609   0.008124  -0.004469   0.000141   0.000000
    14  C    0.572609   5.815257  -0.188158   0.003646  -0.000041   0.000000
    15  C    0.008124  -0.188158   6.066250   0.201835  -0.003248   0.000000
    16  C   -0.004469   0.003646   0.201835   5.775664   0.064673   0.000000
    17  S    0.000141  -0.000041  -0.003248   0.064673  16.159216   0.000000
    18  H    0.000000   0.000000   0.000000   0.000000   0.000000   0.702967
    19  H    0.000000  -0.000000  -0.000000   0.000001  -0.002072  -0.000001
    20  H    0.000000  -0.000000  -0.000000  -0.000000  -0.000205  -0.000000
    21  H    0.000000  -0.000000  -0.000001  -0.000050   0.011500  -0.000000
    22  H   -0.000000   0.000000  -0.000000  -0.000001  -0.000928  -0.000000
    23  H   -0.000017  -0.000000  -0.000019   0.008190  -0.005874  -0.000000
    24  H   -0.000020   0.000000  -0.000001   0.000034  -0.000181   0.000000
    25  H   -0.061033  -0.004042   0.000854  -0.000116   0.000001   0.000000
    26  H    0.257248  -0.015267   0.029546  -0.002744   0.000050   0.000000
    27  H   -0.026248   0.137303   0.016911  -0.000109   0.000001   0.000000
    28  H   -0.034300   0.050945   0.220900  -0.004892  -0.000071   0.000000
    29  H    0.004609   0.004785   0.091053   0.077744   0.005510  -0.000000
              19         20         21         22         23         24
     1  S    0.000034   0.000274   0.000000  -0.000000   0.000000   0.000000
     2  S   -0.036571  -0.000317   0.003134   0.000054   0.000007  -0.000000
     3  C   -0.027569  -0.000200  -0.017405  -0.000315  -0.000650  -0.000003
     4  C    0.320068  -0.028860  -0.028951  -0.000130  -0.000127   0.000001
     5  C   -0.012833   0.368167  -0.047773  -0.007305   0.000778  -0.000008
     6  C   -0.003785  -0.029406   0.376048  -0.052272  -0.011589   0.000031
     7  C    0.000140  -0.006471  -0.046407   0.352941  -0.039565  -0.009688
     8  C    0.000002   0.000149  -0.012956  -0.035057   0.368343  -0.048237
     9  C   -0.000000  -0.000006   0.000299  -0.011250  -0.036937   0.381920
    10  C    0.000000   0.000000   0.000052   0.001257  -0.018405  -0.051749
    11  C    0.000000   0.000000   0.000005   0.000055  -0.001830  -0.014122
    12  C    0.000000   0.000000   0.000000   0.000000  -0.000050  -0.000204
    13  C    0.000000   0.000000   0.000000  -0.000000  -0.000017  -0.000020
    14  C   -0.000000  -0.000000  -0.000000   0.000000  -0.000000   0.000000
    15  C   -0.000000  -0.000000  -0.000001  -0.000000  -0.000019  -0.000001
    16  C    0.000001  -0.000000  -0.000050  -0.000001   0.008190   0.000034
    17  S   -0.002072  -0.000205   0.011500  -0.000928  -0.005874  -0.000181
    18  H   -0.000001  -0.000000  -0.000000  -0.000000  -0.000000   0.000000
    19  H    0.520942   0.001540  -0.000569  -0.000010   0.000002  -0.000000
    20  H    0.001540   0.516753   0.004729   0.004576   0.000003   0.000001
    21  H   -0.000569   0.004729   0.580916   0.006619   0.005688  -0.000002
    22  H   -0.000010   0.004576   0.006619   0.634049   0.005755   0.005423
    23  H    0.000002   0.000003   0.005688   0.005755   0.566224   0.007087
    24  H   -0.000000   0.000001  -0.000002   0.005423   0.007087   0.603108
    25  H    0.000000   0.000000   0.000000   0.000000   0.000001   0.000015
    26  H    0.000000   0.000000   0.000000  -0.000000   0.000001  -0.000001
    27  H    0.000000   0.000000   0.000000   0.000000   0.000000  -0.000000
    28  H   -0.000000  -0.000000   0.000000   0.000000   0.000001   0.000000
    29  H    0.000000   0.000000   0.000001   0.000000  -0.000062   0.000000
              25         26         27         28         29
     1  S    0.000000   0.000000   0.000000  -0.000000   0.000000
     2  S    0.000000   0.000000  -0.000000  -0.000000   0.000000
     3  C   -0.000000   0.000000  -0.000000   0.000000  -0.000000
     4  C   -0.000000  -0.000000   0.000000  -0.000000  -0.000000
     5  C    0.000000   0.000000   0.000000  -0.000000   0.000000
     6  C    0.000000   0.000000   0.000000  -0.000000   0.000000
     7  C   -0.000000  -0.000000  -0.000000   0.000000  -0.000002
     8  C   -0.000009  -0.000007  -0.000000   0.000000  -0.000032
     9  C   -0.000079   0.000021   0.000001   0.000000  -0.000019
    10  C   -0.007403  -0.000868   0.000184   0.000099  -0.000824
    11  C   -0.039443  -0.014841   0.004755   0.000492  -0.000125
    12  C    0.391907  -0.025115  -0.013123   0.000509   0.002594
    13  C   -0.061033   0.257248  -0.026248  -0.034300   0.004609
    14  C   -0.004042  -0.015267   0.137303   0.050945   0.004785
    15  C    0.000854   0.029546   0.016911   0.220900   0.091053
    16  C   -0.000116  -0.002744  -0.000109  -0.004892   0.077744
    17  S    0.000001   0.000050   0.000001  -0.000071   0.005510
    18  H    0.000000   0.000000   0.000000   0.000000  -0.000000
    19  H    0.000000   0.000000   0.000000  -0.000000   0.000000
    20  H    0.000000   0.000000   0.000000  -0.000000   0.000000
    21  H    0.000000   0.000000   0.000000   0.000000   0.000001
    22  H    0.000000  -0.000000   0.000000   0.000000   0.000000
    23  H    0.000001   0.000001   0.000000   0.000001  -0.000062
    24  H    0.000015  -0.000001  -0.000000   0.000000   0.000000
    25  H    0.559578   0.006261   0.001816  -0.000152   0.000025
    26  H    0.006261   0.466476   0.016386  -0.009750   0.000547
    27  H    0.001816   0.016386   0.787600  -0.004321  -0.000339
    28  H   -0.000152  -0.009750  -0.004321   0.554436  -0.012498
    29  H    0.000025   0.000547  -0.000339  -0.012498   0.599744
 Mulliken charges:
               1
     1  S   -0.280312
     2  S   -0.133118
     3  C   -0.013582
     4  C   -0.036588
     5  C   -0.245457
     6  C    0.062513
     7  C   -0.109843
     8  C   -0.010858
     9  C   -0.300286
    10  C    0.136078
    11  C    0.282311
    12  C   -0.512888
    13  C    0.295817
    14  C   -0.307048
    15  C   -0.410817
    16  C   -0.123142
    17  S   -0.308976
    18  H    0.075993
    19  H    0.240680
    20  H    0.169273
    21  H    0.165122
    22  H    0.096539
    23  H    0.153044
    24  H    0.126598
    25  H    0.151818
    26  H    0.292055
    27  H    0.079183
    28  H    0.238602
    29  H    0.227289
 Sum of Mulliken charges =  -0.00000
 Mulliken charges with hydrogens summed into heavy atoms:
               1
     1  S   -0.204319
     2  S   -0.133118
     3  C   -0.013582
     4  C    0.204092
     5  C   -0.076185
     6  C    0.227635
     7  C   -0.013304
     8  C    0.142186
     9  C   -0.173688
    10  C    0.136078
    11  C    0.282311
    12  C   -0.361070
    13  C    0.587872
    14  C   -0.227865
    15  C    0.055074
    16  C   -0.123142
    17  S   -0.308976
 Electronic spatial extent (au):  <R**2>=          10378.2721
 Charge=             -0.0000 electrons
 Dipole moment (field-independent basis, Debye):
    X=            -10.8469    Y=              4.8736    Z=              0.4309  Tot=             11.8993
 Quadrupole moment (field-independent basis, Debye-Ang):
   XX=           -110.2197   YY=           -120.0126   ZZ=           -127.0330
   XY=              3.0646   XZ=              6.2520   YZ=             -4.1268
 Traceless Quadrupole moment (field-independent basis, Debye-Ang):
   XX=              8.8687   YY=             -0.9242   ZZ=             -7.9446
   XY=              3.0646   XZ=              6.2520   YZ=             -4.1268
 Octapole moment (field-independent basis, Debye-Ang**2):
  XXX=           -461.6724  YYY=             36.3757  ZZZ=              0.0055  XYY=            -11.8530
  XXY=             19.4755  XXZ=             -2.6020  XZZ=             -2.3536  YZZ=              5.0432
  YYZ=             -4.6939  XYZ=            -13.0300
 Hexadecapole moment (field-independent basis, Debye-Ang**3):
 XXXX=         -12229.6277 YYYY=          -1424.7064 ZZZZ=           -208.3791 XXXY=           -204.6728
 XXXZ=            161.1198 YYYX=             38.9873 YYYZ=            -30.0873 ZZZX=             12.0205
 ZZZY=             -4.3458 XXYY=          -2405.8970 XXZZ=          -2325.8438 YYZZ=           -295.1531
 XXYZ=             -3.1019 YYXZ=             -5.5800 ZZXY=            -20.1851
 N-N= 1.252874472995D+03 E-N=-6.594053135887D+03  KE= 1.727062936774D+03
 PrsmSu:  requested number of processors reduced to:  13 ShMem   1 Linda.
 Calling FoFJK, ICntrl=      2127 FMM=F ISym2X=0 I1Cent= 0 IOpClX= 0 NMat=1 NMatS=1 NMatT=0.
 ***** Axes restored to original set *****
 -------------------------------------------------------------------
 Center     Atomic                   Forces (Hartrees/Bohr)
 Number     Number              X              Y              Z
 -------------------------------------------------------------------
      1       16          -0.047331777   -0.013798018    0.016183988
      2       16          -0.003638345    0.017803331    0.011151011
      3        6          -0.013589772   -0.017469334    0.006189325
      4        6          -0.004003568   -0.040205295    0.124640417
      5        6          -0.019877842    0.013871575    0.002477413
      6        6           0.056032441    0.012054734   -0.051065104
      7        6          -0.015445805   -0.002752499   -0.023737357
      8        6           0.040801398    0.013180386   -0.012356107
      9        6          -0.047786979   -0.008862337    0.007339594
     10        6          -0.038664439   -0.000675568    0.002731147
     11        6           0.018405582    0.019057258   -0.024424312
     12        6          -0.003979065   -0.012709466   -0.034431132
     13        6          -0.025469555   -0.014828422    0.023891347
     14        6           0.157392428    0.014552241   -0.078332041
     15        6          -0.067315013   -0.009713605    0.045600973
     16        6           0.080425252    0.023037531   -0.024272621
     17       16          -0.019599100   -0.002191702    0.019758521
     18        1           0.062423954    0.023562786   -0.024779828
     19        1           0.001095121    0.004043348   -0.034571813
     20        1           0.007785276   -0.018021931    0.008242360
     21        1          -0.001311565   -0.003037978   -0.027613397
     22        1          -0.007414959    0.019690682   -0.013665654
     23        1          -0.002133011   -0.011577554    0.009534588
     24        1           0.003771452    0.010862506   -0.014400668
     25        1          -0.005339452    0.007278240   -0.025475077
     26        1           0.003413770    0.022824238    0.035211025
     27        1          -0.004478983   -0.006668418    0.045277060
     28        1          -0.069540326    0.005076046   -0.029253815
     29        1          -0.034627117   -0.044382773    0.060150157
 -------------------------------------------------------------------
 Cartesian Forces:  Max     0.157392428 RMS     0.035585111

 GradGradGradGradGradGradGradGradGradGradGradGradGradGradGradGradGradGrad
 Berny optimization.
 FormGI is forming the generalized inverse of G from B-inverse, IUseBI=4.
 Internal  Forces:  Max     0.218603958 RMS     0.040472125
 Search for a local minimum.
 Step number   1 out of a maximum of  142
 All quantities printed in internal units (Hartrees-Bohrs-Radians)
 Mixed Optimization -- RFO/linear search
 Second derivative matrix not updated -- first step.
 ITU=  0
     Eigenvalues ---    0.00230   0.00230   0.00230   0.00230   0.00230
     Eigenvalues ---    0.00294   0.00863   0.00974   0.01102   0.01378
     Eigenvalues ---    0.01582   0.01752   0.01816   0.02048   0.02172
     Eigenvalues ---    0.02620   0.02697   0.02734   0.02911   0.03009
     Eigenvalues ---    0.03257   0.03284   0.03352   0.03722   0.03794
     Eigenvalues ---    0.03975   0.04303   0.04585   0.05101   0.05584
     Eigenvalues ---    0.06035   0.07727   0.07795   0.07984   0.10377
     Eigenvalues ---    0.12131   0.12527   0.13403   0.13912   0.15226
     Eigenvalues ---    0.15822   0.15837   0.15894   0.15929   0.15971
     Eigenvalues ---    0.16000   0.16000   0.16000   0.16000   0.16033
     Eigenvalues ---    0.16845   0.18586   0.18817   0.19603   0.21565
     Eigenvalues ---    0.22012   0.22035   0.22050   0.23570   0.24999
     Eigenvalues ---    0.25000   0.28783   0.28970   0.31023   0.32706
     Eigenvalues ---    0.33777   0.34635   0.36117   0.36350   0.38364
     Eigenvalues ---    0.38445   0.40043   0.42370   0.46338   0.54787
     Eigenvalues ---    0.56255   0.59951   0.64173   0.65129   0.74215
     Eigenvalues ---    1.00394
 RFO step:  Lambda=-3.84920665D-01 EMin= 2.30000000D-03
 Linear search not attempted -- first point.
 Maximum step size (   0.300) exceeded in Quadratic search.
    -- Step size scaled by   0.366
 Iteration  1 RMS(Cart)=  0.24336983 RMS(Int)=  0.01596432
 Iteration  2 RMS(Cart)=  0.25589215 RMS(Int)=  0.00814873
 Iteration  3 RMS(Cart)=  0.07676090 RMS(Int)=  0.00070828
 Iteration  4 RMS(Cart)=  0.00122797 RMS(Int)=  0.00046116
 Iteration  5 RMS(Cart)=  0.00000184 RMS(Int)=  0.00046116
 Iteration  6 RMS(Cart)=  0.00000001 RMS(Int)=  0.00046116
 Variable       Old X    -DE/DX   Delta X   Delta X   Delta X     New X
                                 (Linear)    (Quad)   (Total)
    R1        5.13076  -0.01733   0.00000  -0.01424  -0.01424   5.11653
    R2        3.45006  -0.06991   0.00000  -0.05500  -0.05500   3.39505
    R3        3.69732  -0.00357   0.00000  -0.00236  -0.00236   3.69497
    R4        2.84242  -0.02942   0.00000  -0.01716  -0.01733   2.82509
    R5        4.57002  -0.00755   0.00000  -0.00984  -0.00996   4.56006
    R6        2.69259   0.07021   0.00000   0.03309   0.03305   2.72564
    R7        2.16766  -0.01632   0.00000  -0.00885  -0.00885   2.15881
    R8        2.48461   0.06265   0.00000   0.02426   0.02438   2.50899
    R9        2.09570  -0.01814   0.00000  -0.00932  -0.00932   2.08638
   R10        2.61607   0.03557   0.00000   0.01559   0.01561   2.63168
   R11        2.07828  -0.00945   0.00000  -0.00513  -0.00511   2.07317
   R12        2.51776   0.01525   0.00000   0.00628   0.00634   2.52410
   R13        2.00538   0.02170   0.00000   0.01033   0.01033   2.01571
   R14        2.68455  -0.00532   0.00000  -0.00240  -0.00240   2.68214
   R15        2.01642   0.02340   0.00000   0.01127   0.01131   2.02773
   R16        2.47783   0.01076   0.00000   0.00383   0.00382   2.48165
   R17        2.03537   0.01075   0.00000   0.00525   0.00525   2.04063
   R18        2.28481   0.04924   0.00000   0.01297   0.01296   2.29777
   R19        2.47098   0.02283   0.00000   0.00806   0.00807   2.47905
   R20        2.55322   0.08540   0.00000   0.03348   0.03348   2.58670
   R21        2.00422   0.02126   0.00000   0.01010   0.01010   2.01432
   R22        2.41194   0.06452   0.00000   0.02093   0.02093   2.43287
   R23        2.07709   0.03950   0.00000   0.01999   0.01999   2.09707
   R24        2.60183  -0.04045   0.00000  -0.02754  -0.02754   2.57430
   R25        3.16438   0.06201   0.00000   0.04899   0.04900   3.21338
   R26        3.40356  -0.08696   0.00000  -0.06068  -0.06068   3.34288
   R27        2.75307  -0.00141   0.00000  -0.00101  -0.00102   2.75205
   R28        2.06272   0.08204   0.00000   0.04103   0.04103   2.10375
   R29        4.61716  -0.00624   0.00000  -0.00296  -0.00281   4.61435
   R30        4.43034   0.01740   0.00000   0.01378   0.01375   4.44409
    A1        2.62239  -0.03711   0.00000  -0.02490  -0.02490   2.59749
    A2        2.03261  -0.02061   0.00000  -0.01187  -0.01187   2.02074
    A3        2.30187  -0.01975   0.00000  -0.01234  -0.01249   2.28937
    A4        1.55298  -0.01570   0.00000  -0.01056  -0.01049   1.54249
    A5        2.19349   0.00986   0.00000   0.00620   0.00629   2.19978
    A6        1.32156   0.02260   0.00000   0.01758   0.01764   1.33920
    A7        2.09577   0.00273   0.00000   0.00014  -0.00002   2.09575
    A8        1.73590   0.01281   0.00000   0.00967   0.00974   1.74564
    A9        2.31671  -0.02415   0.00000  -0.01630  -0.01631   2.30040
   A10        1.59852   0.04494   0.00000   0.03365   0.03375   1.63228
   A11        2.30413  -0.02584   0.00000  -0.01844  -0.01845   2.28568
   A12        2.17389  -0.01785   0.00000  -0.01267  -0.01263   2.16126
   A13        2.24634   0.02670   0.00000   0.01709   0.01714   2.26349
   A14        2.03295  -0.05268   0.00000  -0.03320  -0.03317   1.99978
   A15        1.96110   0.02435   0.00000   0.01465   0.01458   1.97568
   A16        2.10119  -0.03883   0.00000  -0.02363  -0.02359   2.07760
   A17        1.98423   0.03173   0.00000   0.02021   0.02016   2.00439
   A18        2.19705   0.00767   0.00000   0.00390   0.00384   2.20089
   A19        2.22884   0.04816   0.00000   0.02960   0.02953   2.25838
   A20        2.12192  -0.00834   0.00000  -0.00484  -0.00476   2.11715
   A21        1.92927  -0.03869   0.00000  -0.02389  -0.02397   1.90530
   A22        2.18162  -0.11021   0.00000  -0.06663  -0.06642   2.11520
   A23        1.93384   0.06744   0.00000   0.04163   0.04195   1.97579
   A24        2.15812   0.04039   0.00000   0.02331   0.02317   2.18129
   A25        2.01234  -0.06608   0.00000  -0.03985  -0.03983   1.97251
   A26        2.29278   0.01713   0.00000   0.00947   0.00939   2.30218
   A27        1.97160   0.05088   0.00000   0.03203   0.03207   2.00368
   A28        2.87862   0.04963   0.00000   0.02927   0.02925   2.90787
   A29        1.81759   0.00341   0.00000   0.00350   0.00345   1.82104
   A30        1.47208  -0.03018   0.00000  -0.01892  -0.01897   1.45311
   A31        1.51172   0.05438   0.00000   0.03640   0.03639   1.54811
   A32        2.12516  -0.05829   0.00000  -0.03921  -0.03920   2.08596
   A33        2.63815   0.00271   0.00000   0.00178   0.00175   2.63990
   A34        2.58170   0.01490   0.00000   0.00995   0.00994   2.59163
   A35        0.86336   0.00194   0.00000   0.00136   0.00135   0.86471
   A36        1.73156   0.01322   0.00000   0.00893   0.00893   1.74048
   A37        0.83018   0.03391   0.00000   0.02151   0.02170   0.85188
   A38        1.70955   0.02545   0.00000   0.01353   0.01356   1.72311
   A39        0.98060  -0.01450   0.00000  -0.01140  -0.01146   0.96914
   A40        2.33674   0.01000   0.00000   0.00622   0.00635   2.34310
   A41        2.22695   0.03317   0.00000   0.02097   0.02108   2.24803
   A42        1.35309   0.21860   0.00000   0.12590   0.12593   1.47902
   A43        3.22235  -0.15415   0.00000  -0.13111  -0.13168   3.09067
   A44        3.17623  -0.14839   0.00000  -0.13008  -0.13039   3.04584
   A45        3.15154  -0.02535   0.00000  -0.02121  -0.01868   3.13286
   A46        3.16349  -0.00854   0.00000  -0.00798  -0.00636   3.15713
    D1        2.64252  -0.01362   0.00000  -0.01286  -0.01286   2.62966
    D2        3.04327  -0.00592   0.00000  -0.00482  -0.00482   3.03845
    D3        0.82359  -0.00078   0.00000   0.00113   0.00128   0.82486
    D4       -1.49407   0.01001   0.00000   0.00683   0.00669  -1.48739
    D5        2.79059   0.01390   0.00000   0.01242   0.01240   2.80299
    D6       -1.19594   0.01570   0.00000   0.01227   0.01236  -1.18358
    D7        1.47565  -0.00548   0.00000  -0.00296  -0.00296   1.47269
    D8        0.23814   0.02407   0.00000   0.01312   0.01281   0.25096
    D9        0.71372   0.00088   0.00000  -0.00113  -0.00107   0.71265
   D10        2.72209  -0.01607   0.00000  -0.01179  -0.01178   2.71032
   D11        0.24259  -0.02029   0.00000  -0.01731  -0.01727   0.22532
   D12        0.75012  -0.00381   0.00000  -0.00141  -0.00139   0.74872
   D13       -1.72939  -0.00803   0.00000  -0.00693  -0.00689  -1.73628
   D14       -1.73764   0.00941   0.00000   0.00879   0.00875  -1.72889
   D15        2.06604   0.00518   0.00000   0.00328   0.00325   2.06930
   D16       -2.49682   0.00745   0.00000   0.00473   0.00463  -2.49219
   D17        0.30810   0.00367   0.00000   0.00053   0.00043   0.30853
   D18        0.05692   0.00374   0.00000   0.00419   0.00420   0.06112
   D19        2.86184  -0.00004   0.00000  -0.00001   0.00001   2.86184
   D20        2.95954  -0.03355   0.00000  -0.02553  -0.02542   2.93412
   D21       -0.22017  -0.01801   0.00000  -0.01236  -0.01225  -0.23242
   D22        0.14340  -0.01767   0.00000  -0.01387  -0.01377   0.12963
   D23       -3.03630  -0.00213   0.00000  -0.00069  -0.00061  -3.03691
   D24       -2.05207   0.02691   0.00000   0.02194   0.02188  -2.03018
   D25        0.80702   0.02708   0.00000   0.02068   0.02071   0.82773
   D26        2.99536   0.01525   0.00000   0.01424   0.01425   3.00961
   D27       -0.05262   0.00061   0.00000   0.00273   0.00269  -0.04993
   D28       -0.10315  -0.00269   0.00000  -0.00091  -0.00081  -0.10396
   D29        3.13204  -0.01732   0.00000  -0.01242  -0.01236   3.11968
   D30       -3.09881  -0.00818   0.00000  -0.00739  -0.00891  -3.10771
   D31       -0.10158  -0.02036   0.00000  -0.01668  -0.01512  -0.11670
   D32       -0.04235   0.00593   0.00000   0.00358   0.00202  -0.04033
   D33        2.95488  -0.00626   0.00000  -0.00570  -0.00419   2.95069
   D34       -0.99344   0.00026   0.00000  -0.00189  -0.00209  -0.99553
   D35        2.22721  -0.01619   0.00000  -0.01412  -0.01404   2.21317
   D36       -0.50298   0.03773   0.00000   0.03456   0.03341  -0.46957
   D37        2.53906   0.01561   0.00000   0.01484   0.01315   2.55221
   D38        2.81192   0.00270   0.00000   0.00250   0.00407   2.81600
   D39       -0.42922  -0.01942   0.00000  -0.01723  -0.01618  -0.44541
   D40        2.88323   0.01146   0.00000   0.01012   0.01036   2.89359
   D41       -1.25295   0.01975   0.00000   0.01657   0.01695  -1.23600
   D42       -0.15061  -0.00593   0.00000  -0.00430  -0.00479  -0.15540
   D43        1.99640   0.00236   0.00000   0.00216   0.00179   1.99819
   D44        0.24198   0.01346   0.00000   0.01214   0.01201   0.25399
   D45       -2.99555   0.00861   0.00000   0.00754   0.00741  -2.98814
   D46       -1.94325   0.00884   0.00000   0.00760   0.00760  -1.93564
   D47        1.10241   0.00400   0.00000   0.00300   0.00300   1.10541
   D48        0.20682   0.01039   0.00000   0.00961   0.00947   0.21629
   D49       -3.13429  -0.00145   0.00000  -0.00115  -0.00120  -3.13549
   D50        3.13723  -0.00096   0.00000  -0.00092  -0.00089   3.13634
   D51        0.19554   0.00462   0.00000   0.00435   0.00436   0.19991
   D52        2.94169  -0.00558   0.00000  -0.00527  -0.00525   2.93643
   D53        1.40540   0.01795   0.00000   0.00792   0.00772   1.41311
   D54       -1.15888  -0.00736   0.00000  -0.00635  -0.00617  -1.16505
   D55        0.75248   0.01273   0.00000   0.00756   0.00750   0.75997
   D56        1.17134   0.01082   0.00000   0.00740   0.00739   1.17873
         Item               Value     Threshold  Converged?
 Maximum Force            0.218604     0.000450     NO 
 RMS     Force            0.040472     0.000300     NO 
 Maximum Displacement     2.372990     0.001800     NO 
 RMS     Displacement     0.569803     0.001200     NO 
 Predicted change in Energy=-1.335995D-01
 GradGradGradGradGradGradGradGradGradGradGradGradGradGradGradGradGradGrad

                          Input orientation:                          
 ---------------------------------------------------------------------
 Center     Atomic      Atomic             Coordinates (Angstroms)
 Number     Number       Type             X           Y           Z
 ---------------------------------------------------------------------
      1         16           0        3.343206    0.340424    0.017949
      2         16           0        5.829772    1.400219   -0.139053
      3          6           0        7.769968    2.213698   -1.350064
      4          6           0        6.623419    1.446033   -1.925444
      5          6           0        5.976854    1.906595   -3.129688
      6          6           0        7.123660    2.200586   -3.730684
      7          6           0        7.436925    3.258915   -4.579922
      8          6           0        8.717435    3.492569   -4.879551
      9          6           0        9.271540    4.401457   -5.818372
     10          6           0       10.568536    4.473761   -6.011114
     11          6           0       11.777384    4.505346   -6.138283
     12          6           0       13.089157    4.512353   -6.151461
     13          6           0       13.638459    4.119474   -4.960837
     14          6           0       14.405940    3.727441   -4.004419
     15          6           0       12.457943    3.354240   -3.214164
     16          6           0       10.699335    3.167130   -3.174650
     17         16           0       10.009815    2.577263   -2.170957
     18          1           0        2.105929   -0.541656    0.976486
     19          1           0        6.879036    0.397182   -1.551769
     20          1           0        5.042124    2.475364   -3.277150
     21          1           0        8.007513    1.730006   -3.282431
     22          1           0        6.595760    3.799382   -4.951561
     23          1           0        9.507028    2.911062   -4.443912
     24          1           0        8.526646    4.887474   -6.430749
     25          1           0       13.792378    4.678818   -6.935034
     26          1           0       13.423218    4.959521   -4.268392
     27          1           0       15.480560    4.010094   -4.792488
     28          1           0       13.727020    3.315238   -2.500866
     29          1           0       11.798578    2.883543   -2.450608
 ---------------------------------------------------------------------
                    Distance matrix (angstroms):
                    1          2          3          4          5
     1  S    0.000000
     2  S    2.707550   0.000000
     3  C    4.997683   2.427480   0.000000
     4  C    3.969753   1.955292   1.494974   0.000000
     5  C    4.392791   3.036766   2.544923   1.442348   0.000000
     6  C    5.639529   3.900583   2.466827   2.019526   1.327702
     7  C    6.812969   5.075334   3.411067   3.315809   2.462470
     8  C    7.924889   5.932019   3.871755   4.159323   3.617751
     9  C    9.257417   7.287514   5.196805   5.558954   4.930347
    10  C   10.278106   8.147616   5.887721   6.436132   5.998042
    11  C   11.241936   9.000370   6.651171   7.326034   7.032162
    12  C   12.265813   9.926384   7.525357   8.310675   8.155118
    13  C   12.044158   9.571809   7.149045   8.097634   8.182306
    14  C   12.248894   9.690597   7.305692   8.372251   8.667763
    15  C   10.129564   7.563541   5.172312   6.272457   6.641335
    16  C    8.502680   6.004120   3.580409   4.597366   4.888025
    17  S    7.364674   4.794458   2.413080   3.578775   4.199254
    18  H    1.796583   4.345378   6.714622   5.725366   6.151313
    19  H    3.869022   2.025538   2.033267   1.142393   2.362644
    20  H    4.278080   3.409396   3.350114   2.321019   1.104067
    21  H    5.880409   3.838247   2.006097   1.959023   2.044038
    22  H    6.873101   5.431662   4.106572   3.833588   2.699057
    23  H    8.031755   5.859750   3.616018   4.099292   3.898496
    24  H    9.440837   7.682416   5.790941   5.980264   5.126800
    25  H   13.279715  10.969853   8.575437   9.324209   9.124050
    26  H   11.887616   9.347753   6.929315   8.004453   8.128059
    27  H   13.561789  11.027402   8.633107   9.656256   9.874717
    28  H   11.091327   8.462386   6.166376   7.367916   7.902200
    29  H    9.168126   6.570401   4.229608   5.396712   5.942057
                    6          7          8          9         10
     6  C    0.000000
     7  C    1.392624   0.000000
     8  C    2.351433   1.335694   0.000000
     9  C    3.716943   2.490979   1.419329   0.000000
    10  C    4.715385   3.651185   2.381123   1.313231   0.000000
    11  C    5.724125   4.777203   3.460262   2.528318   1.215929
    12  C    6.840437   5.999048   4.665798   3.833725   2.524820
    13  C    6.902029   6.272534   4.961460   4.459244   3.263897
    14  C    7.445657   7.008416   5.760218   5.486965   4.394256
    15  C    5.481996   5.204326   4.096834   4.246378   3.556138
    16  C    3.745508   3.553383   2.634488   3.248296   3.125688
    17  S    3.302199   3.589920   3.137596   4.144438   4.319222
    18  H    7.406413   8.587056   9.709797  11.043117  12.066345
    19  H    2.838975   4.203626   4.902578   6.321566   7.079313
    20  H    2.148020   2.836589   4.136461   5.296754   6.481465
    21  H    1.097074   2.084854   2.482219   3.894279   4.640339
    22  H    2.079752   1.066667   2.144954   2.876397   4.166581
    23  H    2.587260   2.103528   1.073028   2.041047   2.454578
    24  H    4.059321   2.695414   2.094844   1.079854   2.125221
    25  H    7.802646   6.924916   5.602432   4.664958   3.359886
    26  H    6.898209   6.230956   4.966876   4.466576   3.379683
    27  H    8.616235   8.081430   6.783455   6.305357   5.082127
    28  H    6.808764   6.625024   5.548471   5.660125   4.862103
    29  H    4.894882   4.868151   3.970405   4.475691   4.088887
                   11         12         13         14         15
    11  C    0.000000
    12  C    1.311858   0.000000
    13  C    2.235816   1.368821   0.000000
    14  C    3.473877   2.638143   1.287421   0.000000
    15  C    3.215381   3.219840   2.242781   2.135058   0.000000
    16  C    3.425805   4.047504   3.568736   3.839452   1.768976
    17  S    4.751998   5.391784   4.830000   4.900041   2.772238
    18  H   13.024178  14.035025  13.783221  13.940045  11.828091
    19  H    7.868096   8.755422   8.436053   8.588387   6.529315
    20  H    7.594119   8.784403   8.912624   9.475108   7.467982
    21  H    5.483642   6.464974   6.343039   6.741727   4.738050
    22  H    5.362456   6.641709   7.049975   7.867729   6.130407
    23  H    3.250716   4.279195   4.335457   4.985877   3.227473
    24  H    3.286162   4.586418   5.374113   6.465203   5.305876
[...]
   A24        2.10940  -0.00411   0.00122   0.00043   0.00098   2.11037
   A25        2.07725   0.00447   0.00086   0.00342   0.00427   2.08153
   A26        2.11398  -0.00219   0.00012  -0.00398  -0.00388   2.11010
   A27        2.08440  -0.00247  -0.00097  -0.00069  -0.00165   2.08275
   A28        2.05006  -0.00001  -0.00563  -0.00273  -0.00840   2.04166
   A29        2.03797   0.00048   0.00407   0.01370   0.01775   2.05572
   A30        2.13459  -0.00043   0.00221  -0.00570  -0.00355   2.13104
   A31        2.03275   0.00380  -0.00472   0.02613   0.02127   2.05402
   A32        1.51851  -0.00235  -0.00006  -0.01583  -0.01601   1.50250
   A33        2.70172  -0.00169   0.00501  -0.01587  -0.01085   2.69087
   A34        2.92735  -0.00104  -0.00273  -0.01937  -0.02212   2.90523
   A35        1.22859   0.00015   0.00161   0.01205   0.01364   1.24222
   A36        2.12662   0.00089   0.00140   0.00695   0.00832   2.13494
   A37        1.23290  -0.00181  -0.00402  -0.02104  -0.02505   1.20785
   A38        1.64526  -0.00111  -0.01302  -0.03260  -0.04657   1.59869
   A39        0.48148   0.00031  -0.01218  -0.02745  -0.03896   0.44252
   A40        1.97109   0.00172   0.00009   0.02829   0.02715   1.99824
   A41        2.02667  -0.00122  -0.01168  -0.02365  -0.03523   1.99144
   A42        2.46116  -0.00220   0.00338   0.03985   0.04323   2.50438
   A43        2.99146   0.00841  -0.00210  -0.01537  -0.01746   2.97400
   A44        2.93516   0.00762   0.00116   0.01126   0.01246   2.94761
   A45        3.14046  -0.00038  -0.00107   0.00390   0.00281   3.14327
   A46        3.16052  -0.00042  -0.00116   0.02750   0.02640   3.18692
    D1        1.45190  -0.00025  -0.06128  -0.07318  -0.13446   1.31743
    D2        2.63938  -0.00057   0.03783  -0.13502  -0.09747   2.54191
    D3        0.78954  -0.00133   0.03310  -0.15199  -0.11870   0.67084
    D4       -1.67598  -0.00057   0.03760  -0.14035  -0.10267  -1.77865
    D5       -2.83996  -0.00035   0.00143   0.00563   0.00733  -2.83263
    D6       -0.97255   0.00013   0.00050   0.01047   0.01139  -0.96117
    D7        1.68841  -0.00064   0.00574   0.00377   0.01004   1.69845
    D8        0.28419  -0.00006   0.00323  -0.00334  -0.00061   0.28358
    D9        0.53683  -0.00058  -0.00532  -0.03706  -0.04129   0.49554
   D10        2.08341   0.00087  -0.00502  -0.00031  -0.00513   2.07828
   D11       -0.86510   0.00094  -0.00693  -0.00024  -0.00701  -0.87210
   D12        0.82585  -0.00096  -0.00472  -0.00786  -0.01216   0.81369
   D13       -2.12266  -0.00088  -0.00663  -0.00779  -0.01404  -2.13670
   D14       -1.81803  -0.00009  -0.01051  -0.00479  -0.01496  -1.83299
   D15        1.51665  -0.00002  -0.01242  -0.00473  -0.01684   1.49981
   D16       -2.98015   0.00012  -0.00500  -0.00070  -0.00523  -2.98537
   D17        0.16478  -0.00062  -0.00094  -0.02435  -0.02499   0.13979
   D18       -0.04027   0.00001  -0.00318  -0.00165  -0.00434  -0.04461
   D19        3.10466  -0.00072   0.00088  -0.02531  -0.02411   3.08055
   D20        2.93735   0.00070   0.01829   0.04860   0.06684   3.00419
   D21       -0.14011   0.00017   0.01905   0.04413   0.06357  -0.07654
   D22       -0.20745   0.00141   0.01438   0.07132   0.08603  -0.12142
   D23        2.99828   0.00087   0.01514   0.06685   0.08275   3.08102
   D24       -0.85739  -0.00013   0.01033   0.03019   0.04007  -0.81732
   D25        2.28718  -0.00078   0.01391   0.00907   0.02229   2.30947
   D26       -3.06172  -0.00117   0.00023  -0.02004  -0.01898  -3.08070
   D27        0.00764   0.00001   0.00372   0.00782   0.01271   0.02036
   D28        0.01536  -0.00064  -0.00066  -0.01572  -0.01598  -0.00062
   D29        3.08472   0.00055   0.00283   0.01214   0.01571   3.10044
   D30        3.02367   0.00280   0.00360   0.06952   0.07332   3.09699
   D31       -0.10445   0.00034  -0.00209   0.00846   0.00650  -0.09795
   D32       -0.04523   0.00177   0.00005   0.04152   0.04145  -0.00378
   D33        3.10983  -0.00069  -0.00563  -0.01954  -0.02537   3.08446
   D34       -0.45976   0.00012  -0.00052  -0.01710  -0.01675  -0.47651
   D35        2.61777   0.00082   0.00273   0.00777   0.01152   2.62929
   D36        0.01494  -0.00126  -0.01281  -0.10059  -0.11327  -0.09833
   D37        2.94769   0.00056  -0.01495  -0.09619  -0.11116   2.83653
   D38       -3.08556  -0.00147  -0.00625  -0.05693  -0.06316   3.13446
   D39       -0.15282   0.00035  -0.00840  -0.05254  -0.06104  -0.21386
   D40        2.41951  -0.00082  -0.00546  -0.00059  -0.00593   2.41357
   D41       -0.36425  -0.00083  -0.00781  -0.01431  -0.02210  -0.38636
   D42       -0.59180   0.00100  -0.00559   0.01038   0.00476  -0.58705
   D43        2.90762   0.00100  -0.00795  -0.00335  -0.01141   2.89621
   D44        0.61745  -0.00002  -0.00067   0.00622   0.00544   0.62289
   D45       -2.35706   0.00108  -0.00244   0.02524   0.02298  -2.33409
   D46       -2.90312   0.00019   0.00209   0.02503   0.02694  -2.87619
   D47        0.40555   0.00129   0.00032   0.04404   0.04447   0.45002
   D48        0.26034  -0.00010   0.03740   0.07455   0.11211   0.37244
   D49       -2.52410   0.00030   0.03833   0.09918   0.13735  -2.38675
   D50       -0.09719   0.00029   0.02277   0.05704   0.07981  -0.01737
   D51        3.06042   0.00002   0.01397  -0.01997  -0.00600   3.05442
   D52        3.12558   0.00027   0.00880   0.07701   0.08581  -3.07180
   D53        0.70994   0.00050  -0.00929  -0.00975  -0.01864   0.69130
   D54       -1.86325  -0.00112  -0.01431  -0.05807  -0.07368  -1.93694
   D55        0.50456   0.00051   0.01062   0.06162   0.07163   0.57619
   D56        1.03888  -0.00141   0.00431   0.01104   0.01451   1.05338
         Item               Value     Threshold  Converged?
 Maximum Force            0.008417     0.000450     NO 
 RMS     Force            0.002051     0.000300     NO 
 Maximum Displacement     0.716735     0.001800     NO 
 RMS     Displacement     0.142517     0.001200     NO 
 Predicted change in Energy=-1.713958D-03
 GradGradGradGradGradGradGradGradGradGradGradGradGradGradGradGradGradGrad

                          Input orientation:                          
 ---------------------------------------------------------------------
 Center     Atomic      Atomic             Coordinates (Angstroms)
 Number     Number       Type             X           Y           Z
 ---------------------------------------------------------------------
      1         16           0        3.465491    2.375001   -1.213066
      2         16           0        5.461906    1.710042   -0.070254
      3          6           0        7.273764    1.638337   -0.401125
      4          6           0        6.530726    0.909045   -1.430440
      5          6           0        6.469814    1.572462   -2.740279
      6          6           0        7.585956    2.108827   -3.323556
      7          6           0        7.602380    2.911383   -4.477320
      8          6           0        8.784424    3.521723   -4.864651
      9          6           0        8.983596    4.398859   -5.928587
     10          6           0       10.231296    4.930112   -6.102129
     11          6           0       11.415224    5.266512   -6.121789
     12          6           0       12.751748    5.473499   -5.930344
     13          6           0       13.379685    4.933494   -4.776347
     14          6           0       14.611981    4.368572   -4.948210
     15          6           0       12.820399    1.951511   -3.204722
     16          6           0       11.630854    1.599395   -2.965335
     17         16           0        8.628760    2.336797    0.034893
     18          1           0        3.006788    1.113218   -1.267972
     19          1           0        6.481800   -0.174866   -1.356132
     20          1           0        5.474325    1.776605   -3.130531
     21          1           0        8.557483    1.924016   -2.864451
     22          1           0        6.678728    3.091899   -5.021649
     23          1           0        9.647092    3.314789   -4.239864
     24          1           0        8.182482    4.614712   -6.630046
     25          1           0       13.362284    5.926235   -6.705187
     26          1           0       12.752550    4.701064   -3.920770
     27          1           0       15.285229    4.828795   -5.678960
     28          1           0       13.732012    2.441765   -3.545959
     29          1           0       12.836363    1.039729   -2.444410
 ---------------------------------------------------------------------
                    Distance matrix (angstroms):
                    1          2          3          4          5
     1  S    0.000000
     2  S    2.394548   0.000000
     3  C    3.962936   1.843216   0.000000
     4  C    3.404694   1.906325   1.464056   0.000000
     5  C    3.464449   2.857243   2.474331   1.469527   0.000000
     6  C    4.637159   3.905712   2.976479   2.477271   1.368821
     7  C    5.296878   5.044510   4.282990   3.800168   2.468345
     8  C    6.552869   6.107991   5.074672   4.868166   3.697295
     9  C    7.535359   7.345210   6.410682   6.199089   4.947012
    10  C    8.729700   8.336633   7.216940   7.189428   6.060082
    11  C    9.780320   9.203888   7.939858   8.053235   7.038302
    12  C   10.866829  10.081967   8.676926   8.932217   8.053403
    13  C   10.841315   9.758544   8.202615   8.619717   7.949115
    14  C   11.923501  10.704490   9.054258   9.468353   8.887523
    15  C    9.573941   8.001913   6.222812   6.617764   6.378818
    16  C    8.387203   6.815399   5.055782   5.370642   5.166015
    17  S    5.312082   3.229991   1.585552   2.930431   3.598171
    18  H    1.343696   2.796128   4.385688   3.533585   3.790929
    19  H    3.952267   2.499309   2.197032   1.087557   2.229162
    20  H    2.840803   3.061026   3.272118   2.181502   1.088563
    21  H    5.372043   4.175634   2.792404   2.682219   2.120700
    22  H    5.034297   5.282660   4.880179   4.205180   2.748997
    23  H    6.946719   6.121817   4.814467   4.836549   3.921677
    24  H    7.523960   7.672647   6.963047   6.595162   5.226739
    25  H   11.862595  11.145160   9.756912   9.983253   9.065427
    26  H    9.949457   8.770757   7.196200   7.700146   7.117196
    27  H   12.871345  11.733792  10.110299  10.490743   9.846375
    28  H   10.528452   9.000589   7.228032   7.660495   7.358283
    29  H    9.545281   7.776153   5.956161   6.387979   6.395646
                    6          7          8          9         10
     6  C    0.000000
     7  C    1.405539   0.000000
     8  C    2.409891   1.385556   0.000000
     9  C    3.739497   2.495299   1.393197   0.000000
    10  C    4.762137   3.691405   2.368196   1.367151   0.000000
    11  C    5.697752   4.773749   3.397910   2.589008   1.230949
    12  C    6.693413   5.932260   4.548054   3.918396   2.584078
    13  C    6.607318   6.128262   4.808047   4.575925   3.416147
    14  C    7.557180   7.174931   5.889359   5.713210   4.564784
    15  C    5.238155   5.456059   4.637890   5.303773   4.895966
    16  C    4.092560   4.498446   3.924909   4.860642   4.784550
    17  S    3.524002   4.663011   5.043195   6.319897   6.852478
    18  H    5.117171   5.886661   7.219285   8.260690   9.493749
    19  H    3.210166   4.530171   5.592544   6.934356   7.914797
    20  H    2.146303   2.762279   4.124241   5.198107   6.434577
    21  H    1.090320   2.118599   2.570013   3.961736   4.724492
    22  H    2.161715   1.087204   2.154844   2.800553   4.143332
    23  H    2.557782   2.097610   1.085070   2.113580   2.533495
    24  H    4.191441   2.805721   2.161846   1.086472   2.139115
    25  H    7.705453   6.872351   5.488720   4.702009   3.340512
    26  H    5.811201   5.480598   4.245913   4.281083   3.341783
    27  H    8.498527   8.009156   6.680719   6.321213   5.072630
    28  H    6.159084   6.217746   5.232961   5.661677   4.998088
    29  H    5.429792   5.918647   5.332548   6.186037   5.941410
                   11         12         13         14         15
    11  C    0.000000
    12  C    1.365940   0.000000
    13  C    2.404210   1.420429   0.000000
    14  C    3.521767   2.376113   1.366465   0.000000
    15  C    4.633900   4.454001   3.416874   3.477312   0.000000
    16  C    4.843289   5.005633   4.177845   4.526284   1.263451
    17  S    7.365619   7.900758   7.243076   8.047258   5.311628
    18  H   10.559885  11.649636  11.597422  12.602459  10.037963
    19  H    8.755498   9.598942   9.239807   9.982269   6.936613
    20  H    7.511415   8.629419   8.670027   9.670522   7.348531
    21  H    5.472587   6.292089   5.997160   6.853820   4.276563
    22  H    5.326691   6.586298   6.953737   8.035657   6.505523
    23  H    3.236843   4.142058   4.103690   5.124679   3.605541
    24  H    3.336733   4.701627   5.527092   6.650384   6.351044
    25  H    2.136968   1.085406   2.169392   2.659892   5.324033
    26  H    2.636789   2.152915   1.085971   2.150271   2.842071
    27  H    3.919775   2.626283   2.111107   1.095018   4.525042
    28  H    4.470078   3.979650   2.801196   2.540322   1.089876
    29  H    5.780004   5.640674   4.571054   4.528027   1.187297
                   16         17         18         19         20
    16  C    0.000000
    17  S    4.307865   0.000000
    18  H    8.802950   5.899252   0.000000
    19  H    5.678934   3.585086   3.707107   0.000000
    20  H    6.161295   4.503797   3.161953   2.823427   0.000000
    21  H    3.092114   2.929448   5.832354   3.314935   3.098127
    22  H    5.565928   5.471875   5.611454   4.913914   2.599406
    23  H    2.915873   4.501890   7.600835   5.523828   4.583515
    24  H    5.866303   7.057582   8.234081   7.324380   5.256954
    25  H    5.975440   8.984375  12.647716  10.638462   9.602994
    26  H    3.433862   6.184066  10.718668   8.347117   7.883495
    27  H    5.580971   9.119581  13.565487  11.010169  10.586038
    28  H    2.337001   6.235119  11.044668   8.012969   8.294843
    29  H    1.427529   5.053044   9.899997   6.560492   7.430569
                   21         22         23         24         25
    21  H    0.000000
    22  H    3.089850   0.000000
    23  H    2.239030   3.077669   0.000000
    24  H    4.643293   2.677158   3.089960   0.000000
    25  H    7.338605   7.452360   5.167216   5.343790   0.000000
    26  H    5.140660   6.379079   3.415765   5.313488   3.102547
    27  H    7.849953   8.804585   6.012637   7.169339   2.440335
    28  H    5.244832   7.235271   4.234412   6.710482   4.717939
    29  H    4.389443   6.983554   4.309408   7.208235   6.504517
                   26         27         28         29
    26  H    0.000000
    27  H    3.085776   0.000000
    28  H    2.490835   3.558101   0.000000
    29  H    3.948675   5.551241   1.995320   0.000000
 Stoichiometry    C14H12S3
 Framework group  C1[X(C14H12S3)]
 Deg. of freedom    81
 Full point group                 C1      NOp   1
 Largest Abelian subgroup         C1      NOp   1
 Largest concise Abelian subgroup C1      NOp   1
                         Standard orientation:                         
 ---------------------------------------------------------------------
 Center     Atomic      Atomic             Coordinates (Angstroms)
 Number     Number       Type             X           Y           Z
 ---------------------------------------------------------------------
      1         16           0        5.156101    1.542541   -0.471752
      2         16           0        4.268108   -0.679330   -0.378889
      3          6           0        2.636371   -1.495518   -0.116748
      4          6           0        2.948848   -0.595148    0.994627
      5          6           0        2.164087    0.646856    1.027585
      6          6           0        0.805968    0.640151    0.856889
      7          6           0       -0.005303    1.776497    0.695339
      8          6           0       -1.342256    1.616944    0.368437
      9          6           0       -2.280838    2.611744    0.103039
     10          6           0       -3.543852    2.228771   -0.253651
     11          6           0       -4.622926    1.696195   -0.512880
     12          6           0       -5.686448    0.873726   -0.754245
     13          6           0       -5.479819   -0.530528   -0.808957
     14          6           0       -6.415774   -1.318983   -0.201046
     15          6           0       -3.393101   -2.484558    1.062515
     16          6           0       -2.196707   -2.115309    1.231640
     17         16           0        1.537519   -2.322081   -0.906235
     18          1           0        5.867049    1.368272    0.655058
     19          1           0        3.335721   -1.030020    1.913319
     20          1           0        2.731773    1.575481    1.008693
     21          1           0        0.286355   -0.317881    0.825652
     22          1           0        0.434216    2.767959    0.771751
     23          1           0       -1.684467    0.591422    0.275849
     24          1           0       -2.029532    3.661640    0.225444
     25          1           0       -6.699389    1.263237   -0.772648
     26          1           0       -4.476496   -0.886595   -1.023184
     27          1           0       -7.460690   -0.994565   -0.245403
     28          1           0       -4.450716   -2.569162    0.813270
     29          1           0       -2.770971   -3.392907    1.506958
 ---------------------------------------------------------------------
 Rotational constants (GHZ):           0.5614187           0.1251104           0.1085009
 Standard basis: 6-31G(2df,p) (6D, 7F)
 There are   599 symmetry adapted cartesian basis functions of A   symmetry.
 There are   548 symmetry adapted basis functions of A   symmetry.
   548 basis functions,   904 primitive gaussians,   599 cartesian basis functions
    72 alpha electrons       72 beta electrons
       nuclear repulsion energy      1263.9864846694 Hartrees.
 NAtoms=   29 NActive=   29 NUniq=   29 SFac= 1.00D+00 NAtFMM=   60 NAOKFM=F Big=F
 Integral buffers will be    131072 words long.
 Raffenetti 2 integral format.
 Two-electron integral symmetry is turned on.
 One-electron integrals computed using PRISM.
 PrsmSu:  requested number of processors reduced to:  12 ShMem   1 Linda.
 NBasis=   548 RedAO= T EigKep=  8.20D-05  NBF=   548
 NBsUse=   548 1.00D-06 EigRej= -1.00D+00 NBFU=   548
 Initial guess from the checkpoint file:  "SSC1dCCdCCdCCdCdCdCCdCCdCS1.chk"
 B after Tr=    -0.000000   -0.000000    0.000000
         Rot=    0.999953    0.004244   -0.001218   -0.008680 Ang=   1.12 deg.
 ExpMin= 1.17D-01 ExpMax= 2.19D+04 ExpMxC= 3.30D+03 IAcc=2 IRadAn=         4 AccDes= 0.00D+00
 Harris functional with IExCor=  402 and IRadAn=       4 diagonalized for initial guess.
 HarFok:  IExCor=  402 AccDes= 0.00D+00 IRadAn=         4 IDoV= 1 UseB2=F ITyADJ=14
 ICtDFT=  3500011 ScaDFX=  1.000000  1.000000  1.000000  1.000000
 FoFCou: FMM=F IPFlag=           0 FMFlag=      100000 FMFlg1=           0
         NFxFlg=           0 DoJE=T BraDBF=F KetDBF=T FulRan=T
         wScrn=  0.000000 ICntrl=       500 IOpCl=  0 I1Cent=   200000004 NGrid=           0
         NMat0=    1 NMatS0=      1 NMatT0=    0 NMatD0=    1 NMtDS0=    0 NMtDT0=    0
 Petite list used in FoFCou.
 Requested convergence on RMS density matrix=1.00D-08 within 128 cycles.
 Requested convergence on MAX density matrix=1.00D-06.
 Requested convergence on             energy=1.00D-06.
 No special actions if energy rises.
 Integral accuracy reduced to 1.0D-05 until final iterations.
 EnCoef did     2 forward-backward iterations
 EnCoef did     3 forward-backward iterations
 EnCoef did     3 forward-backward iterations
 Initial convergence to 1.0D-05 achieved.  Increase integral accuracy.
slurmstepd: error: *** JOB 27447074 ON lewis4-r630-hpc4-node538 CANCELLED AT 2023-05-16T08:18:25 DUE TO TIME LIMIT ***
